Title
81319
    1CHL1    C3    1   4.611   3.504  10.171 -0.2457  0.1683 -0.5286
    1CHL1    H3    2   4.527   3.433  10.188 -0.5860  0.5211 -0.7249
    1CHL1    O3    3   4.642   3.562  10.299 -0.4962 -0.0177 -0.1755
    1CHL1   H3'    4   4.560   3.603  10.327  0.4678  0.8257  1.5070
    1CHL1    C4    5   4.736   3.438  10.111  0.1413 -0.3173  0.3005
    1CHL1   H4A    6   4.827   3.501  10.110 -1.2586  1.8458 -0.4749
    1CHL1   H4B    7   4.763   3.348  10.170  0.6724  0.9499  2.0515
    1CHL1    C5    8   4.704   3.396   9.967 -0.3566  0.0937  0.3009
    1CHL1    C6    9   4.727   3.269   9.932 -0.1258 -0.4902  0.4481
    1CHL1    H6   10   4.760   3.195  10.006  1.3731 -1.3674 -1.0352
    1CHL1    C7   11   4.724   3.222   9.788  0.1382 -0.7964 -0.4516
    1CHL1   H7A   12   4.816   3.164   9.767 -0.5002 -1.5863 -1.1582
    1CHL1   H7B   13   4.635   3.158   9.768 -1.4878  2.0674 -3.5566
    1CHL1    C8   14   4.707   3.337   9.683  0.4440  0.2708 -0.5420
    1CHL1    H8   15   4.805   3.382   9.657  1.0854 -0.9549 -0.3160
    1CHL1   C14   16   4.656   3.281   9.558 -0.4059  0.0544  0.4504
    1CHL1   H14   17   4.558   3.233   9.576 -0.9039  0.3166 -1.3267
    1CHL1   C15   18   4.741   3.176   9.483 -0.2137 -0.1194 -0.3671
    1CHL1  H15A   19   4.846   3.213   9.475  0.4276 -2.0609 -1.7988
    1CHL1  H15B   20   4.737   3.085   9.546 -2.6204  1.2489  1.6445
    1CHL1   C16   21   4.686   3.167   9.342 -0.8127 -0.1464  0.7693
    1CHL1  H16A   22   4.777   3.162   9.278 -1.4597 -1.6760 -0.0872
    1CHL1  H16B   23   4.628   3.076   9.315  2.5682 -2.4278  0.4517
    1CHL1   C17   24   4.585   3.287   9.333  0.1258 -0.1995  0.4022
    1CHL1   H17   25   4.486   3.243   9.355 -0.0669  1.6138  3.7419
    1CHL1   C13   26   4.618   3.380   9.447  0.2673 -0.2019 -0.0056
    1CHL1   C18   27   4.742   3.460   9.403 -0.2794 -0.3210  0.2627
    1CHL1  H18A   28   4.813   3.393   9.350  1.6706  1.6124  0.2930
    1CHL1  H18B   29   4.696   3.538   9.339 -0.8142  0.8095  1.9473
    1CHL1  H18C   30   4.794   3.518   9.482 -1.3262 -1.2674  1.6943
    1CHL1   C12   31   4.501   3.469   9.496 -0.0637 -0.1018 -0.3748
    1CHL1  H12A   32   4.470   3.549   9.426  2.1130  0.1005 -1.1973
    1CHL1  H12B   33   4.408   3.413   9.518 -0.3791  0.3568 -0.5249
    1CHL1   C11   34   4.551   3.539   9.621  0.4096 -0.8847  0.0923
    1CHL1  H11A   35   4.648   3.590   9.603  0.9189 -0.8773  2.5595
    1CHL1  H11B   36   4.484   3.617   9.663  1.6493  0.0005  0.4798
    1CHL1    C9   37   4.600   3.438   9.734  0.0452  0.0277 -0.4143
    1CHL1    H9   38   4.516   3.372   9.764 -0.6433  1.5729  1.1936
    1CHL1   C10   39   4.645   3.507   9.870  0.6069 -0.1805  0.0661
    1CHL1   C19   40   4.765   3.602   9.843  0.4751  0.4745 -0.0165
    1CHL1  H19A   41   4.734   3.690   9.782  0.8138  1.5540  1.3203
    1CHL1  H19B   42   4.796   3.652   9.937  2.0682  0.3873 -0.4661
    1CHL1  H19C   43   4.853   3.542   9.814 -0.4535 -1.2341  0.5559
    1CHL1    C1   44   4.527   3.579   9.943 -0.5760  1.1131 -0.1099
    1CHL1   H1A   45   4.498   3.671   9.888 -0.5179  1.4210  0.3664
    1CHL1   H1B   46   4.445   3.504   9.939  0.2032  0.2955 -1.9875
    1CHL1    C2   47   4.560   3.617  10.085  0.1871  0.5872 -0.7497
    1CHL1   H2A   48   4.470   3.663  10.131 -0.6192  0.3430 -2.0252
    1CHL1   H2B   49   4.625   3.706  10.087  0.2710  0.5369 -1.2223
    1CHL1   C20   50   4.580   3.337   9.186  0.5710 -0.0989  0.3895
    1CHL1   H20   51   4.657   3.412   9.156  0.2975 -0.1664 -0.5340
    1CHL1   C21   52   4.446   3.416   9.172 -0.8047  0.6408  0.4490
    1CHL1  H21A   53   4.351   3.369   9.204 -1.7676  1.4606 -1.1079
    1CHL1  H21B   54   4.427   3.438   9.065  0.8509 -0.3763 -0.1034
    1CHL1  H21C   55   4.464   3.510   9.229 -2.2259  1.6804 -0.7450
    1CHL1   C22   56   4.589   3.217   9.082 -0.7451 -0.1102  1.1232
    1CHL1  H22A   57   4.695   3.183   9.088 -0.5736  0.4123  1.0642
    1CHL1  H22B   58   4.520   3.139   9.121 -0.0190  0.0477  2.8484
    1CHL1   C23   59   4.555   3.243   8.929  0.2747  0.3696  0.4657
    1CHL1  H23A   60   4.448   3.275   8.928  0.4377  1.1931  2.9041
    1CHL1  H23B   61   4.611   3.334   8.898 -0.4095  0.4340 -0.6384
    1CHL1   C24   62   4.582   3.131   8.828  0.1966  0.2275  0.4054
    1CHL1  H24A   63   4.691   3.112   8.839 -0.0676  0.1958  4.2322
    1CHL1  H24B   64   4.515   3.051   8.867  0.3376 -1.3268 -2.3228
    1CHL1   C25   65   4.555   3.183   8.688 -0.0637 -0.8381  0.2829
    1CHL1   H25   66   4.644   3.246   8.666 -0.3409 -0.8502 -0.9401
    1CHL1   C26   67   4.553   3.064   8.588  0.0834 -0.5785 -0.4151
    1CHL1  H26A   68   4.649   3.010   8.573  1.7437  2.3023 -0.8237
    1CHL1  H26B   69   4.478   2.992   8.627  2.4120 -1.3906  3.0134
    1CHL1  H26C   70   4.529   3.097   8.484 -0.2402  0.9997  0.1364
    1CHL1   C27   71   4.423   3.257   8.667  0.1074  0.7561  0.2595
    1CHL1  H27A   72   4.336   3.191   8.690  1.7090 -1.6876 -0.2221
    1CHL1  H27B   73   4.418   3.353   8.721 -1.2163  1.3145 -0.8083
    1CHL1  H27C   74   4.416   3.275   8.557  0.4935 -0.1180  0.0761
    2CHL1    C3   75   4.469   5.740  10.273 -0.2564  0.1317 -0.4099
    2CHL1    H3   76   4.481   5.630  10.275 -0.8661  0.0699  0.1304
    2CHL1    O3   77   4.407   5.762  10.397 -0.4330 -0.3336 -0.1485
    2CHL1   H3'   78   4.327   5.809  10.372 -1.5239 -1.3660  1.2547
    2CHL1    C4   79   4.598   5.815  10.276  0.4366  0.1559  0.5352
    2CHL1   H4A   80   4.587   5.924  10.290 -1.5939  0.2148 -1.0756
    2CHL1   H4B   81   4.657   5.776  10.362  0.2086  1.3181  1.2395
    2CHL1    C5   82   4.668   5.792  10.143 -0.5260  0.3422 -0.8589
    2CHL1    C6   83   4.794   5.744  10.142  0.6195  0.2705  0.1236
    2CHL1    H6   84   4.837   5.721  10.241 -0.8476  0.5161  0.8590
    2CHL1    C7   85   4.865   5.714  10.015 -0.5454  0.0114  0.2768
    2CHL1   H7A   86   4.970   5.749  10.026  0.1263 -1.2854 -1.5157
    2CHL1   H7B   87   4.864   5.605   9.994  0.3935  0.2089 -0.9647
    2CHL1    C8   88   4.808   5.789   9.889 -0.6613  0.7087  0.3386
    2CHL1    H8   89   4.842   5.894   9.902  2.3437 -0.1139 -0.1607
    2CHL1   C14   90   4.872   5.744   9.757 -0.0651 -0.8481  0.0305
    2CHL1   H14   91   4.853   5.635   9.753  1.3750 -1.1238  0.0106
    2CHL1   C15   92   5.024   5.759   9.740 -0.0146  0.6349  0.2972
    2CHL1  H15A   93   5.045   5.859   9.785  0.4220  1.5310 -1.7455
    2CHL1  H15B   94   5.078   5.685   9.802  0.0413  0.3316 -0.1139
    2CHL1   C16   95   5.048   5.759   9.589  0.5998  0.0611 -0.1584
    2CHL1  H16A   96   5.104   5.849   9.556  0.7317 -0.3040 -0.9544
    2CHL1  H16B   97   5.093   5.664   9.554 -2.2656 -1.3195 -0.3564
    2CHL1   C17   98   4.906   5.765   9.518 -1.0561  0.0397 -0.0234
    2CHL1   H17   99   4.879   5.658   9.501 -1.0503  0.1643 -0.8364
    2CHL1   C13  100   4.815   5.810   9.628  0.2556 -0.2890  0.2336
    2CHL1   C18  101   4.834   5.972   9.629 -0.6806 -0.2806  0.0349
    2CHL1  H18A  102   4.789   6.014   9.721 -2.0864 -0.3685 -0.5985
    2CHL1  H18B  103   4.942   6.000   9.625 -0.6389 -0.2419  1.1067
    2CHL1  H18C  104   4.769   6.012   9.549  2.3528  0.1539 -2.3921
    2CHL1   C12  105   4.667   5.767   9.626  0.3203 -0.9733 -0.6860
    2CHL1  H12A  106   4.609   5.822   9.549 -0.3552  1.7784  1.6036
    2CHL1  H12B  107   4.659   5.657   9.622  0.7764 -0.9812 -1.4311
    2CHL1   C11  108   4.591   5.809   9.758  0.1050 -0.3111  0.5162
    2CHL1  H11A  109   4.598   5.918   9.738  2.6088 -0.9097 -2.6645
    2CHL1  H11B  110   4.484   5.778   9.749 -0.0332  0.5231 -1.0188
    2CHL1    C9  111   4.660   5.773   9.889  0.2442  0.0260 -0.3981
    2CHL1    H9  112   4.649   5.663   9.891 -0.9353  0.1414 -0.2862
    2CHL1   C10  113   4.590   5.824  10.020  0.1232  0.2995  0.2749
    2CHL1   C19  114   4.594   5.981  10.003  0.1790 -0.0765 -0.6232
    2CHL1  H19A  115   4.696   6.021   9.984 -0.1373  0.6201 -0.8927
    2CHL1  H19B  116   4.533   6.020   9.919  0.7187  2.1772 -0.0337
    2CHL1  H19C  117   4.554   6.017  10.101  1.3866 -1.1672  0.3027
    2CHL1    C1  118   4.443   5.763  10.026  0.4043  0.5250 -0.4835
    2CHL1   H1A  119   4.382   5.790   9.938  1.5273  4.5259 -0.2204
    2CHL1   H1B  120   4.448   5.652  10.035 -1.2825  0.4295 -0.3794
    2CHL1    C2  121   4.379   5.790  10.161 -0.0833  0.1863 -0.0699
    2CHL1   H2A  122   4.281   5.739  10.169 -0.0045 -0.2892 -1.7413
    2CHL1   H2B  123   4.360   5.897  10.186 -0.4222 -0.0367  0.6550
    2CHL1   C20  124   4.897   5.842   9.381 -0.4681 -0.3256  0.1035
    2CHL1   H20  125   4.914   5.949   9.405  2.7894 -1.0631  1.6803
    2CHL1   C21  126   4.760   5.805   9.318  0.4703 -0.5011 -0.1422
    2CHL1  H21A  127   4.681   5.860   9.375  0.9790  2.5513 -2.1063
    2CHL1  H21B  128   4.751   5.695   9.322  1.9016 -0.6131  0.3993
    2CHL1  H21C  129   4.754   5.835   9.211 -1.7349  2.6823  0.7097
    2CHL1   C22  130   5.014   5.803   9.281  0.3901 -0.4560  0.3502
    2CHL1  H22A  131   5.106   5.846   9.327  0.0541  1.3800 -0.5795
    2CHL1  H22B  132   5.030   5.693   9.282  0.1708 -0.5023 -0.5715
    2CHL1   C23  133   5.014   5.864   9.137 -1.0007  0.1865  0.6302
    2CHL1  H23A  134   4.957   5.790   9.078 -1.2102  0.9251 -0.1209
    2CHL1  H23B  135   4.956   5.959   9.130  2.3922  2.4914  1.0508
    2CHL1   C24  136   5.161   5.873   9.076  1.1186  0.0780 -0.1245
    2CHL1  H24A  137   5.217   5.934   9.150 -2.2499  1.2283  1.6763
    2CHL1  H24B  138   5.206   5.773   9.089 -0.2011 -0.4529  0.5046
    2CHL1   C25  139   5.182   5.951   8.945  0.5244  0.1142  0.0483
    2CHL1   H25  140   5.279   6.005   8.951 -0.4137  1.8459  0.1370
    2CHL1   C26  141   5.174   5.855   8.825  0.0480 -0.2671 -0.3381
    2CHL1  H26A  142   5.227   5.759   8.843  0.5948 -0.1280 -1.1511
    2CHL1  H26B  143   5.067   5.835   8.805 -0.0949  1.0777 -1.0616
    2CHL1  H26C  144   5.213   5.909   8.735  2.3012  0.5321  1.0346
    2CHL1   C27  145   5.078   6.062   8.926  0.1112  0.3705 -0.5222
    2CHL1  H27A  146   4.977   6.017   8.921 -0.5424  1.7067  0.2468
    2CHL1  H27B  147   5.083   6.131   9.013  0.0785 -0.9177  0.5326
    2CHL1  H27C  148   5.102   6.128   8.840 -0.5076  1.5964  0.2136
    3CHL1    C3  149   6.150   3.278  10.130  1.1051 -0.4453  0.2030
    3CHL1    H3  150   6.254   3.312  10.150  1.2692 -0.6945 -0.2089
    3CHL1    O3  151   6.093   3.208  10.238  0.4136  0.9129  0.4972
    3CHL1   H3'  152   6.004   3.181  10.213  0.1085  1.9995  0.3214
    3CHL1    C4  153   6.068   3.404  10.100 -0.5345 -0.6678  0.2850
    3CHL1   H4A  154   5.963   3.376  10.078 -0.3475  0.1211 -1.9262
    3CHL1   H4B  155   6.060   3.469  10.189 -0.0482  1.0344 -0.8536
    3CHL1    C5  156   6.122   3.484   9.982 -0.1054  0.2116  0.1177
    3CHL1    C6  157   6.143   3.616   9.984 -0.5481  1.1445 -0.0194
    3CHL1    H6  158   6.125   3.669  10.079 -1.9149  1.9859 -0.7001
    3CHL1    C7  159   6.174   3.700   9.866 -0.3672  0.3000 -0.2449
    3CHL1   H7A  160   6.104   3.784   9.845  0.7220  0.7129 -2.4916
    3CHL1   H7B  161   6.275   3.741   9.887  0.9067 -2.3537 -0.8086
    3CHL1    C8  162   6.179   3.618   9.729 -0.7885  0.4253 -0.1716
    3CHL1    H8  163   6.072   3.617   9.698 -0.7531  1.3586 -0.3521
    3CHL1   C14  164   6.262   3.686   9.625 -0.8499  0.1835 -0.1092
    3CHL1   H14  165   6.366   3.685   9.666 -1.8092  0.3742  2.4967
    3CHL1   C15  166   6.239   3.833   9.605 -0.2599 -0.5230  0.6239
    3CHL1  H15A  167   6.133   3.852   9.579 -0.3740 -0.6728  0.9842
    3CHL1  H15B  168   6.270   3.895   9.692  2.5341  1.1654 -1.3792
    3CHL1   C16  169   6.326   3.859   9.481  0.1911 -0.5807 -0.1553
    3CHL1  H16A  170   6.275   3.931   9.414 -0.5945  0.1703  1.2109
    3CHL1  H16B  171   6.422   3.910   9.504  0.1822 -0.1021 -1.1228
    3CHL1   C17  172   6.363   3.730   9.414 -1.0063 -0.2251  0.4351
    3CHL1   H17  173   6.461   3.710   9.461 -0.2666 -0.9232 -1.3395
    3CHL1   C13  174   6.272   3.623   9.486 -0.6965 -0.1556  0.0684
    3CHL1   C18  175   6.130   3.636   9.419  0.4786 -0.0744 -0.2208
    3CHL1  H18A  176   6.103   3.738   9.385  0.8360 -0.3312 -1.3372
    3CHL1  H18B  177   6.119   3.571   9.329  0.3672 -0.0123 -0.2519
    3CHL1  H18C  178   6.048   3.599   9.484  0.1649  1.2301  0.1455
    3CHL1   C12  179   6.310   3.476   9.507  0.0959  0.0110  0.6997
    3CHL1  H12A  180   6.317   3.420   9.411 -1.4806  0.0224  0.5553
    3CHL1  H12B  181   6.411   3.473   9.553 -0.1840  0.2080  1.3315
    3CHL1   C11  182   6.224   3.406   9.606 -0.0193 -0.4106  0.0630
    3CHL1  H11A  183   6.119   3.409   9.571 -0.2066  0.5852  0.6837
    3CHL1  H11B  184   6.262   3.301   9.613 -0.0496 -0.3735  0.9171
    3CHL1    C9  185   6.223   3.471   9.748  0.5571  0.3386 -0.5196
    3CHL1    H9  186   6.323   3.469   9.795 -0.8811 -1.5352  2.8684
    3CHL1   C10  187   6.135   3.391   9.853  0.0777 -0.2823 -0.1111
    3CHL1   C19  188   5.998   3.360   9.795  0.5560  0.0533 -0.0754
    3CHL1  H19A  189   5.956   3.454   9.753 -0.2173 -0.4380 -0.4424
    3CHL1  H19B  190   5.998   3.289   9.709  1.1074  0.5832 -0.5128
    3CHL1  H19C  191   5.928   3.323   9.873  2.0000 -2.8408 -0.0177
    3CHL1    C1  192   6.204   3.262   9.895 -0.0658  0.3566  0.0884
    3CHL1   H1A  193   6.221   3.193   9.810  0.7209  3.3232 -2.3342
    3CHL1   H1B  194   6.305   3.294   9.928  0.2282 -0.2548 -0.1925
    3CHL1    C2  195   6.147   3.184  10.010  0.2330  0.3016  0.2078
    3CHL1   H2A  196   6.208   3.093  10.028 -1.4360 -0.3870  2.9106
    3CHL1   H2B  197   6.041   3.154   9.991  0.0273  1.2458 -0.2232
    3CHL1   C20  198   6.387   3.742   9.263 -0.5629 -1.1734  0.4108
    3CHL1   H20  199   6.295   3.780   9.212  0.5591  1.4021  0.1253
    3CHL1   C21  200   6.422   3.598   9.208  0.0416 -0.5125 -0.3517
    3CHL1  H21A  201   6.329   3.540   9.224 -1.2418  2.0193  2.4023
    3CHL1  H21B  202   6.511   3.552   9.256  0.6008 -1.7992 -2.4975
    3CHL1  H21C  203   6.437   3.596   9.098 -1.2767 -0.2765 -0.5536
    3CHL1   C22  204   6.500   3.841   9.231 -0.8604 -0.1244 -0.5493
    3CHL1  H22A  205   6.467   3.945   9.251  1.7897  0.4745  1.1662
    3CHL1  H22B  206   6.580   3.816   9.303 -0.6722 -0.5473 -0.8977
    3CHL1   C23  207   6.558   3.846   9.084 -0.3306  0.1865 -0.2619
    3CHL1  H23A  208   6.626   3.934   9.095 -0.8671  0.3792  2.0917
    3CHL1  H23B  209   6.617   3.756   9.058  1.1642  1.7726 -2.9198
    3CHL1   C24  210   6.444   3.877   8.984 -0.3118  0.1782 -0.6231
    3CHL1  H24A  211   6.357   3.814   9.012 -2.7197  2.9189 -1.3562
    3CHL1  H24B  212   6.405   3.981   8.994 -2.5565 -0.6279 -0.3414
    3CHL1   C25  213   6.465   3.845   8.833  1.0101  0.6146 -0.5391
    3CHL1   H25  214   6.553   3.899   8.793  0.6486  0.7318 -1.2055
    3CHL1   C26  215   6.474   3.695   8.798  0.3554 -0.1075  0.3300
    3CHL1  H26A  216   6.560   3.654   8.855  0.0545 -1.6156 -0.2525
    3CHL1  H26B  217   6.387   3.637   8.835 -2.1516  1.1723 -3.0890
    3CHL1  H26C  218   6.478   3.679   8.688 -2.9325 -3.7748  0.5381
    3CHL1   C27  219   6.331   3.896   8.766 -0.5825 -0.2410 -0.3260
    3CHL1  H27A  220   6.329   3.869   8.659 -2.6294  0.0589 -0.4119
    3CHL1  H27B  221   6.245   3.860   8.826 -2.5122  2.4613 -1.2648
    3CHL1  H27C  222   6.327   4.007   8.767 -0.6168 -0.2195  1.5988
    4CHL1    C3  223   6.491   3.498  10.304 -0.1294 -0.2824  0.3448
    4CHL1    H3  224   6.466   3.391  10.283 -0.5691  0.2408 -2.0158
    4CHL1    O3  225   6.437   3.534  10.429 -0.2319  0.0617 -0.2159
    4CHL1   H3'  226   6.374   3.464  10.444  1.6556 -2.3686 -2.7824
    4CHL1    C4  227   6.643   3.512  10.302 -0.1455 -0.2365  0.4933
    4CHL1   H4A  228   6.675   3.613  10.337 -0.9359 -0.3217  1.5168
    4CHL1   H4B  229   6.675   3.439  10.379 -1.1667  0.7509  1.9129
    4CHL1    C5  230   6.699   3.491  10.160 -0.9031 -0.1061 -0.6211
    4CHL1    C6  231   6.801   3.401  10.141 -0.1504  1.3602  0.2431
    4CHL1    H6  232   6.832   3.337  10.224 -0.5692  1.3168  0.3667
    4CHL1    C7  233   6.866   3.386  10.001 -0.1058 -0.4281  1.0394
    4CHL1   H7A  234   6.976   3.381  10.012 -0.3057 -1.2603  3.1947
    4CHL1   H7B  235   6.836   3.291   9.952 -2.1298  1.0519 -0.7999
    4CHL1    C8  236   6.825   3.493   9.897  0.8533  0.4340  0.1369
    4CHL1    H8  237   6.881   3.584   9.929  0.6351 -0.2814  2.7828
    4CHL1   C14  238   6.863   3.435   9.759 -0.9321 -0.0803 -0.7669
    4CHL1   H14  239   6.800   3.347   9.733 -0.4241 -1.0106  0.9783
    4CHL1   C15  240   7.014   3.391   9.733  0.0769 -0.1042 -0.5565
    4CHL1  H15A  241   7.084   3.454   9.791  0.3326 -0.9711  0.0892
    4CHL1  H15B  242   7.022   3.288   9.772  0.4690  0.3834  0.6835
    4CHL1   C16  243   7.027   3.395   9.587 -0.3458  0.6318  0.2679
    4CHL1  H16A  244   7.112   3.461   9.557 -1.0291  1.6990  0.6155
    4CHL1  H16B  245   7.049   3.298   9.539  3.4391  1.0277  0.8873
    4CHL1   C17  246   6.898   3.459   9.530  0.1433  0.0376  0.6082
    4CHL1   H17  247   6.836   3.369   9.507 -0.8935  0.7876  0.3887
    4CHL1   C13  248   6.834   3.537   9.651 -0.9062 -0.0141 -0.2793
    4CHL1   C18  249   6.912   3.668   9.673 -0.7509  0.4420  0.3341
    4CHL1  H18A  250   6.882   3.733   9.758 -0.0516 -1.2188  1.9322
    4CHL1  H18B  251   7.022   3.653   9.682 -0.8105  0.7578  2.1378
    4CHL1  H18C  252   6.902   3.724   9.578  2.2764  0.2543 -0.2004
    4CHL1   C12  253   6.684   3.560   9.649 -0.0276 -0.0324  0.3643
    4CHL1  H12A  254   6.650   3.620   9.562 -0.2475 -1.0493 -0.2696
    4CHL1  H12B  255   6.637   3.460   9.643 -0.2106  0.0183  0.8759
    4CHL1   C11  256   6.639   3.618   9.782  0.7191  0.9041 -0.2136
    4CHL1  H11A  257   6.675   3.723   9.791  0.9877  0.9939 -1.9382
    4CHL1  H11B  258   6.529   3.622   9.769  0.6755  0.6765  0.0790
    4CHL1    C9  259   6.676   3.531   9.897  0.0180 -0.8390 -0.0014
    4CHL1    H9  260   6.620   3.438   9.874 -1.1561 -0.0431 -0.4321
    4CHL1   C10  261   6.635   3.577  10.043  0.1585  0.6634  0.0908
    4CHL1   C19  262   6.676   3.721  10.056 -0.2635 -0.6331 -0.3183
    4CHL1  H19A  263   6.782   3.746  10.032  0.1926 -2.0950  0.0222
    4CHL1  H19B  264   6.608   3.780   9.992  0.1347  0.4319  0.2106
    4CHL1  H19C  265   6.650   3.762  10.156  2.6609  0.4813  0.0988
    4CHL1    C1  266   6.476   3.554  10.058 -0.3219 -0.5556  0.2637
    4CHL1   H1A  267   6.414   3.608   9.984  0.0850 -3.0678 -2.0541
    4CHL1   H1B  268   6.470   3.445  10.038  0.4795 -0.9509  1.9897
    4CHL1    C2  269   6.429   3.588  10.201 -0.3877 -0.3279  0.6576
    4CHL1   H2A  270   6.319   3.570  10.207 -0.6458  1.3000  1.3755
    4CHL1   H2B  271   6.434   3.695  10.230  1.6498 -0.6301  1.5524
    4CHL1   C20  272   6.921   3.534   9.393 -0.1483  0.1764  0.8014
    4CHL1   H20  273   6.991   3.617   9.416  1.6429 -1.2963  0.8355
    4CHL1   C21  274   6.780   3.578   9.334 -0.3000 -0.7039 -0.5639
    4CHL1  H21A  275   6.789   3.625   9.233 -2.6688  2.4872  0.5412
    4CHL1  H21B  276   6.745   3.663   9.397 -1.7719 -2.2600  0.8039
    4CHL1  H21C  277   6.701   3.501   9.347  0.4473 -1.2103  1.2900
    4CHL1   C22  278   6.991   3.438   9.287  0.7329  0.3602 -0.5924
    4CHL1  H22A  279   7.095   3.436   9.326  1.5793  0.7636 -2.6680
    4CHL1  H22B  280   6.938   3.341   9.293 -1.4552  1.5714  1.3839
    4CHL1   C23  281   6.997   3.489   9.145  0.4648  0.1841  0.1557
    4CHL1  H23A  282   6.892   3.477   9.112  0.4230 -1.2811  0.7432
    4CHL1  H23B  283   7.036   3.593   9.135  2.0432 -0.4989 -1.2758
    4CHL1   C24  284   7.104   3.415   9.072 -0.3321  0.2044  0.2293
    4CHL1  H24A  285   7.197   3.398   9.131  0.4807  2.4603 -0.2794
    4CHL1  H24B  286   7.054   3.321   9.039 -2.6740  1.5396 -0.2364
    4CHL1   C25  287   7.140   3.491   8.943 -0.2177 -0.1425  0.0583
    4CHL1   H25  288   7.177   3.595   8.960  1.7419 -0.6994 -0.5500
    4CHL1   C26  289   7.249   3.417   8.870  0.1082  0.4278  0.0965
    4CHL1  H26A  290   7.213   3.314   8.847  0.9088 -0.3511  2.0595
    4CHL1  H26B  291   7.273   3.464   8.772  2.2625 -1.0969 -0.1869
    4CHL1  H26C  292   7.341   3.405   8.931  0.4802  0.4688 -0.4519
    4CHL1   C27  293   7.027   3.498   8.847 -0.2952  0.0418 -0.3360
    4CHL1  H27A  294   7.056   3.557   8.758  3.2075  0.6245  1.0558
    4CHL1  H27B  295   7.003   3.399   8.804  1.5970  0.8830 -3.7200
    4CHL1  H27C  296   6.942   3.555   8.890 -0.4523  0.8069 -1.5902
    5CHL1    C3  297   1.833   5.653  10.212 -0.0073 -0.5433 -0.0929
    5CHL1    H3  298   1.772   5.742  10.185 -0.0906 -0.9054 -1.1426
    5CHL1    O3  299   1.800   5.634  10.351 -0.1220 -0.0639  0.0023
    5CHL1   H3'  300   1.706   5.615  10.359  0.5657 -4.2541  0.7661
    5CHL1    C4  301   1.799   5.533  10.124  0.1967  0.1641  0.3598
    5CHL1   H4A  302   1.860   5.447  10.159  1.8271  0.4352 -1.6093
    5CHL1   H4B  303   1.691   5.511  10.129  0.1608  0.4737  1.2019
    5CHL1    C5  304   1.835   5.556   9.976 -0.3998 -0.4209 -0.3851
    5CHL1    C6  305   1.745   5.541   9.878 -0.5822 -0.4014  0.2713
    5CHL1    H6  306   1.648   5.496   9.903 -0.0487 -1.4073  0.5690
    5CHL1    C7  307   1.761   5.592   9.737 -0.3271 -0.4559  0.2493
    5CHL1   H7A  308   1.718   5.525   9.659 -0.4907  0.3787 -0.3873
    5CHL1   H7B  309   1.698   5.683   9.726  0.8108  0.5564  1.6908
    5CHL1    C8  310   1.904   5.626   9.697 -0.8546 -0.5850 -0.0767
    5CHL1    H8  311   1.954   5.531   9.666  0.5851 -0.3961  1.4999
    5CHL1   C14  312   1.902   5.716   9.571  0.6553 -0.3940 -0.0820
    5CHL1   H14  313   1.852   5.809   9.606 -0.1958 -0.9190  0.1240
    5CHL1   C15  314   1.831   5.664   9.450 -0.0945  1.0406  0.4739
    5CHL1  H15A  315   1.863   5.558   9.446  0.2360  1.1424  0.4416
    5CHL1  H15B  316   1.720   5.658   9.452 -0.1887  2.4377  1.0243
    5CHL1   C16  317   1.886   5.755   9.340 -0.1367 -0.7136  0.6473
    5CHL1  H16A  318   1.922   5.691   9.257 -2.1380  0.0848 -0.9278
    5CHL1  H16B  319   1.805   5.819   9.299 -0.6496 -1.0553  1.1060
    5CHL1   C17  320   1.999   5.843   9.397 -0.2606  0.9810 -0.5005
    5CHL1   H17  321   1.940   5.931   9.428 -0.4838  1.0778 -1.1711
    5CHL1   C13  322   2.037   5.759   9.521  0.0112  0.1523  0.2870
    5CHL1   C18  323   2.127   5.636   9.493  0.0594 -0.3732 -0.4506
    5CHL1  H18A  324   2.222   5.666   9.444 -0.1089  2.4901  0.7769
    5CHL1  H18B  325   2.145   5.576   9.585 -0.4456 -0.2742 -0.2814
    5CHL1  H18C  326   2.079   5.561   9.426 -0.0739  0.2229 -1.0260
    5CHL1   C12  327   2.105   5.840   9.638  0.8117 -1.0012  0.3985
    5CHL1  H12A  328   2.209   5.855   9.600  0.9182 -1.9508  0.2725
    5CHL1  H12B  329   2.046   5.933   9.637  2.3558  0.0199 -0.2322
    5CHL1   C11  330   2.106   5.763   9.769 -0.1432 -0.0018 -0.4004
    5CHL1  H11A  331   2.181   5.682   9.783 -0.2021 -0.1870 -1.1560
    5CHL1  H11B  332   2.133   5.839   9.846 -1.0499 -1.5639  1.5465
    5CHL1    C9  333   1.968   5.703   9.811 -0.4340 -0.1200 -0.1542
    5CHL1    H9  334   1.907   5.792   9.840 -0.1510 -0.2988  1.0296
    5CHL1   C10  335   1.969   5.626   9.945 -1.3954  0.5405 -0.2922
    5CHL1   C19  336   2.078   5.516   9.949 -0.8432 -0.0281 -0.0067
    5CHL1  H19A  337   2.071   5.439   9.869 -0.9019  0.8354 -0.8502
    5CHL1  H19B  338   2.182   5.554   9.937 -0.9034  0.6848  1.5305
    5CHL1  H19C  339   2.073   5.468  10.049 -1.5226  0.7721  0.3574
    5CHL1    C1  340   2.010   5.723  10.059  0.5882  0.5343  0.7571
    5CHL1   H1A  341   2.121   5.738  10.059  0.5705  0.7437  1.7719
    5CHL1   H1B  342   1.961   5.821  10.044 -2.2334 -1.2022 -2.8758
    5CHL1    C2  343   1.979   5.683  10.198 -0.4013  0.4277  0.5006
    5CHL1   H2A  344   2.010   5.761  10.271 -0.2685 -0.4214  1.3706
    5CHL1   H2B  345   2.033   5.591  10.228  0.3077  0.5744 -0.3148
    5CHL1   C20  346   2.110   5.872   9.294  0.2351  0.2998 -0.2993
    5CHL1   H20  347   2.162   5.776   9.278 -2.6684 -1.4728  0.0969
    5CHL1   C21  348   2.204   5.978   9.351 -0.1520  0.2442 -0.6311
    5CHL1  H21A  349   2.135   6.052   9.397 -1.0098 -1.3675  0.7933
    5CHL1  H21B  350   2.262   6.027   9.270  0.9415 -2.4217 -1.5833
    5CHL1  H21C  351   2.267   5.944   9.436 -0.3526  0.4370 -0.4013
    5CHL1   C22  352   2.061   5.926   9.162  0.3164  0.8235 -0.6267
    5CHL1  H22A  353   2.149   5.942   9.095  0.1494  1.8682 -0.6227
    5CHL1  H22B  354   1.997   5.841   9.130 -0.7227 -0.2508  3.6720
    5CHL1   C23  355   1.968   6.046   9.164 -0.2113  0.3768 -0.8517
    5CHL1  H23A  356   1.887   6.026   9.238 -0.1280 -0.0856 -0.8822
    5CHL1  H23B  357   2.029   6.130   9.204 -0.5557 -0.1087  0.7632
    5CHL1   C24  358   1.917   6.084   9.036  0.6647 -0.6639 -0.2899
    5CHL1  H24A  359   1.872   5.993   8.991 -1.1626 -0.0704  0.2415
    5CHL1  H24B  360   1.835   6.155   9.061  1.0151 -0.6809  0.9512
    5CHL1   C25  361   2.029   6.135   8.943 -0.2077 -0.0586 -0.4593
    5CHL1   H25  362   2.120   6.071   8.942  1.2952  1.9485  0.0643
    5CHL1   C26  363   1.978   6.150   8.800  0.2768 -0.5952 -0.4498
    5CHL1  H26A  364   1.909   6.236   8.797 -1.0405 -1.6354 -2.2351
    5CHL1  H26B  365   2.068   6.175   8.738 -0.3286 -0.3064 -1.2267
    5CHL1  H26C  366   1.913   6.070   8.758 -1.5598  1.0783 -0.9218
    5CHL1   C27  367   2.090   6.273   8.984  0.1857  0.1531  0.1931
    5CHL1  H27A  368   2.106   6.273   9.094 -0.8759 -3.0834  0.4630
    5CHL1  H27B  369   2.183   6.279   8.924 -0.1459 -2.9570 -0.8175
    5CHL1  H27C  370   2.019   6.356   8.964 -1.2814 -0.9235  0.7270
    6CHL1    C3  371   2.931   2.487  10.295 -0.6666 -0.1322  0.2095
    6CHL1    H3  372   2.888   2.385  10.306  0.4174 -0.4184  2.4388
    6CHL1    O3  373   2.958   2.545  10.420  0.5561 -0.1070 -0.0551
    6CHL1   H3'  374   2.881   2.521  10.472 -0.2892  0.4299 -1.0127
    6CHL1    C4  375   3.070   2.482  10.221 -0.1553  0.0962 -0.2923
    6CHL1   H4A  376   3.125   2.578  10.214  1.6838 -0.9574 -1.1387
    6CHL1   H4B  377   3.135   2.419  10.285 -1.0548 -1.7878 -1.1478
    6CHL1    C5  378   3.025   2.433  10.081 -1.2988  0.3234 -0.6204
    6CHL1    C6  379   3.082   2.318  10.034 -0.6400 -0.1117 -0.4718
    6CHL1    H6  380   3.148   2.258  10.099 -1.4575 -0.2611  0.2309
    6CHL1    C7  381   3.078   2.266   9.894 -0.1102 -0.0693 -1.2065
    6CHL1   H7A  382   3.181   2.233   9.869  0.1080  0.3711 -0.8954
    6CHL1   H7B  383   3.009   2.179   9.887 -1.4997  1.0691 -2.0965
    6CHL1    C8  384   3.021   2.376   9.802 -0.0780  0.3744 -0.5246
    6CHL1    H8  385   3.106   2.446   9.786 -1.8248  2.8207  0.3452
    6CHL1   C14  386   2.980   2.315   9.673 -0.0670  0.6718 -0.0162
    6CHL1   H14  387   2.896   2.247   9.696  0.6183  0.1433  0.9885
    6CHL1   C15  388   3.091   2.226   9.610  0.3691 -0.3945 -0.0529
    6CHL1  H15A  389   3.187   2.281   9.603  0.5955 -0.6396  0.9574
    6CHL1  H15B  390   3.123   2.134   9.663  2.9475 -0.2423 -1.2086
    6CHL1   C16  391   3.044   2.207   9.467 -0.2118 -0.0291  0.3378
    6CHL1  H16A  392   3.123   2.223   9.390  0.0328 -0.4773  0.4960
    6CHL1  H16B  393   3.002   2.107   9.446 -0.3123  0.3791 -1.6575
    6CHL1   C17  394   2.931   2.314   9.436  0.0190 -0.8759 -0.9281
    6CHL1   H17  395   2.833   2.262   9.432 -1.5940  1.9165 -0.6850
    6CHL1   C13  396   2.936   2.408   9.567  0.2258  0.1016 -0.4993
    6CHL1   C18  397   3.038   2.521   9.542  0.0425 -0.3569 -0.4464
    6CHL1  H18A  398   2.993   2.592   9.469  0.1419 -1.2782 -1.4315
    6CHL1  H18B  399   3.066   2.580   9.632 -3.1397  0.4443  0.1402
    6CHL1  H18C  400   3.120   2.464   9.494 -1.4375 -1.3769 -1.8648
    6CHL1   C12  401   2.800   2.467   9.618 -0.0441  0.5468  0.0448
    6CHL1  H12A  402   2.766   2.547   9.549 -1.2904 -0.1624 -0.1910
    6CHL1  H12B  403   2.722   2.387   9.615 -1.2698  1.7398 -0.8651
    6CHL1   C11  404   2.817   2.531   9.757  0.4267  0.2299  0.0069
    6CHL1  H11A  405   2.872   2.625   9.737 -0.4406  1.0799  1.4473
    6CHL1  H11B  406   2.720   2.571   9.794 -0.0636 -0.4154 -0.5588
    6CHL1    C9  407   2.904   2.446   9.865  0.6034 -0.2370 -0.3685
    6CHL1    H9  408   2.837   2.360   9.887 -0.0762 -0.6304 -3.4833
    6CHL1   C10  409   2.928   2.515   9.999 -0.1975 -0.6061  0.3085
    6CHL1   C19  410   2.995   2.653   9.974  0.0347 -0.0454  0.0894
    6CHL1  H19A  411   3.105   2.642   9.963  0.4476  0.0983  3.2097
    6CHL1  H19B  412   2.941   2.722   9.906 -0.2927  0.6672  1.0652
    6CHL1  H19C  413   3.000   2.713  10.067 -0.7228 -0.0683  0.1464
    6CHL1    C1  414   2.799   2.537  10.086  0.5443  1.0341 -0.0438
    6CHL1   H1A  415   2.733   2.606  10.028  0.0370  0.3256 -0.3319
    6CHL1   H1B  416   2.745   2.439  10.089  2.4906 -0.1167 -0.5946
    6CHL1    C2  417   2.835   2.580  10.224  0.3379  0.0665  0.1430
    6CHL1   H2A  418   2.740   2.587  10.280 -1.4237 -1.0791 -2.5330
    6CHL1   H2B  419   2.877   2.683  10.231  2.0490 -0.6542  1.3149
    6CHL1   C20  420   2.930   2.378   9.294  0.3623  0.5733  0.3636
    6CHL1   H20  421   3.023   2.439   9.289 -0.0576  1.2151  0.2829
    6CHL1   C21  422   2.805   2.468   9.285  0.6395 -0.7707  0.5842
    6CHL1  H21A  423   2.757   2.430   9.193  0.2719  0.8394  0.0730
    6CHL1  H21B  424   2.814   2.578   9.273 -0.6402 -0.7680 -0.5272
    6CHL1  H21C  425   2.738   2.452   9.372 -0.7033  1.8859  0.1651
    6CHL1   C22  426   2.941   2.275   9.180 -0.1979 -1.0943  0.0945
    6CHL1  H22A  427   3.021   2.199   9.196  0.4090 -0.2986  1.0038
    6CHL1  H22B  428   2.847   2.218   9.194  0.3380 -1.6830  1.5320
    6CHL1   C23  429   2.941   2.337   9.041  0.2870  0.8196 -0.1483
    6CHL1  H23A  430   2.847   2.385   9.005 -0.3343  1.4752  2.2117
    6CHL1  H23B  431   3.005   2.425   9.060  1.6277 -0.6379  2.6729
    6CHL1   C24  432   3.004   2.249   8.943  0.1282  0.1324  0.1763
    6CHL1  H24A  433   3.108   2.214   8.960 -0.8707 -4.4800 -1.6567
    6CHL1  H24B  434   2.952   2.152   8.934 -1.6541  0.9879  0.8146
    6CHL1   C25  435   3.007   2.294   8.795  0.1039 -0.5297  0.1443
    6CHL1   H25  436   3.072   2.222   8.741 -1.8469 -1.1831 -1.4326
    6CHL1   C26  437   2.876   2.272   8.716 -0.3710 -0.0471  0.3087
    6CHL1  H26A  438   2.889   2.277   8.606 -1.4804 -2.3856 -0.0015
    6CHL1  H26B  439   2.817   2.184   8.752  2.0575 -1.6459  0.6546
    6CHL1  H26C  440   2.803   2.352   8.739  0.4560  1.0270 -0.6926
    6CHL1   C27  441   3.075   2.425   8.767  0.7402 -0.0349 -0.3075
    6CHL1  H27A  442   3.172   2.430   8.821  0.0628 -0.8347  1.0655
    6CHL1  H27B  443   3.090   2.427   8.657 -1.2155 -0.9609 -0.6480
    6CHL1  H27C  444   3.004   2.503   8.801  1.1666  1.1168 -1.9924
    7CHL1    C3  445   5.083   0.793  10.474  0.8167 -0.3966 -0.2577
    7CHL1    H3  446   5.153   0.877  10.495  1.8924 -1.8369  2.4427
    7CHL1    O3  447   5.062   0.718  10.598 -0.6221 -0.2076  0.3611
    7CHL1   H3'  448   5.033   0.633  10.565  2.8418 -1.3235 -0.1925
    7CHL1    C4  449   4.942   0.842  10.428 -0.3738 -0.4643 -0.2783
    7CHL1   H4A  450   4.883   0.748  10.421  1.4778 -1.8410  1.5206
    7CHL1   H4B  451   4.879   0.893  10.503 -0.0108 -0.4897  0.0480
    7CHL1    C5  452   4.953   0.917  10.299  0.0631 -0.0075 -0.1989
    7CHL1    C6  453   4.922   1.044  10.296 -0.0066 -0.6040  0.0464
    7CHL1    H6  454   4.888   1.082  10.393  1.9089 -0.0373  0.5491
    7CHL1    C7  455   4.937   1.128  10.172 -0.0085 -0.4460 -0.1885
    7CHL1   H7A  456   4.853   1.201  10.177  1.6568  1.4735  1.2680
    7CHL1   H7B  457   5.026   1.185  10.205 -1.7318  2.5423 -0.3221
    7CHL1    C8  458   4.948   1.044  10.048  0.7509 -0.5490 -0.0705
    7CHL1    H8  459   4.850   0.992  10.037  1.4793 -1.6902 -1.5372
    7CHL1   C14  460   4.989   1.131   9.929 -0.1143  0.0006 -0.0817
    7CHL1   H14  461   5.095   1.159   9.945  0.0235  0.3473 -1.5169
    7CHL1   C15  462   4.924   1.268   9.909  0.0802  0.5095 -0.5372
    7CHL1  H15A  463   4.816   1.280   9.934  0.3052 -1.5278  1.7436
    7CHL1  H15B  464   4.980   1.336   9.976  0.7034 -1.4283  1.0328
    7CHL1   C16  465   4.945   1.297   9.760 -0.2610 -0.0381 -0.0595
    7CHL1  H16A  466   4.844   1.310   9.716  0.5303 -2.5294 -3.0242
    7CHL1  H16B  467   5.010   1.385   9.739 -2.0365  1.1531 -0.7422
    7CHL1   C17  468   5.006   1.174   9.691  0.1301 -0.3189 -0.1397
    7CHL1   H17  469   5.111   1.211   9.693  0.6403 -1.7347  0.2875
    7CHL1   C13  470   4.989   1.053   9.792  0.0249  0.1160 -0.1068
    7CHL1   C18  471   4.854   0.978   9.766 -0.0700 -0.5051  0.4469
    7CHL1  H18A  472   4.845   0.884   9.826  1.7393 -0.7750  0.3670
    7CHL1  H18B  473   4.764   1.042   9.779 -1.2351 -1.6671 -1.4549
    7CHL1  H18C  474   4.846   0.953   9.659 -0.6794  1.3341  0.0271
    7CHL1   C12  475   5.100   0.946   9.798 -0.5177  0.1784  0.0617
    7CHL1  H12A  476   5.093   0.875   9.712 -0.6984 -1.0981  1.1089
    7CHL1  H12B  477   5.196   1.002   9.799  0.9758 -2.1732 -0.9310
    7CHL1   C11  478   5.085   0.853   9.924  0.2235 -0.4687 -0.0769
    7CHL1  H11A  479   5.000   0.790   9.892  0.3642 -0.7609  0.1200
    7CHL1  H11B  480   5.164   0.776   9.938  1.0518  0.3675 -0.0373
    7CHL1    C9  481   5.052   0.930  10.058  0.6869  0.1543 -0.4033
    7CHL1    H9  482   5.151   0.976  10.077  0.5146 -0.4421  2.4009
    7CHL1   C10  483   5.016   0.837  10.185  0.3978 -0.4085  0.1551
    7CHL1   C19  484   4.931   0.725  10.130 -0.3242 -0.4039  0.3832
    7CHL1  H19A  485   4.989   0.645  10.080 -0.4769  0.0728 -0.5879
    7CHL1  H19B  486   4.877   0.672  10.212  0.2736 -0.0937  0.9919
    7CHL1  H19C  487   4.859   0.757  10.051 -2.8035 -0.7945  2.3487
    7CHL1    C1  488   5.156   0.777  10.229 -0.9203  0.2834 -0.0296
    7CHL1   H1A  489   5.186   0.707  10.147  0.5400  0.2722  0.4953
    7CHL1   H1B  490   5.238   0.851  10.241  2.2248 -2.9372  0.1659
    7CHL1    C2  491   5.142   0.702  10.361 -0.7797 -0.3815 -0.3155
    7CHL1   H2A  492   5.242   0.682  10.407  0.3422  2.4383 -1.3273
    7CHL1   H2B  493   5.087   0.605  10.352 -0.7293 -0.3873 -0.5509
    7CHL1   C20  494   4.949   1.150   9.547 -0.4403  0.4587 -0.4095
    7CHL1   H20  495   4.848   1.102   9.552  0.2619 -0.8941  2.1598
    7CHL1   C21  496   5.052   1.045   9.501 -0.4013  0.4010  0.4621
    7CHL1  H21A  497   5.156   1.068   9.533 -0.6358  1.0202  0.7996
    7CHL1  H21B  498   5.055   1.040   9.390  1.5154 -0.0579  0.5054
    7CHL1  H21C  499   5.020   0.945   9.538 -2.8664  0.9299 -0.0702
    7CHL1   C22  500   4.947   1.274   9.458 -0.0294  0.2723  0.3436
    7CHL1  H22A  501   4.894   1.254   9.363  1.1948  1.2825 -0.5790
    7CHL1  H22B  502   4.879   1.347   9.506  0.8204  2.0362 -1.0383
    7CHL1   C23  503   5.077   1.348   9.439  0.2551 -0.5029 -0.3447
    7CHL1  H23A  504   5.056   1.452   9.404  0.6183  0.2798  1.6483
    7CHL1  H23B  505   5.137   1.368   9.530  1.0001 -0.1649 -0.8976
    7CHL1   C24  506   5.168   1.295   9.321 -0.4186 -0.5091 -0.4886
    7CHL1  H24A  507   5.196   1.189   9.341 -1.6099 -0.6496  0.6155
    7CHL1  H24B  508   5.105   1.305   9.230 -2.3309  1.4101  0.9279
    7CHL1   C25  509   5.299   1.368   9.291  0.4434 -0.4305 -0.3012
    7CHL1   H25  510   5.288   1.475   9.315 -0.7609 -0.2798 -1.4045
    7CHL1   C26  511   5.411   1.311   9.389  0.3708 -0.5801  0.7177
    7CHL1  H26A  512   5.511   1.347   9.356  0.6139 -2.2824 -0.5307
    7CHL1  H26B  513   5.413   1.352   9.492  2.0471  2.6799 -0.4718
    7CHL1  H26C  514   5.413   1.200   9.388 -0.8691 -0.6147  0.4425
    7CHL1   C27  515   5.338   1.351   9.154 -0.4731  0.4340  0.0653
    7CHL1  H27A  516   5.441   1.382   9.128 -0.9371  0.0293 -2.5145
    7CHL1  H27B  517   5.337   1.247   9.116  0.4713 -0.0162  1.2355
    7CHL1  H27C  518   5.280   1.403   9.074  1.7355 -0.5396 -2.3087
    8CHL1    C3  519   0.679   1.878  10.236 -0.7513  0.2017 -0.5846
    8CHL1    H3  520   0.620   1.784  10.245  1.1246 -0.8444  2.7123
    8CHL1    O3  521   0.719   1.899  10.370 -0.3381  0.0617  0.1535
    8CHL1   H3'  522   0.812   1.923  10.379 -0.2740  0.1630 -0.7258
    8CHL1    C4  523   0.797   1.856  10.151 -0.0737 -0.0872 -0.1240
    8CHL1   H4A  524   0.856   1.950  10.153 -0.3247  0.0670  1.6653
    8CHL1   H4B  525   0.880   1.793  10.191  1.9682  1.7808 -1.1992
    8CHL1    C5  526   0.755   1.821  10.006 -1.3574 -0.1354  0.0186
    8CHL1    C6  527   0.787   1.703   9.947 -0.7042  0.0644  0.6158
    8CHL1    H6  528   0.842   1.623   9.999 -0.7002  0.9816  2.0974
    8CHL1    C7  529   0.758   1.680   9.803 -0.5571 -0.3820 -0.0420
    8CHL1   H7A  530   0.837   1.618   9.754  0.0834 -0.4357  1.0271
    8CHL1   H7B  531   0.672   1.615   9.777  0.0501 -1.0050 -0.5629
    8CHL1    C8  532   0.740   1.811   9.713  0.8110  0.0938 -0.1841
    8CHL1    H8  533   0.837   1.865   9.720  0.6763  0.1851  1.5997
    8CHL1   C14  534   0.691   1.782   9.575  0.1965  0.4010 -0.0761
    8CHL1   H14  535   0.603   1.714   9.580 -0.4977  1.1497 -1.4098
    8CHL1   C15  536   0.789   1.699   9.485  0.1649 -0.3380 -0.0904
    8CHL1  H15A  537   0.891   1.741   9.479  0.2802 -0.5203  0.5092
    8CHL1  H15B  538   0.792   1.592   9.517 -2.5567 -0.4862 -0.0745
    8CHL1   C16  539   0.727   1.718   9.348  0.6831  0.1826  0.0412
    8CHL1  H16A  540   0.811   1.750   9.282  1.5150 -0.6030  0.6837
    8CHL1  H16B  541   0.689   1.623   9.306 -0.8762  1.1100 -0.7384
    8CHL1   C17  542   0.616   1.837   9.359  0.2405 -0.4492 -0.8474
    8CHL1   H17  543   0.520   1.788   9.385  0.1069  0.8016  1.1704
    8CHL1   C13  544   0.649   1.905   9.494  0.2435  0.0565 -0.7586
    8CHL1   C18  545   0.771   2.001   9.477  0.9040  0.0805 -0.0963
    8CHL1  H18A  546   0.821   2.017   9.575 -2.1629  0.3943  1.5423
    8CHL1  H18B  547   0.850   1.967   9.406  0.9626  0.7876 -0.3824
    8CHL1  H18C  548   0.735   2.101   9.442  2.0195  0.4515 -0.2398
    8CHL1   C12  549   0.529   1.968   9.576 -0.0047 -0.6441  0.5017
    8CHL1  H12A  550   0.498   2.061   9.524  0.2958 -1.5196 -1.3258
    8CHL1  H12B  551   0.442   1.899   9.580  0.0161 -0.6188  1.7274
    8CHL1   C11  552   0.573   2.008   9.711 -0.3402 -0.2330 -0.2170
    8CHL1  H11A  553   0.655   2.078   9.682 -0.3192 -0.2220 -0.1310
    8CHL1  H11B  554   0.502   2.067   9.773 -1.3531 -2.5486  0.9526
    8CHL1    C9  555   0.631   1.897   9.793 -0.5835  0.1185  0.4574
    8CHL1    H9  556   0.546   1.828   9.809 -1.1482  0.7116  0.0290
    8CHL1   C10  557   0.675   1.941   9.938 -0.2208  0.2353  0.0755
    8CHL1   C19  558   0.774   2.060   9.922 -0.2818  0.2344  0.1610
    8CHL1  H19A  559   0.728   2.146   9.868 -2.7496 -1.6767 -0.9622
    8CHL1  H19B  560   0.798   2.108  10.019  1.0326 -0.8730  0.4182
    8CHL1  H19C  561   0.872   2.020   9.887 -1.2461 -1.4343 -0.7454
    8CHL1    C1  562   0.556   1.973  10.032  0.2542 -0.4043 -0.7424
    8CHL1   H1A  563   0.511   2.070  10.002  0.0977 -0.0703  0.5133
    8CHL1   H1B  564   0.487   1.888  10.013 -0.0452  0.2287 -2.7068
    8CHL1    C2  565   0.594   2.001  10.180  0.0788  0.1364  0.2391
    8CHL1   H2A  566   0.500   2.023  10.236  0.0616  1.0232 -0.1176
    8CHL1   H2B  567   0.657   2.090  10.200  0.0406 -0.2268  2.1733
    8CHL1   C20  568   0.591   1.923   9.229 -0.1645 -0.8425 -0.2143
    8CHL1   H20  569   0.678   1.991   9.213 -2.0937  1.3078 -2.1745
    8CHL1   C21  570   0.456   1.996   9.236 -0.4424  0.6082 -0.0388
    8CHL1  H21A  571   0.447   2.041   9.338  0.7721 -2.0711  1.3562
    8CHL1  H21B  572   0.378   1.921   9.208  0.6447 -1.1335  1.3349
    8CHL1  H21C  573   0.459   2.073   9.156  1.0548 -0.8801 -1.5050
    8CHL1   C22  574   0.603   1.838   9.105 -0.2405 -0.9924  0.5988
    8CHL1  H22A  575   0.709   1.804   9.103  0.2542  0.5090  0.2372
    8CHL1  H22B  576   0.540   1.747   9.098 -1.6398 -0.2337  2.4953
    8CHL1   C23  577   0.578   1.909   8.970 -0.2467 -0.4745  0.6299
    8CHL1  H23A  578   0.475   1.932   8.935  0.1589  2.6091  1.1484
    8CHL1  H23B  579   0.633   2.004   8.954 -0.5674 -0.3859  0.0435
    8CHL1   C24  580   0.635   1.818   8.851 -0.2740  0.6282 -0.4149
    8CHL1  H24A  581   0.739   1.785   8.867 -0.6351  0.2979  1.5431
    8CHL1  H24B  582   0.567   1.731   8.839  2.7567 -1.7162 -2.0168
    8CHL1   C25  583   0.639   1.885   8.718  0.8325  0.2214 -0.3327
    8CHL1   H25  584   0.540   1.935   8.708 -0.1038 -0.6290  3.1166
    8CHL1   C26  585   0.752   1.986   8.716  0.0239  0.3990 -0.2159
    8CHL1  H26A  586   0.851   1.939   8.731  0.0716 -0.2346 -2.1933
    8CHL1  H26B  587   0.749   2.034   8.616  1.5677 -2.0024 -1.5069
    8CHL1  H26C  588   0.728   2.070   8.785 -1.2256  0.0009 -0.1408
    8CHL1   C27  589   0.659   1.787   8.605 -0.2449 -0.0387  0.2312
    8CHL1  H27A  590   0.681   1.850   8.517  1.1599  0.2145  0.7379
    8CHL1  H27B  591   0.747   1.720   8.615 -0.5565 -0.5976 -0.6862
    8CHL1  H27C  592   0.570   1.725   8.579 -0.8621  0.3843  1.2510
    9CHL1    C3  593   1.426   4.634  10.177  0.7031  0.0226  0.3135
    9CHL1    H3  594   1.507   4.561  10.157  1.8284  1.1977  0.4402
    9CHL1    O3  595   1.394   4.641  10.315 -0.7592  0.7241 -0.2017
    9CHL1   H3'  596   1.433   4.719  10.354  0.9984 -0.4328  0.4558
    9CHL1    C4  597   1.471   4.770  10.121  0.1106  0.0763 -0.3447
    9CHL1   H4A  598   1.390   4.842  10.145 -0.0278  0.5674 -2.1101
    9CHL1   H4B  599   1.558   4.800  10.182 -2.9959  2.4843  3.3770
    9CHL1    C5  600   1.501   4.762   9.971 -0.2740  0.0779 -0.1259
    9CHL1    C6  601   1.627   4.790   9.933 -0.0512 -0.2661  0.5089
    9CHL1    H6  602   1.697   4.832  10.007  1.7534 -0.5268 -0.9806
    9CHL1    C7  603   1.663   4.794   9.784 -0.2559  0.0364 -0.4005
    9CHL1   H7A  604   1.715   4.889   9.758 -0.2888  0.2303  0.2309
    9CHL1   H7B  605   1.722   4.702   9.763 -2.0465 -1.1195 -0.5424
    9CHL1    C8  606   1.535   4.777   9.697 -0.4099  0.1054  0.6153
    9CHL1    H8  607   1.480   4.873   9.697 -1.4140 -0.4033 -2.0287
    9CHL1   C14  608   1.578   4.751   9.552  0.0023 -0.1491  0.1493
    9CHL1   H14  609   1.635   4.656   9.548 -0.0450 -0.3088  2.2953
    9CHL1   C15  610   1.674   4.850   9.487  0.4980 -0.6968  0.0809
    9CHL1  H15A  611   1.637   4.950   9.519  0.2562 -0.9096  0.4602
    9CHL1  H15B  612   1.778   4.843   9.525  0.0614 -0.1797  1.4384
    9CHL1   C16  613   1.652   4.833   9.330  0.5869  0.5785 -0.4312
    9CHL1  H16A  614   1.629   4.933   9.286 -0.2902 -0.5074 -2.5960
    9CHL1  H16B  615   1.737   4.781   9.280  0.4252 -0.1017 -0.0026
    9CHL1   C17  616   1.535   4.730   9.326  0.1969  0.2055  1.0280
    9CHL1   H17  617   1.587   4.632   9.325 -1.1762 -0.5655 -0.7393
    9CHL1   C13  618   1.461   4.731   9.457 -0.0297  0.0039 -0.6049
    9CHL1   C18  619   1.373   4.863   9.455  0.2561  0.1672  0.5791
    9CHL1  H18A  620   1.300   4.828   9.379  1.0800  0.4491 -0.3702
    9CHL1  H18B  621   1.327   4.875   9.555 -1.3083  1.2521 -0.2321
    9CHL1  H18C  622   1.439   4.945   9.419 -0.6582  0.4621 -0.4642
    9CHL1   C12  623   1.379   4.604   9.497 -0.1733 -0.3255 -0.9869
    9CHL1  H12A  624   1.299   4.582   9.423 -0.0684  0.5633 -1.3716
    9CHL1  H12B  625   1.455   4.523   9.505  1.1467  0.8001 -1.8485
    9CHL1   C11  626   1.325   4.624   9.644  0.3498  0.4636  0.9834
    9CHL1  H11A  627   1.226   4.673   9.642 -0.5356 -1.2500  0.2243
    9CHL1  H11B  628   1.281   4.527   9.675 -0.1532  1.3308  3.1525
    9CHL1    C9  629   1.434   4.672   9.747  1.1394 -0.1755  0.3385
    9CHL1    H9  630   1.491   4.577   9.754  0.2528 -0.9143 -1.7351
    9CHL1   C10  631   1.383   4.711   9.886  0.0795  0.1454  0.4321
    9CHL1   C19  632   1.277   4.823   9.873  0.1843 -0.3827  0.1115
    9CHL1  H19A  633   1.310   4.906   9.806  0.3758 -2.1148 -2.0494
    9CHL1  H19B  634   1.180   4.785   9.835  1.2730 -1.8866 -1.3351
    9CHL1  H19C  635   1.254   4.870   9.971  0.8854  1.2881 -0.4732
    9CHL1    C1  636   1.325   4.577   9.946  0.3909  0.8917 -0.3543
    9CHL1   H1A  637   1.223   4.549   9.914  0.3274  0.2480  0.3826
    9CHL1   H1B  638   1.382   4.485   9.922 -0.8267  0.0230 -0.0077
    9CHL1    C2  639   1.305   4.581  10.099 -0.0279 -0.0606 -0.5593
    9CHL1   H2A  640   1.272   4.479  10.128  0.0154 -0.5259 -2.0249
    9CHL1   H2B  641   1.222   4.648  10.130 -1.0634 -0.7622 -1.6984
    9CHL1   C20  642   1.459   4.736   9.191 -0.1785 -0.7242  0.3723
    9CHL1   H20  643   1.359   4.695   9.217 -0.8988  1.6557  1.6621
    9CHL1   C21  644   1.525   4.642   9.083  0.3180  0.0537 -0.5144
    9CHL1  H21A  645   1.629   4.680   9.074 -0.2830  1.9882  0.2610
    9CHL1  H21B  646   1.474   4.646   8.985 -0.2007 -1.5375 -0.3467
    9CHL1  H21C  647   1.523   4.539   9.126 -1.9755  1.0188  2.0569
    9CHL1   C22  648   1.430   4.875   9.124 -0.0526  0.4184  0.7742
    9CHL1  H22A  649   1.392   4.954   9.192  0.1643  3.1165 -1.9971
    9CHL1  H22B  650   1.530   4.914   9.094  0.5902 -0.0030  2.2783
    9CHL1   C23  651   1.323   4.860   9.008 -0.6779 -0.0915 -0.4071
    9CHL1  H23A  652   1.368   4.813   8.917 -1.7560  1.1789 -1.6474
    9CHL1  H23B  653   1.244   4.792   9.044 -1.4818  1.8314  1.6838
    9CHL1   C24  654   1.260   4.999   8.976 -0.2779  0.4902 -0.2790
    9CHL1  H24A  655   1.223   5.052   9.067  3.2010  2.9248 -0.0579
    9CHL1  H24B  656   1.340   5.068   8.940 -0.6783  0.8810 -0.4345
    9CHL1   C25  657   1.134   4.993   8.882 -0.2199 -0.6048 -0.7627
    9CHL1   H25  658   1.077   4.901   8.907 -2.3158  1.1549  1.3774
    9CHL1   C26  659   1.048   5.115   8.909 -0.0874 -0.5396  0.3806
    9CHL1  H26A  660   1.036   5.136   9.017  0.4053 -2.1379  0.7675
    9CHL1  H26B  661   1.101   5.205   8.871 -2.4300 -0.4708 -3.2518
    9CHL1  H26C  662   0.951   5.121   8.855 -0.3229  3.1136  0.9269
    9CHL1   C27  663   1.182   4.975   8.731  0.1469 -0.6339 -1.0874
    9CHL1  H27A  664   1.220   4.872   8.720  1.2229 -0.6506  1.8793
    9CHL1  H27B  665   1.092   4.984   8.668  0.9854 -0.3467 -2.2790
    9CHL1  H27C  666   1.252   5.062   8.733 -0.4273 -0.1535 -1.6124
   10CHL1    C3  667   3.335   4.013  10.071  0.2493  0.1134 -0.8241
   10CHL1    H3  668   3.433   4.046  10.030  0.8731  1.5262  1.6254
   10CHL1    O3  669   3.340   4.025  10.213 -0.0407 -0.0812  0.8892
   10CHL1   H3'  670   3.329   4.117  10.237  1.3047  0.2579  0.2602
   10CHL1    C4  671   3.217   4.088  10.007 -0.0150 -0.5231 -1.4822
   10CHL1   H4A  672   3.130   4.070  10.074  0.0090  2.0009 -0.6730
   10CHL1   H4B  673   3.233   4.196  10.028 -2.5054 -0.3247 -0.1664
   10CHL1    C5  674   3.179   4.064   9.862  0.3305 -0.8737  0.8102
   10CHL1    C6  675   3.148   4.170   9.781  0.8598  0.3433  0.3345
   10CHL1    H6  676   3.149   4.268   9.831 -0.1318 -0.0786  1.2339
   10CHL1    C7  677   3.130   4.159   9.637  0.1198  0.4506  0.5832
   10CHL1   H7A  678   3.031   4.208   9.622  0.4615  0.6590 -1.2987
   10CHL1   H7B  679   3.208   4.221   9.587 -1.4231  2.0061 -0.0220
   10CHL1    C8  680   3.114   4.010   9.596  0.0683  0.5616  0.1818
   10CHL1    H8  681   3.008   3.977   9.600  0.4965 -1.1218 -1.0330
   10CHL1   C14  682   3.152   3.994   9.448  0.2762 -0.2311 -0.0383
   10CHL1   H14  683   3.262   3.999   9.434  0.0783 -0.2069 -1.9593
   10CHL1   C15  684   3.096   4.102   9.348  0.0617 -0.1179 -0.0554
   10CHL1  H15A  685   2.986   4.116   9.355 -0.2035 -1.9409 -0.0382
   10CHL1  H15B  686   3.154   4.196   9.359 -0.0596 -0.0432 -0.0580
   10CHL1   C16  687   3.128   4.032   9.213 -0.6734  0.1206  0.3032
   10CHL1  H16A  688   3.035   4.037   9.153 -1.8337 -1.4344  1.8534
   10CHL1  H16B  689   3.210   4.089   9.165  0.6913 -0.2098  2.1269
   10CHL1   C17  690   3.168   3.883   9.239  0.0112 -0.3781 -0.1782
   10CHL1   H17  691   3.279   3.884   9.235  0.1028 -1.4729  1.2591
   10CHL1   C13  692   3.122   3.850   9.384 -0.0479 -0.2934  0.3307
   10CHL1   C18  693   2.974   3.803   9.379  0.4266  0.1298 -0.1490
   10CHL1  H18A  694   2.932   3.803   9.482  0.0526 -0.7254 -0.2892
   10CHL1  H18B  695   2.909   3.858   9.307  1.7466  1.8327 -0.0962
   10CHL1  H18C  696   2.967   3.694   9.357  0.2526 -0.1115  1.0265
   10CHL1   C12  697   3.198   3.743   9.467  0.3044 -0.1935  0.1492
   10CHL1  H12A  698   3.181   3.638   9.435 -0.5197 -0.5671  1.6775
   10CHL1  H12B  699   3.307   3.760   9.466  0.0076  2.2955  0.9313
   10CHL1   C11  700   3.165   3.763   9.622 -0.3801  0.0766 -0.3496
   10CHL1  H11A  701   3.056   3.740   9.630 -0.1298 -0.9415  0.2936
   10CHL1  H11B  702   3.225   3.681   9.665  0.6014  0.5588 -0.7732
   10CHL1    C9  703   3.203   3.903   9.673  0.3903 -0.6749 -0.0443
   10CHL1    H9  704   3.308   3.921   9.640 -0.1644 -0.8081 -1.9693
   10CHL1   C10  705   3.192   3.917   9.828 -0.0858  0.3009  0.2369
   10CHL1   C19  706   3.066   3.846   9.878  0.9300 -0.2754  0.3989
   10CHL1  H19A  707   3.079   3.738   9.859 -1.6037 -0.2895 -1.8400
   10CHL1  H19B  708   3.046   3.861   9.987  2.9926 -0.3481  0.8227
   10CHL1  H19C  709   2.989   3.882   9.806 -1.8968 -2.1856  2.2662
   10CHL1    C1  710   3.315   3.848   9.884 -0.2446  0.3511 -0.3492
   10CHL1   H1A  711   3.296   3.740   9.866 -0.2192  0.4262 -0.8396
   10CHL1   H1B  712   3.410   3.888   9.842 -0.3943  0.0127 -1.0059
   10CHL1    C2  713   3.322   3.865  10.035 -0.4256 -0.2121 -0.5470
   10CHL1   H2A  714   3.414   3.807  10.060 -0.0357 -0.1146 -1.7026
   10CHL1   H2B  715   3.229   3.825  10.079  0.4910  0.8902  2.7266
   10CHL1   C20  716   3.120   3.786   9.132  0.5778  0.0171 -0.6026
   10CHL1   H20  717   3.009   3.788   9.120  0.7211 -2.7346 -3.5623
   10CHL1   C21  718   3.159   3.637   9.151  0.9545  0.1450 -0.3207
   10CHL1  H21A  719   3.113   3.569   9.076  1.2785 -2.0728  1.3924
   10CHL1  H21B  720   3.115   3.600   9.246  1.2775 -0.2004 -0.3051
   10CHL1  H21C  721   3.270   3.634   9.156  0.9288  0.6824  1.0063
   10CHL1   C22  722   3.173   3.837   8.991  0.7826  0.4093  0.5402
   10CHL1  H22A  723   3.141   3.941   8.967 -0.2631 -0.2885 -1.3345
   10CHL1  H22B  724   3.284   3.840   8.993  0.9846 -1.4415 -2.3606
   10CHL1   C23  725   3.123   3.745   8.876 -0.0714 -0.2496  0.5178
   10CHL1  H23A  726   3.177   3.781   8.786 -2.3937  1.2861 -0.3432
   10CHL1  H23B  727   3.152   3.638   8.890  0.5536 -0.8114 -3.6206
   10CHL1   C24  728   2.974   3.750   8.841  0.3206  0.9228  0.0408
   10CHL1  H24A  729   2.930   3.676   8.911  2.0910  2.5014  3.0174
   10CHL1  H24B  730   2.915   3.843   8.855  0.0466  1.0489 -1.7791
   10CHL1   C25  731   2.939   3.696   8.697 -0.6916 -0.4716  0.0528
   10CHL1   H25  732   2.985   3.595   8.689 -0.5220 -0.3037 -1.5654
   10CHL1   C26  733   2.784   3.670   8.681 -0.4808  0.4218 -0.0478
   10CHL1  H26A  734   2.783   3.611   8.587 -1.2604 -0.2237  0.3610
   10CHL1  H26B  735   2.736   3.627   8.771 -0.3331  1.0491  0.3400
   10CHL1  H26C  736   2.729   3.766   8.674 -2.7436 -0.3406  4.2461
   10CHL1   C27  737   3.003   3.785   8.582 -0.2151  0.5623  0.1366
   10CHL1  H27A  738   2.981   3.739   8.483  2.7395 -3.1982  1.0084
   10CHL1  H27B  739   2.959   3.888   8.586 -2.6306 -0.2961 -1.7434
   10CHL1  H27C  740   3.113   3.776   8.588 -0.2434 -0.1607 -0.3088
   11CHL1    C3  741   3.113   5.031  10.264 -0.1000  0.3417  0.8929
   11CHL1    H3  742   3.106   5.140  10.282  0.8971  0.3860  1.0480
   11CHL1    O3  743   3.122   4.962  10.392  0.4648 -0.1359 -0.1580
   11CHL1   H3'  744   3.045   4.990  10.442  0.6739  0.7413 -0.3001
   11CHL1    C4  745   2.992   4.992  10.185  0.2171 -0.3068 -0.2528
   11CHL1   H4A  746   2.984   4.882  10.175 -0.0620 -0.2435 -0.7690
   11CHL1   H4B  747   2.901   5.017  10.244  0.6756 -0.5929  0.5968
   11CHL1    C5  748   2.974   5.022  10.039 -1.1363 -0.7728 -0.2129
   11CHL1    C6  749   2.862   5.074   9.995 -0.1251 -0.3409  0.1263
   11CHL1    H6  750   2.779   5.097  10.064  0.4468  0.1355  0.6654
   11CHL1    C7  751   2.850   5.136   9.850  0.1555  0.4743 -0.5711
   11CHL1   H7A  752   2.751   5.102   9.813 -0.4643 -1.3706  2.5087
   11CHL1   H7B  753   2.853   5.247   9.842  1.0478  0.4870 -0.2365
   11CHL1    C8  754   2.961   5.080   9.758  1.5121  0.2724 -0.0770
   11CHL1    H8  755   2.937   4.976   9.728 -0.8923  1.1878 -1.5787
   11CHL1   C14  756   2.971   5.169   9.635  0.4829  0.3919 -0.5921
   11CHL1   H14  757   2.999   5.274   9.662  1.8814  0.5665 -2.5250
   11CHL1   C15  758   2.838   5.190   9.552  0.1044  0.1708  0.8739
   11CHL1  H15A  759   2.790   5.090   9.544  1.9638 -0.6565 -0.7743
   11CHL1  H15B  760   2.788   5.267   9.615  0.6363  2.7856 -1.6801
   11CHL1   C16  761   2.882   5.248   9.418 -0.2738 -0.2381  0.2021
   11CHL1  H16A  762   2.853   5.181   9.335  0.5564 -1.1180  0.6016
   11CHL1  H16B  763   2.854   5.354   9.397  0.6268 -0.2180 -0.9856
   11CHL1   C17  764   3.037   5.241   9.417  0.1737 -0.4292 -0.6104
   11CHL1   H17  765   3.059   5.344   9.452 -0.1204 -0.7907  0.6872
   11CHL1   C13  766   3.077   5.133   9.532 -0.3920  0.2980  0.9159
   11CHL1   C18  767   3.042   4.990   9.480 -0.0673  0.0374 -0.9140
   11CHL1  H18A  768   3.119   4.961   9.405  1.4752 -0.5486  0.8112
   11CHL1  H18B  769   3.044   4.919   9.566  2.0012  2.4704  1.2327
   11CHL1  H18C  770   2.937   4.989   9.445 -0.2519  2.4422 -0.6059
   11CHL1   C12  771   3.218   5.147   9.596  0.3744  0.0988  0.5349
   11CHL1  H12A  772   3.294   5.111   9.524 -0.8298  0.9305 -1.2147
   11CHL1  H12B  773   3.233   5.255   9.619 -2.7315  0.9814 -1.1159
   11CHL1   C11  774   3.215   5.057   9.724 -0.4849 -0.3806  0.5347
   11CHL1  H11A  775   3.206   4.954   9.683 -1.7002 -0.6180  1.3321
   11CHL1  H11B  776   3.312   5.056   9.777 -0.6780  1.0236  0.9679
   11CHL1    C9  777   3.098   5.088   9.823 -0.1238 -0.0760  0.0697
   11CHL1    H9  778   3.120   5.194   9.849 -1.3833 -0.2572  2.0894
   11CHL1   C10  779   3.102   5.006   9.958 -0.2893 -0.4858  0.6191
   11CHL1   C19  780   3.113   4.857   9.924  0.1600  0.3082 -0.5073
   11CHL1  H19A  781   3.205   4.833   9.866  0.4303 -0.2336  0.1377
   11CHL1  H19B  782   3.107   4.803  10.021  1.3315  1.1838  0.0832
   11CHL1  H19C  783   3.026   4.829   9.861 -0.3448  0.5302  0.0801
   11CHL1    C1  784   3.226   5.062  10.036  0.0338 -0.5632 -0.4510
   11CHL1   H1A  785   3.314   5.036   9.973 -1.4714 -0.3673 -2.7846
   11CHL1   H1B  786   3.198   5.169  10.039 -1.9738 -0.9967 -1.6979
   11CHL1    C2  787   3.238   5.003  10.179 -0.2102  0.9969  0.6822
   11CHL1   H2A  788   3.332   5.041  10.224  1.2127 -1.0558 -0.3501
   11CHL1   H2B  789   3.252   4.893  10.176 -0.4586  0.9473 -2.3826
   11CHL1   C20  790   3.111   5.222   9.280 -0.3073 -0.2054 -0.2821
   11CHL1   H20  791   3.138   5.115   9.265  2.5099  0.2689  0.8788
   11CHL1   C21  792   3.248   5.299   9.276  0.1582 -0.0243 -0.3075
   11CHL1  H21A  793   3.326   5.262   9.346  1.4007 -0.1707 -1.7441
   11CHL1  H21B  794   3.230   5.407   9.293 -0.8478 -0.6304  3.5660
   11CHL1  H21C  795   3.288   5.281   9.174  1.4070 -2.0243  0.4741
   11CHL1   C22  796   3.037   5.272   9.151 -0.2948 -0.3569  0.2175
   11CHL1  H22A  797   2.928   5.251   9.155 -0.1165 -1.0792  2.2489
   11CHL1  H22B  798   3.039   5.383   9.144 -2.7177 -0.3543 -1.7442
   11CHL1   C23  799   3.091   5.217   9.022 -0.3303  0.3774  0.1840
   11CHL1  H23A  800   3.197   5.248   9.007  0.0387 -0.5759  0.7241
   11CHL1  H23B  801   3.077   5.108   9.030  1.1259  0.2661  1.7790
   11CHL1   C24  802   3.030   5.267   8.887 -0.1979  0.2068 -0.1333
   11CHL1  H24A  803   2.921   5.267   8.907 -0.6020 -0.5018 -2.0887
   11CHL1  H24B  804   3.054   5.375   8.888 -2.5208  0.8000 -1.3477
   11CHL1   C25  805   3.067   5.191   8.754  0.0434  0.0453 -0.3962
   11CHL1   H25  806   3.045   5.084   8.771 -2.0808  0.3164 -1.2625
   11CHL1   C26  807   2.987   5.237   8.630 -0.4187  0.1746 -0.2981
   11CHL1  H26A  808   3.041   5.216   8.535  0.7808  1.6600  0.0197
   11CHL1  H26B  809   2.887   5.189   8.624 -0.6639  0.7250 -0.7541
   11CHL1  H26C  810   2.975   5.348   8.625  1.0310  0.5479  2.4904
   11CHL1   C27  811   3.212   5.220   8.712  0.1470  0.3793  0.5069
   11CHL1  H27A  812   3.231   5.164   8.618 -0.2668  1.8961 -0.5212
   11CHL1  H27B  813   3.226   5.329   8.695 -0.2505  0.1151 -1.7795
   11CHL1  H27C  814   3.290   5.189   8.786  2.3176 -0.3244 -1.9450
   12CHL1    C3  815   0.518   1.290  10.252  0.2310  0.4860  0.0770
   12CHL1    H3  816   0.409   1.276  10.268  0.0856  3.7077  3.1572
   12CHL1    O3  817   0.576   1.273  10.381 -0.2860  0.1150  0.3854
   12CHL1   H3'  818   0.667   1.303  10.379 -0.2361 -0.0365  0.4406
   12CHL1    C4  819   0.569   1.172  10.158 -0.3183 -0.4609  0.1949
   12CHL1   H4A  820   0.679   1.188  10.154 -0.3277 -0.0311  1.2478
   12CHL1   H4B  821   0.539   1.078  10.210  0.6903 -1.4673 -0.9957
   12CHL1    C5  822   0.511   1.188  10.018  0.3800 -0.8650  0.2654
   12CHL1    C6  823   0.438   1.091   9.965 -0.1292 -0.2682 -0.8480
   12CHL1    H6  824   0.424   0.998  10.023  1.9880 -0.1077  0.0179
   12CHL1    C7  825   0.369   1.088   9.830 -0.2458 -0.3445 -0.4093
   12CHL1   H7A  826   0.402   0.996   9.778  1.2065 -0.3070  0.4079
   12CHL1   H7B  827   0.259   1.074   9.841 -0.2092  0.1394  0.7120
   12CHL1    C8  828   0.412   1.207   9.743  0.2905  0.0921  0.7271
   12CHL1    H8  829   0.517   1.180   9.718  0.2929 -2.9240  3.2840
   12CHL1   C14  830   0.315   1.227   9.627  0.1471  0.4521  0.5206
   12CHL1   H14  831   0.217   1.259   9.667 -1.3204 -0.5271 -2.0812
   12CHL1   C15  832   0.288   1.108   9.533  0.3886  0.3219 -0.3393
   12CHL1  H15A  833   0.391   1.068   9.518 -0.0543 -1.0618  0.1085
   12CHL1  H15B  834   0.233   1.016   9.564  0.6964  0.3656  0.3469
   12CHL1   C16  835   0.221   1.165   9.411  0.2470 -0.1947 -0.1251
   12CHL1  H16A  836   0.265   1.114   9.322 -0.5774 -0.3057 -0.4770
   12CHL1  H16B  837   0.114   1.135   9.405  1.3529 -5.0170 -0.1613
   12CHL1   C17  838   0.243   1.321   9.415 -0.1398 -1.1440 -0.9601
   12CHL1   H17  839   0.150   1.363   9.458  1.6164 -0.4205  2.5501
   12CHL1   C13  840   0.345   1.342   9.535 -0.7828  0.6637  0.0095
   12CHL1   C18  841   0.493   1.324   9.480  0.0946  0.5242  0.2532
   12CHL1  H18A  842   0.562   1.321   9.566  1.3634 -0.7910 -0.7609
   12CHL1  H18B  843   0.505   1.236   9.413 -0.9461 -0.7940  1.7133
   12CHL1  H18C  844   0.531   1.413   9.427  0.2588  0.1779 -0.2161
   12CHL1   C12  845   0.344   1.468   9.620  0.5535  0.2712  0.0750
   12CHL1  H12A  846   0.366   1.566   9.571 -1.9347  1.4179  1.1075
   12CHL1  H12B  847   0.234   1.482   9.630  0.5225 -0.3464  0.6065
   12CHL1   C11  848   0.433   1.466   9.747 -0.1141  0.5362 -0.4997
   12CHL1  H11A  849   0.539   1.476   9.716  0.0109  5.4882  0.7207
   12CHL1  H11B  850   0.414   1.558   9.807  1.4112  0.4127  0.2142
   12CHL1    C9  851   0.419   1.337   9.829 -0.5642 -0.8696 -0.6723
   12CHL1    H9  852   0.316   1.351   9.869  0.1562  1.3767  0.5837
   12CHL1   C10  853   0.516   1.327   9.951  0.3133  0.0952  0.2970
   12CHL1   C19  854   0.659   1.328   9.899 -0.9151  0.0276 -0.3251
   12CHL1  H19A  855   0.741   1.310   9.972  0.6206  2.2404 -1.3647
   12CHL1  H19B  856   0.677   1.259   9.814 -1.5972  0.7729 -1.0931
   12CHL1  H19C  857   0.683   1.426   9.852 -0.2963  1.5860  2.9476
   12CHL1    C1  858   0.492   1.446  10.051 -0.0914  0.3973 -0.5063
   12CHL1   H1A  859   0.526   1.543  10.010  0.7167 -0.2531 -1.4316
   12CHL1   H1B  860   0.383   1.466  10.063  0.0367 -0.0505  1.9499
   12CHL1    C2  861   0.558   1.422  10.189  0.3344  0.1093  0.0159
   12CHL1   H2A  862   0.510   1.493  10.259  0.7660 -0.3079  0.7435
   12CHL1   H2B  863   0.666   1.448  10.187 -0.2415  2.7008 -0.4825
   12CHL1   C20  864   0.273   1.379   9.281  0.4621  0.0478  0.5807
   12CHL1   H20  865   0.373   1.336   9.256  0.3604 -0.1023  0.4276
   12CHL1   C21  866   0.264   1.538   9.288  0.1575 -0.3470 -0.0673
   12CHL1  H21A  867   0.281   1.580   9.187 -3.6292 -1.1852 -1.2117
   12CHL1  H21B  868   0.348   1.581   9.346 -0.2195  1.1012 -0.5713
   12CHL1  H21C  869   0.167   1.574   9.328  0.1923  0.1287 -0.4092
   12CHL1   C22  870   0.175   1.336   9.171  0.7965 -0.2501 -0.2565
   12CHL1  H22A  871   0.151   1.228   9.174  2.0562 -0.5322  0.5437
   12CHL1  H22B  872   0.080   1.393   9.180 -0.1932 -1.3784 -2.5229
   12CHL1   C23  873   0.225   1.354   9.030 -0.0307 -0.5646  0.4068
   12CHL1  H23A  874   0.289   1.445   9.023 -1.2499  0.1862 -1.6273
   12CHL1  H23B  875   0.274   1.260   8.998  0.8758 -0.2170  0.7271
   12CHL1   C24  876   0.103   1.374   8.932  0.2409  0.1905  0.2452
   12CHL1  H24A  877   0.037   1.284   8.934  1.0609 -0.5578 -2.4886
   12CHL1  H24B  878   0.042   1.456   8.977  1.5863  2.2068 -1.4562
   12CHL1   C25  879   0.119   1.411   8.788  0.7477 -0.7475 -0.4284
   12CHL1   H25  880   0.184   1.332   8.745 -0.4906 -2.4220  0.6798
   12CHL1   C26  881  -0.017   1.408   8.723 -0.5876 -0.0650  0.1413
   12CHL1  H26A  882  -0.002   1.442   8.618  0.0365  0.1620  0.3012
   12CHL1  H26B  883  -0.066   1.309   8.714 -0.1132 -0.1580 -2.0609
   12CHL1  H26C  884  -0.091   1.477   8.769 -0.6834  3.6823 -4.7958
   12CHL1   C27  885   0.181   1.546   8.768  0.0069  0.7087 -0.4989
   12CHL1  H27A  886   0.183   1.580   8.662 -1.7557  2.6303  0.0068
   12CHL1  H27B  887   0.119   1.626   8.815 -1.2452 -1.5269  1.9208
   12CHL1  H27C  888   0.278   1.554   8.822  0.3771  1.0435 -1.1983
   13CHL1    C3  889   6.646   1.634  10.288 -0.0681  0.2875 -0.2965
   13CHL1    H3  890   6.736   1.592  10.238  0.0858 -0.2470  0.4112
   13CHL1    O3  891   6.651   1.575  10.420  0.0177  0.1773  0.5805
   13CHL1   H3'  892   6.582   1.626  10.464 -0.9787 -0.4492 -0.1913
   13CHL1    C4  893   6.628   1.783  10.292 -0.3879 -0.3512 -0.2667
   13CHL1   H4A  894   6.542   1.796  10.361 -0.8896 -1.5361 -0.6484
   13CHL1   H4B  895   6.719   1.823  10.341 -0.7923 -0.3268  0.4782
   13CHL1    C5  896   6.612   1.846  10.154  0.8454 -0.1292  0.1431
   13CHL1    C6  897   6.686   1.953  10.121 -0.9532 -0.4056  0.0110
   13CHL1    H6  898   6.761   1.988  10.193 -1.7693  1.1325  0.1551
   13CHL1    C7  899   6.684   2.017   9.981 -0.1637  0.4557  0.1333
   13CHL1   H7A  900   6.700   2.127   9.986  2.0834  0.1397  1.6490
   13CHL1   H7B  901   6.769   1.967   9.931  0.8122  0.0234  2.0949
   13CHL1    C8  902   6.556   1.968   9.900 -0.5769 -0.7317 -0.5451
   13CHL1    H8  903   6.473   2.030   9.940  1.2774  1.0500  0.6976
   13CHL1   C14  904   6.575   2.001   9.752 -0.3692 -0.2786 -0.0312
   13CHL1   H14  905   6.667   1.944   9.725  0.9783  1.4359  0.6904
   13CHL1   C15  906   6.614   2.147   9.718 -0.1609  0.0891  0.2932
   13CHL1  H15A  907   6.542   2.209   9.775  0.9215 -0.5070  2.4192
   13CHL1  H15B  908   6.723   2.161   9.735  0.1274  0.3677 -1.5634
   13CHL1   C16  909   6.583   2.165   9.567  0.2736  0.1012 -0.5542
   13CHL1  H16A  910   6.522   2.256   9.547  0.8098  0.6928  0.4338
   13CHL1  H16B  911   6.683   2.169   9.520  0.2385  0.7886 -0.5804
   13CHL1   C17  912   6.506   2.033   9.528  0.4966 -0.3116 -0.7826
   13CHL1   H17  913   6.579   1.960   9.488  0.4394 -0.8313  0.0349
   13CHL1   C13  914   6.458   1.959   9.662 -0.2793  0.0010 -0.4883
   13CHL1   C18  915   6.332   2.018   9.722  0.0838  0.3976  0.1909
   13CHL1  H18A  916   6.350   2.126   9.742  0.7010  0.5227 -0.9468
   13CHL1  H18B  917   6.246   2.012   9.652 -0.5159  0.4133  0.9091
   13CHL1  H18C  918   6.305   1.978   9.822 -1.2958 -0.7262 -0.5937
   13CHL1   C12  919   6.447   1.808   9.668  0.3724  0.5271 -0.2152
   13CHL1  H12A  920   6.358   1.769   9.613 -0.1390  0.2718  0.7654
   13CHL1  H12B  921   6.535   1.759   9.622 -0.3458  1.5324 -2.8574
   13CHL1   C11  922   6.432   1.762   9.814  0.0377  0.1006 -0.2913
   13CHL1  H11A  923   6.324   1.781   9.832  0.2592  1.7389 -0.5695
   13CHL1  H11B  924   6.451   1.653   9.802  0.2933  0.3332 -2.5746
   13CHL1    C9  925   6.537   1.817   9.917  0.7184 -0.3620 -0.3189
   13CHL1    H9  926   6.635   1.774   9.890  0.7773 -1.5405  1.5947
   13CHL1   C10  927   6.513   1.771  10.063 -0.7990 -0.6108 -0.1137
   13CHL1   C19  928   6.365   1.808  10.102  0.4805 -0.1633 -0.3747
   13CHL1  H19A  929   6.325   1.899  10.052 -0.0687  0.9248  1.9155
   13CHL1  H19B  930   6.297   1.734  10.055 -0.9330  1.4633 -1.0183
   13CHL1  H19C  931   6.346   1.832  10.209  0.2843 -0.8868 -0.2435
   13CHL1    C1  932   6.525   1.611  10.072 -0.8276 -1.1076  0.1124
   13CHL1   H1A  933   6.439   1.566  10.018 -0.9041  0.0654 -0.7911
   13CHL1   H1B  934   6.620   1.596  10.018 -0.2608  1.2717  0.3244
   13CHL1    C2  935   6.526   1.559  10.217  1.1819 -0.4722  0.0718
   13CHL1   H2A  936   6.556   1.452  10.220  1.1461 -0.4868 -0.0580
   13CHL1   H2B  937   6.424   1.581  10.256  1.4252 -0.9056  0.9868
   13CHL1   C20  938   6.396   2.050   9.414  0.6333 -0.0895 -0.3920
   13CHL1   H20  939   6.315   2.113   9.455  1.5080  0.4124  0.6271
   13CHL1   C21  940   6.337   1.913   9.380 -0.5528  0.6666 -0.6075
   13CHL1  H21A  941   6.259   1.884   9.453 -1.1332  1.1326 -1.0256
   13CHL1  H21B  942   6.417   1.837   9.369 -1.7247 -0.5315 -1.1686
   13CHL1  H21C  943   6.292   1.903   9.279  1.1645 -1.9263 -1.2085
   13CHL1   C22  944   6.451   2.127   9.289  0.3092  0.0020  0.1024
   13CHL1  H22A  945   6.507   2.219   9.318  1.5440 -0.3826 -0.9915
   13CHL1  H22B  946   6.516   2.048   9.247 -2.8655 -2.6862 -0.1609
   13CHL1   C23  947   6.339   2.167   9.192 -0.3350 -0.6464 -0.0673
   13CHL1  H23A  948   6.296   2.077   9.144  0.3136 -1.0356  0.0737
   13CHL1  H23B  949   6.259   2.219   9.249  0.5303 -0.3672  0.9262
   13CHL1   C24  950   6.401   2.249   9.077 -0.1078 -0.3384  0.2192
   13CHL1  H24A  951   6.450   2.336   9.127  0.2479  1.4307 -2.9855
   13CHL1  H24B  952   6.480   2.181   9.039  0.3194  0.2193  0.1042
   13CHL1   C25  953   6.305   2.289   8.965  0.7162 -0.0902  0.1609
   13CHL1   H25  954   6.209   2.323   9.007  0.0354  0.2604 -1.6003
   13CHL1   C26  955   6.371   2.389   8.874  0.2614 -0.2553 -0.9420
   13CHL1  H26A  956   6.467   2.349   8.834  0.0587 -0.1500 -1.5374
   13CHL1  H26B  957   6.307   2.417   8.788 -0.8940 -0.1128 -0.0493
   13CHL1  H26C  958   6.394   2.485   8.926 -2.0028  1.8659 -3.5314
   13CHL1   C27  959   6.259   2.166   8.888 -0.5120  0.7107  0.3186
   13CHL1  H27A  960   6.182   2.105   8.939 -0.5517 -0.3436 -0.9415
   13CHL1  H27B  961   6.216   2.181   8.787  1.9275  1.0585 -0.7475
   13CHL1  H27C  962   6.345   2.100   8.862 -0.4984  1.2179 -1.0042
   14CHL1    C3  963   5.074   0.335  10.136  0.2533  0.0999 -0.3017
   14CHL1    H3  964   5.090   0.439  10.170  0.4451 -0.9101  2.9596
   14CHL1    O3  965   5.068   0.249  10.244  0.3728  0.4833 -0.4074
   14CHL1   H3'  966   4.989   0.272  10.295 -1.6127  0.8744 -3.4284
   14CHL1    C4  967   4.939   0.313  10.066  0.4285  0.6847  0.2978
   14CHL1   H4A  968   4.934   0.203  10.052 -0.0876  0.7135  0.2600
   14CHL1   H4B  969   4.856   0.354  10.127  0.8806  1.1456  0.6108
   14CHL1    C5  970   4.944   0.378   9.926  0.0110 -0.3656 -0.3575
   14CHL1    C6  971   4.856   0.473   9.888 -0.2591  0.7102 -0.1204
   14CHL1    H6  972   4.779   0.505   9.960  0.2927  2.3944 -0.2244
   14CHL1    C7  973   4.846   0.545   9.756  0.3083  0.5560  0.3298
   14CHL1   H7A  974   4.740   0.539   9.724  0.6787 -0.1047 -0.8346
   14CHL1   H7B  975   4.876   0.651   9.770  1.1591  0.5417 -1.1807
   14CHL1    C8  976   4.947   0.493   9.648  0.0104 -0.0702  0.5427
   14CHL1    H8  977   4.901   0.406   9.595 -0.8340  0.0607  1.0322
   14CHL1   C14  978   4.976   0.601   9.547 -0.3216  0.4707 -0.4418
   14CHL1   H14  979   5.020   0.686   9.603 -1.5033  0.8402 -0.0349
   14CHL1   C15  980   4.860   0.654   9.477  0.5189 -0.7039  0.0616
   14CHL1  H15A  981   4.784   0.575   9.457 -1.2475  0.7978  0.5671
   14CHL1  H15B  982   4.804   0.733   9.532  0.1670 -0.2842 -0.8736
   14CHL1   C16  983   4.920   0.728   9.356 -0.1813  0.3258 -0.3526
   14CHL1  H16A  984   4.863   0.688   9.269 -1.2946  0.6792  0.1957
   14CHL1  H16B  985   4.905   0.838   9.348  0.5469  0.5771  1.3912
   14CHL1   C17  986   5.073   0.696   9.350  0.5435  0.0510 -0.5908
   14CHL1   H17  987   5.117   0.777   9.411 -0.5532 -0.1946  0.5658
   14CHL1   C13  988   5.079   0.569   9.433 -0.3243  0.1893 -0.3614
   14CHL1   C18  989   5.026   0.455   9.340  0.3004 -0.3130  0.2703
   14CHL1  H18A  990   5.024   0.365   9.403 -0.8485  0.5205  1.4709
   14CHL1  H18B  991   4.924   0.477   9.303 -0.7176 -3.2015  1.1803
   14CHL1  H18C  992   5.085   0.430   9.248 -1.6682  1.5990 -1.6451
   14CHL1   C12  993   5.214   0.534   9.497  0.0126 -1.2349 -0.9683
   14CHL1  H12A  994   5.290   0.489   9.429  0.0194 -0.2838 -1.6165
   14CHL1  H12B  995   5.254   0.625   9.545 -3.3396 -0.5363  0.7963
   14CHL1   C11  996   5.189   0.418   9.605 -0.0092 -0.1194  0.2790
   14CHL1  H11A  997   5.159   0.318   9.567 -0.1936  0.2666 -0.6066
   14CHL1  H11B  998   5.281   0.398   9.664 -0.9026  3.1322  3.0798
   14CHL1    C9  999   5.078   0.447   9.714 -1.3952  0.7237  0.6110
   14CHL1    H9 1000   5.118   0.539   9.763 -0.1202  0.3751  0.2561
   14CHL1   C10 1001   5.059   0.343   9.827 -0.1156  0.0768 -0.1134
   14CHL1   C19 1002   5.028   0.207   9.762 -0.0812  0.5953 -0.2286
   14CHL1  H19A 1003   4.985   0.137   9.837  1.0946  0.3527  0.2474
   14CHL1  H19B 1004   4.964   0.214   9.672 -0.4000 -2.1671 -0.3000
   14CHL1  H19C 1005   5.120   0.162   9.718 -0.4287  0.9687 -1.3575
   14CHL1    C1 1006   5.197   0.340   9.907  0.7118 -0.1230  0.7890
   14CHL1   H1A 1007   5.263   0.276   9.845  2.0660 -0.7381  2.7664
   14CHL1   H1B 1008   5.240   0.443   9.911 -0.3298  0.4423 -1.1065
   14CHL1    C2 1009   5.194   0.296  10.050 -0.3796  0.3722 -0.1930
   14CHL1   H2A 1010   5.286   0.335  10.098 -1.5548  2.0567  0.7704
   14CHL1   H2B 1011   5.209   0.186  10.046  0.2714  0.3541  1.7145
   14CHL1   C20 1012   5.116   0.686   9.198 -0.2339  0.3853  0.1862
   14CHL1   H20 1013   5.049   0.614   9.147 -0.8205  2.3407 -1.9166
   14CHL1   C21 1014   5.265   0.648   9.185  0.5232  0.6568 -0.2105
   14CHL1  H21A 1015   5.284   0.637   9.076  2.6577  1.4019  0.0435
   14CHL1  H21B 1016   5.304   0.552   9.225  0.7653  0.4782 -0.8718
   14CHL1  H21C 1017   5.329   0.734   9.212 -0.8785  1.2711  1.3423
   14CHL1   C22 1018   5.087   0.826   9.131  0.6699 -0.2913  0.6491
   14CHL1  H22A 1019   4.979   0.850   9.144  0.3224 -1.3509 -0.1412
   14CHL1  H22B 1020   5.148   0.907   9.176 -1.0601  0.0113  2.5515
   14CHL1   C23 1021   5.111   0.827   8.976 -0.6523  0.9154  0.0881
   14CHL1  H23A 1022   5.216   0.841   8.942 -1.2691 -0.3796 -2.5791
   14CHL1  H23B 1023   5.082   0.730   8.930  1.1488 -0.1752  1.1130
   14CHL1   C24 1024   5.050   0.952   8.909  0.7777 -0.1713 -0.0325
   14CHL1  H24A 1025   5.036   0.954   8.799 -0.2837 -1.0261  0.0699
   14CHL1  H24B 1026   4.945   0.955   8.945  0.2042 -1.5854 -1.4191
   14CHL1   C25 1027   5.111   1.090   8.950 -0.3365 -0.3489 -0.2277
   14CHL1   H25 1028   5.122   1.087   9.061 -0.2966  0.8049 -0.1854
   14CHL1   C26 1029   5.243   1.104   8.878 -0.3704  0.0456  0.0580
   14CHL1  H26A 1030   5.321   1.030   8.904  0.5399  1.0884  0.3865
   14CHL1  H26B 1031   5.232   1.104   8.768  1.1885  1.0511 -0.1334
   14CHL1  H26C 1032   5.283   1.206   8.897 -1.6220  0.6629 -0.5019
   14CHL1   C27 1033   5.031   1.220   8.902 -0.2739  0.6945  0.4577
   14CHL1  H27A 1034   4.939   1.241   8.960  0.3624  3.4895  0.5610
   14CHL1  H27B 1035   5.092   1.312   8.910  0.7158  0.2629 -1.5150
   14CHL1  H27C 1036   5.019   1.204   8.793  2.0541  0.5216  0.1743
   15CHL1    C3 1037   6.781   1.249  10.211  0.3728 -0.0691  0.1831
   15CHL1    H3 1038   6.737   1.339  10.260  2.2190  1.5634 -0.9958
   15CHL1    O3 1039   6.852   1.173  10.305 -0.0199 -0.7714 -0.4014
   15CHL1   H3' 1040   6.913   1.113  10.262  1.3747  0.3452 -0.0573
   15CHL1    C4 1041   6.662   1.167  10.156 -0.0823 -0.1437  0.1924
   15CHL1   H4A 1042   6.697   1.065  10.129 -0.5510  0.1211 -1.5580
   15CHL1   H4B 1043   6.587   1.144  10.235 -0.8935  0.7490 -0.3057
   15CHL1    C5 1044   6.602   1.227  10.028 -0.2275  0.5538 -0.0497
   15CHL1    C6 1045   6.472   1.257  10.021 -0.0726 -0.6649  0.0588
   15CHL1    H6 1046   6.408   1.254  10.111  1.0836  0.9114  0.9890
   15CHL1    C7 1047   6.395   1.302   9.895 -0.3420  0.6482 -0.2222
   15CHL1   H7A 1048   6.310   1.231   9.885 -0.5502  0.6436  1.2717
   15CHL1   H7B 1049   6.356   1.405   9.902 -0.6700  0.5127 -0.0339
   15CHL1    C8 1050   6.492   1.289   9.767  0.1324 -0.8197  0.0522
   15CHL1    H8 1051   6.497   1.180   9.749 -0.9516 -0.7014 -1.0983
   15CHL1   C14 1052   6.431   1.362   9.644 -0.1226 -0.6804 -0.6016
   15CHL1   H14 1053   6.421   1.463   9.689  1.7488 -1.8912  2.9475
   15CHL1   C15 1054   6.292   1.310   9.603 -0.4027  0.0125  0.4821
   15CHL1  H15A 1055   6.287   1.202   9.580  1.5131 -0.1939  0.8054
   15CHL1  H15B 1056   6.216   1.343   9.676 -0.0461 -0.3648  1.0321
   15CHL1   C16 1057   6.283   1.391   9.473 -0.2317 -0.7284  0.1030
   15CHL1  H16A 1058   6.232   1.331   9.395 -0.2563 -1.3323  0.5750
   15CHL1  H16B 1059   6.212   1.474   9.492 -0.2969 -1.1146  1.6730
   15CHL1   C17 1060   6.425   1.439   9.429  0.3234  0.5085  0.4896
   15CHL1   H17 1061   6.434   1.548   9.446  0.5813  0.6054 -0.1997
   15CHL1   C13 1062   6.517   1.367   9.514 -0.6687 -0.3990 -0.3783
   15CHL1   C18 1063   6.547   1.234   9.451  0.0486 -0.6836 -0.5422
   15CHL1  H18A 1064   6.589   1.167   9.529 -0.4217 -0.4164 -0.0552
   15CHL1  H18B 1065   6.462   1.181   9.405 -1.0061  2.0037 -1.9154
   15CHL1  H18C 1066   6.618   1.240   9.366  0.0260 -0.6462 -0.5580
   15CHL1   C12 1067   6.646   1.445   9.562 -0.2723 -0.6646  0.1657
   15CHL1  H12A 1068   6.719   1.465   9.480  0.8012 -2.1143  0.7202
   15CHL1  H12B 1069   6.612   1.538   9.614 -1.0775 -0.8399 -0.0375
   15CHL1   C11 1070   6.725   1.358   9.665  0.2530 -0.9051 -0.2998
   15CHL1  H11A 1071   6.766   1.268   9.613  1.6528 -0.3799 -0.1577
   15CHL1  H11B 1072   6.817   1.411   9.698 -2.3857  3.4385  0.8096
   15CHL1    C9 1073   6.638   1.332   9.798 -0.2236  0.3724 -0.1587
   15CHL1    H9 1074   6.632   1.439   9.829  0.6642 -0.0197  1.4495
   15CHL1   C10 1075   6.703   1.250   9.915 -0.0924  0.0224 -0.1391
   15CHL1   C19 1076   6.758   1.121   9.847  0.1587  0.0531 -0.1760
   15CHL1  H19A 1077   6.668   1.075   9.802 -0.2248  0.3647  0.2704
   15CHL1  H19B 1078   6.829   1.147   9.765 -1.1497  2.0193 -0.7625
   15CHL1  H19C 1079   6.808   1.068   9.931 -2.4987 -1.6737  0.4060
   15CHL1    C1 1080   6.814   1.339   9.970  0.3545 -0.4617 -0.7987
   15CHL1   H1A 1081   6.890   1.350   9.890 -1.4567 -0.9173 -2.6708
   15CHL1   H1B 1082   6.783   1.441   9.999  0.0622 -1.2142  1.7801
   15CHL1    C2 1083   6.879   1.284  10.098 -0.2459  0.3518 -0.0815
   15CHL1   H2A 1084   6.964   1.350  10.127  0.1538  1.2823 -3.0157
   15CHL1   H2B 1085   6.923   1.186  10.068  0.6195  0.8226 -0.3627
   15CHL1   C20 1086   6.448   1.436   9.273  0.4064 -0.8865 -0.4716
   15CHL1   H20 1087   6.438   1.337   9.223  0.7809 -0.0495 -2.3065
   15CHL1   C21 1088   6.593   1.468   9.222 -0.5578  0.1287  0.2384
   15CHL1  H21A 1089   6.620   1.573   9.245  4.0849 -0.9673  0.8065
   15CHL1  H21B 1090   6.608   1.456   9.112  2.0724 -0.5024  0.5836
   15CHL1  H21C 1091   6.654   1.396   9.279 -0.7664  1.8916  2.8444
   15CHL1   C22 1092   6.343   1.524   9.201  0.1122  0.6437  0.7374
   15CHL1  H22A 1093   6.248   1.478   9.236  0.6581 -0.6770  0.5482
   15CHL1  H22B 1094   6.358   1.630   9.231  0.3790  1.2946 -1.4921
   15CHL1   C23 1095   6.361   1.503   9.047 -0.0677 -0.2944 -0.7256
   15CHL1  H23A 1096   6.453   1.556   9.013 -0.3280 -1.3717 -3.2986
   15CHL1  H23B 1097   6.377   1.396   9.022 -1.6513  0.0469 -3.4878
   15CHL1   C24 1098   6.238   1.545   8.962  0.6997 -0.2434  0.4151
   15CHL1  H24A 1099   6.150   1.479   8.977  0.1620  0.5163  0.6400
   15CHL1  H24B 1100   6.206   1.650   8.980 -2.8869 -0.9199 -1.0929
   15CHL1   C25 1101   6.264   1.533   8.805 -0.0254 -0.3106  0.5261
   15CHL1   H25 1102   6.324   1.441   8.790  0.3579  0.1060 -0.6025
   15CHL1   C26 1103   6.140   1.504   8.726  0.2831 -0.1517  0.5465
   15CHL1  H26A 1104   6.059   1.444   8.772  2.2922 -3.1101  0.4798
   15CHL1  H26B 1105   6.110   1.601   8.681  0.2425 -0.0340  0.8267
   15CHL1  H26C 1106   6.175   1.448   8.637 -0.2471 -0.0231  0.2552
   15CHL1   C27 1107   6.360   1.639   8.748 -0.0245 -0.2361 -0.0596
   15CHL1  H27A 1108   6.419   1.606   8.660  1.4965  2.0947  0.0053
   15CHL1  H27B 1109   6.303   1.731   8.725 -1.2420 -0.9755 -0.1156
   15CHL1  H27C 1110   6.442   1.652   8.822  1.7552 -2.7796 -1.4160
   16CHL1    C3 1111   4.654   6.611  10.395 -0.1759 -0.2373 -0.2169
   16CHL1    H3 1112   4.546   6.611  10.370 -0.1087  1.8788 -0.6388
   16CHL1    O3 1113   4.695   6.590  10.528 -0.1092  0.0284  0.4827
   16CHL1   H3' 1114   4.787   6.566  10.523  0.1929  1.1105 -4.5355
   16CHL1    C4 1115   4.711   6.486  10.324 -0.8166 -0.2550  0.3896
   16CHL1   H4A 1116   4.818   6.467  10.344 -0.0534 -0.6172 -3.2651
   16CHL1   H4B 1117   4.666   6.397  10.372 -1.4234 -0.2797 -0.2142
   16CHL1    C5 1118   4.691   6.497  10.170 -0.2344 -0.1909  0.0293
   16CHL1    C6 1119   4.623   6.408  10.105 -0.4629  0.2540  0.2508
   16CHL1    H6 1120   4.583   6.318  10.153  0.8822  0.0304  1.0050
   16CHL1    C7 1121   4.613   6.415   9.955 -0.3808 -0.7452  0.1692
   16CHL1   H7A 1122   4.648   6.317   9.916  2.4926  0.5062 -0.6504
   16CHL1   H7B 1123   4.509   6.432   9.920 -0.5498  0.9447  1.3640
   16CHL1    C8 1124   4.707   6.523   9.883 -0.9566  0.1064 -0.8487
   16CHL1    H8 1125   4.804   6.469   9.889 -2.0264 -1.7402  1.0104
   16CHL1   C14 1126   4.678   6.540   9.734  0.4091 -0.1290  0.3430
   16CHL1   H14 1127   4.570   6.570   9.734  0.2136 -0.7964  1.1717
   16CHL1   C15 1128   4.685   6.411   9.644 -0.7521 -0.2460  0.1081
   16CHL1  H15A 1129   4.763   6.340   9.678 -0.7772 -0.3509 -0.0507
   16CHL1  H15B 1130   4.593   6.349   9.653 -1.3632  0.4005 -1.3170
   16CHL1   C16 1131   4.706   6.467   9.504 -0.4270  0.1302  0.2399
   16CHL1  H16A 1132   4.795   6.420   9.457 -0.8494 -0.9963  0.5446
   16CHL1  H16B 1133   4.613   6.448   9.446 -0.5730  0.4969  0.3525
   16CHL1   C17 1134   4.722   6.625   9.513  0.4545 -0.1139 -0.0011
   16CHL1   H17 1135   4.620   6.668   9.511  0.0307 -1.0581  0.5461
   16CHL1   C13 1136   4.762   6.648   9.659 -0.0075 -0.0456 -0.5673
   16CHL1   C18 1137   4.911   6.620   9.672  0.1192  0.6952 -0.8513
   16CHL1  H18A 1138   4.946   6.605   9.776  2.9715 -1.2588 -1.9697
   16CHL1  H18B 1139   4.952   6.535   9.613 -0.7334  0.1526 -0.6665
   16CHL1  H18C 1140   4.967   6.709   9.634 -0.0931  0.6286 -1.3284
   16CHL1   C12 1141   4.717   6.778   9.733 -0.3500  0.9131 -0.3499
   16CHL1  H12A 1142   4.769   6.858   9.677 -1.8815  1.3805 -1.1453
   16CHL1  H12B 1143   4.609   6.788   9.708  0.2317  2.1729 -2.5822
   16CHL1   C11 1144   4.741   6.779   9.891  0.3050 -0.4796 -0.1477
   16CHL1  H11A 1145   4.851   6.792   9.900 -0.2038  5.2489  1.5523
   16CHL1  H11B 1146   4.689   6.863   9.942 -0.0270 -1.3162  0.9341
   16CHL1    C9 1147   4.690   6.654   9.963  0.4259 -0.0747  0.2144
   16CHL1    H9 1148   4.586   6.689   9.978  0.3594  0.1875 -0.7604
   16CHL1   C10 1149   4.737   6.631  10.105  0.3486  0.1625 -0.8552
   16CHL1   C19 1150   4.894   6.625  10.115  0.7969 -0.7369 -0.3450
   16CHL1  H19A 1151   4.936   6.545  10.050  1.3768 -1.3948  0.8186
   16CHL1  H19B 1152   4.917   6.728  10.081 -0.0553  0.0328  1.3090
   16CHL1  H19C 1153   4.939   6.607  10.215  1.4307  2.3647  0.0239
   16CHL1    C1 1154   4.688   6.745  10.200 -0.0311  0.2896  0.5406
   16CHL1   H1A 1155   4.729   6.842  10.164 -1.3297  0.8189  0.4379
   16CHL1   H1B 1156   4.579   6.758  10.186  0.2709  1.6716 -0.8875
   16CHL1    C2 1157   4.715   6.740  10.343 -0.3473  0.5196 -0.2905
   16CHL1   H2A 1158   4.660   6.834  10.368 -0.2563  0.6561 -0.6109
   16CHL1   H2B 1159   4.822   6.745  10.370 -0.6069 -3.0254  2.0572
   16CHL1   C20 1160   4.806   6.678   9.399  0.1950 -0.0726 -0.2962
   16CHL1   H20 1161   4.917   6.669   9.402  0.2374  0.2099 -0.8676
   16CHL1   C21 1162   4.778   6.833   9.389 -0.0442 -0.0859  0.2716
   16CHL1  H21A 1163   4.819   6.881   9.480 -1.4757  1.6841  0.0378
   16CHL1  H21B 1164   4.669   6.854   9.390 -0.1096 -0.1376 -1.4847
   16CHL1  H21C 1165   4.823   6.883   9.300  1.7217  0.6285  1.5235
   16CHL1   C22 1166   4.765   6.614   9.272 -0.2981 -0.0854  0.0259
   16CHL1  H22A 1167   4.766   6.503   9.276  1.0267 -0.0796  0.4575
   16CHL1  H22B 1168   4.658   6.643   9.259 -0.7338 -2.0460 -1.0451
   16CHL1   C23 1169   4.842   6.664   9.149 -0.2376  0.7043 -0.9750
   16CHL1  H23A 1170   4.841   6.775   9.136 -1.7443  1.0972  1.6728
   16CHL1  H23B 1171   4.946   6.633   9.170 -0.3742  0.0103 -1.2966
   16CHL1   C24 1172   4.795   6.595   9.015 -0.4851 -0.0372 -0.1054
   16CHL1  H24A 1173   4.799   6.485   9.029  1.0998 -0.0933 -0.8487
   16CHL1  H24B 1174   4.692   6.630   8.989  0.4664  3.2431  0.0433
   16CHL1   C25 1175   4.883   6.624   8.886  1.0498  0.5611 -0.5775
   16CHL1   H25 1176   4.888   6.735   8.878 -0.7243  0.6326 -1.2927
   16CHL1   C26 1177   5.022   6.573   8.899  0.2472 -0.1606 -0.3084
   16CHL1  H26A 1178   5.088   6.578   8.810  1.7466 -0.3464  0.7623
   16CHL1  H26B 1179   5.081   6.619   8.981  1.1622 -1.8664  0.0429
   16CHL1  H26C 1180   5.018   6.467   8.930  1.2162 -0.2569 -0.4869
   16CHL1   C27 1181   4.829   6.573   8.755  0.1312 -0.4296 -0.5251
   16CHL1  H27A 1182   4.754   6.644   8.715 -1.9435 -1.6886  0.9095
   16CHL1  H27B 1183   4.910   6.558   8.680 -1.6213 -2.0034 -2.2237
   16CHL1  H27C 1184   4.767   6.482   8.770 -2.1713  1.1191 -0.2802
   17CHL1    C3 1185   2.521   3.927  10.357  0.4785 -0.4882 -0.2602
   17CHL1    H3 1186   2.594   3.996  10.311 -0.4175  0.1989 -0.6719
   17CHL1    O3 1187   2.548   3.907  10.494  0.1560  0.2393  0.0636
   17CHL1   H3' 1188   2.467   3.860  10.516 -0.0502  0.0550 -1.0268
   17CHL1    C4 1189   2.379   3.996  10.349 -0.8736  0.7634  0.2235
   17CHL1   H4A 1190   2.308   3.928  10.401 -0.6333  1.2890  1.2555
   17CHL1   H4B 1191   2.380   4.086  10.413 -0.2644  0.1314  1.1173
   17CHL1    C5 1192   2.349   4.022  10.204 -0.5245  0.3556  0.1505
   17CHL1    C6 1193   2.331   4.149  10.168 -0.1736  0.6636  0.2732
   17CHL1    H6 1194   2.335   4.227  10.245 -0.9341  0.1679  0.8280
   17CHL1    C7 1195   2.327   4.182  10.020 -0.4614 -0.0818 -0.0180
   17CHL1   H7A 1196   2.261   4.271  10.010 -0.0818  0.1729 -0.2737
   17CHL1   H7B 1197   2.431   4.209   9.993 -0.7686  1.0815 -0.0871
   17CHL1    C8 1198   2.268   4.064   9.938  0.9580 -0.2886  1.3681
   17CHL1    H8 1199   2.158   4.058   9.952  0.6932 -0.9925 -0.7347
   17CHL1   C14 1200   2.293   4.090   9.788  0.2047  0.6292  0.1667
   17CHL1   H14 1201   2.403   4.087   9.769  0.1293 -0.2742 -0.1989
   17CHL1   C15 1202   2.253   4.218   9.729 -0.2314 -0.2420 -0.7958
   17CHL1  H15A 1203   2.161   4.260   9.775 -0.4401 -1.6396  0.1186
   17CHL1  H15B 1204   2.324   4.302   9.742  1.1496 -1.3891 -0.8064
   17CHL1   C16 1205   2.225   4.195   9.580 -0.0730 -0.8154  0.2615
   17CHL1  H16A 1206   2.126   4.240   9.555 -0.2770 -0.6711  1.2572
   17CHL1  H16B 1207   2.292   4.250   9.511  0.6338  0.0671  1.6004
   17CHL1   C17 1208   2.235   4.042   9.558 -0.6169 -0.0480  0.5891
   17CHL1   H17 1209   2.338   4.023   9.520 -0.8755 -0.5609  0.1297
   17CHL1   C13 1210   2.225   3.983   9.697  0.5824  0.5355  1.1218
   17CHL1   C18 1211   2.078   3.973   9.729  0.2450  0.0877  0.2675
   17CHL1  H18A 1212   2.031   3.897   9.663 -1.3936  2.6905 -1.7719
   17CHL1  H18B 1213   2.053   3.924   9.825 -0.8126 -0.7632 -0.4150
   17CHL1  H18C 1214   2.014   4.064   9.730  1.1381  0.7336  0.0413
   17CHL1   C12 1215   2.307   3.850   9.719  0.9984 -0.2455  1.2168
   17CHL1  H12A 1216   2.254   3.763   9.674  0.2869  0.7946 -0.0443
   17CHL1  H12B 1217   2.407   3.846   9.672 -0.1737 -0.4293 -1.4636
   17CHL1   C11 1218   2.327   3.817   9.868  0.3969  0.6020 -0.9197
   17CHL1  H11A 1219   2.233   3.762   9.891  0.9257  0.1172  0.1531
   17CHL1  H11B 1220   2.411   3.745   9.876 -1.5439 -1.7339 -0.6013
   17CHL1    C9 1221   2.344   3.935   9.964  0.0042 -0.2087 -0.3695
   17CHL1    H9 1222   2.448   3.965   9.940 -0.3496  0.2360 -1.4644
   17CHL1   C10 1223   2.352   3.896  10.109 -0.2979 -0.2020 -0.2004
   17CHL1   C19 1224   2.224   3.818  10.146  0.1398 -0.5161  0.0179
   17CHL1  H19A 1225   2.223   3.715  10.104  1.3673 -0.7847  0.6003
   17CHL1  H19B 1226   2.206   3.807  10.255 -2.5593  0.9480 -0.1961
   17CHL1  H19C 1227   2.140   3.878  10.103  1.2915  3.1093  2.3754
   17CHL1    C1 1228   2.483   3.815  10.147 -0.0658 -0.2297  0.2875
   17CHL1   H1A 1229   2.487   3.712  10.106  2.3645 -0.3125  0.6047
   17CHL1   H1B 1230   2.569   3.868  10.100  2.0296 -2.6010  1.2171
   17CHL1    C2 1231   2.515   3.793  10.289 -0.0493  0.2224 -0.6877
   17CHL1   H2A 1232   2.615   3.744  10.290 -0.2321 -0.1461 -0.1539
   17CHL1   H2B 1233   2.444   3.719  10.332  0.4688  0.4201  0.5581
   17CHL1   C20 1234   2.142   3.992   9.446 -0.0147 -0.5065  0.6198
   17CHL1   H20 1235   2.035   3.997   9.476 -1.4586 -0.3752 -3.8272
   17CHL1   C21 1236   2.179   3.840   9.433 -0.4342 -0.6048 -0.0589
   17CHL1  H21A 1237   2.284   3.813   9.458 -0.5755 -1.6803 -0.5871
   17CHL1  H21B 1238   2.155   3.802   9.331 -0.6585  2.8748 -1.4416
   17CHL1  H21C 1239   2.120   3.790   9.513  0.1005 -0.3322  0.5187
   17CHL1   C22 1240   2.171   4.074   9.311  0.0063 -0.5181 -0.2138
   17CHL1  H22A 1241   2.175   4.183   9.330  1.9676 -0.8384  1.6058
   17CHL1  H22B 1242   2.274   4.061   9.271  1.3431  3.2860  1.4774
   17CHL1   C23 1243   2.068   4.040   9.197  0.0498 -0.0195  0.2604
   17CHL1  H23A 1244   2.050   3.931   9.184 -2.7894  0.1477  1.9568
   17CHL1  H23B 1245   1.970   4.075   9.235 -0.1240 -1.5453  1.3349
   17CHL1   C24 1246   2.118   4.115   9.069 -0.0674 -0.6932 -0.5658
   17CHL1  H24A 1247   2.138   4.220   9.100 -0.9466 -0.8723  0.7025
   17CHL1  H24B 1248   2.218   4.070   9.048 -0.2559 -2.6523  2.1567
   17CHL1   C25 1249   2.027   4.090   8.946  0.4572 -0.0434  0.7549
   17CHL1   H25 1250   1.921   4.102   8.976  0.0116 -2.0798  0.1325
   17CHL1   C26 1251   2.081   4.170   8.823  0.5608 -0.5355  0.1215
   17CHL1  H26A 1252   2.081   4.281   8.834  1.5845 -0.3912 -1.1512
   17CHL1  H26B 1253   2.188   4.144   8.814  0.6897  0.1948 -0.5389
   17CHL1  H26C 1254   2.026   4.133   8.734  1.4363 -2.1852  0.2312
   17CHL1   C27 1255   2.023   3.941   8.898  0.1884  0.5684  0.1303
   17CHL1  H27A 1256   1.945   3.937   8.819 -1.4823  2.4305  1.5428
   17CHL1  H27B 1257   2.120   3.891   8.877 -0.7488 -1.7295  0.9190
   17CHL1  H27C 1258   1.981   3.877   8.979 -0.8423  0.1750 -0.6922
   18CHL1    C3 1259   2.880   3.555  10.135 -0.1933 -0.1247  0.6644
   18CHL1    H3 1260   2.964   3.615  10.093  0.8234 -1.0998  1.2191
   18CHL1    O3 1261   2.884   3.549  10.281 -0.0308 -0.6993  0.4109
   18CHL1   H3' 1262   2.808   3.494  10.304 -3.0227  2.2929 -1.3683
   18CHL1    C4 1263   2.751   3.629  10.095 -0.4006 -0.6303  0.0596
   18CHL1   H4A 1264   2.659   3.592  10.146 -0.5126 -0.7696 -0.2369
   18CHL1   H4B 1265   2.762   3.732  10.135 -0.5360 -0.8344  0.6384
   18CHL1    C5 1266   2.735   3.622   9.942  0.9916 -0.2093  0.0780
   18CHL1    C6 1267   2.709   3.736   9.876 -0.7481 -0.5422  0.2291
   18CHL1    H6 1268   2.702   3.828   9.935  1.4057 -1.0106  1.2988
   18CHL1    C7 1269   2.689   3.742   9.725 -0.2098  0.1520  0.0058
   18CHL1   H7A 1270   2.601   3.804   9.701  1.2040  1.2500 -2.8161
   18CHL1   H7B 1271   2.774   3.797   9.678 -0.2731  0.6105  0.4173
   18CHL1    C8 1272   2.666   3.603   9.651 -0.3372 -0.0234 -0.0642
   18CHL1    H8 1273   2.560   3.576   9.673 -0.1566  1.5764  3.3951
   18CHL1   C14 1274   2.688   3.612   9.499  0.2212  0.0031  0.3573
   18CHL1   H14 1275   2.798   3.620   9.493  0.4783 -1.3211  2.1728
   18CHL1   C15 1276   2.611   3.710   9.415  0.3774 -0.2474  0.7502
   18CHL1  H15A 1277   2.506   3.729   9.444  0.2453 -0.3185  0.3112
   18CHL1  H15B 1278   2.656   3.811   9.425 -0.1130  0.0620 -0.1029
   18CHL1   C16 1279   2.623   3.652   9.271  0.6068  0.0735  0.0988
   18CHL1  H16A 1280   2.523   3.640   9.225  1.0028 -1.2001 -0.4646
   18CHL1  H16B 1281   2.676   3.713   9.195 -1.6839  1.0613 -0.7754
   18CHL1   C17 1282   2.685   3.510   9.278 -0.5382  0.0688  0.0040
   18CHL1   H17 1283   2.795   3.516   9.263 -0.6772 -1.6810 -2.2337
   18CHL1   C13 1284   2.660   3.469   9.427 -0.0242 -0.2463 -0.3647
   18CHL1   C18 1285   2.509   3.417   9.455  0.0109 -0.4888 -0.1053
   18CHL1  H18A 1286   2.501   3.310   9.424  0.6732 -0.4174 -0.5554
   18CHL1  H18B 1287   2.487   3.429   9.563  1.3528 -3.4437  0.6194
   18CHL1  H18C 1288   2.437   3.484   9.404  0.5943  1.3332  1.3466
   18CHL1   C12 1289   2.760   3.373   9.498 -0.1753  0.1883  0.4513
   18CHL1  H12A 1290   2.753   3.267   9.465  1.7578 -0.3032  1.5247
   18CHL1  H12B 1291   2.865   3.408   9.493 -0.1895  0.1128 -1.1915
   18CHL1   C11 1292   2.732   3.361   9.657  0.0202 -0.9607 -0.2624
   18CHL1  H11A 1293   2.625   3.330   9.661 -0.0930 -0.4328  1.4914
   18CHL1  H11B 1294   2.787   3.279   9.708 -0.2766 -0.4765  0.8714
   18CHL1    C9 1295   2.753   3.495   9.722  0.6849 -0.4485 -0.8215
   18CHL1    H9 1296   2.857   3.529   9.703  1.6949 -2.2057  1.1483
   18CHL1   C10 1297   2.735   3.483   9.876  0.4154 -0.1306  0.3270
   18CHL1   C19 1298   2.594   3.414   9.904  0.2844 -0.2019 -0.3739
   18CHL1  H19A 1299   2.517   3.451   9.834 -0.8526 -0.1469  0.8643
   18CHL1  H19B 1300   2.605   3.306   9.880 -0.2146  0.0029 -1.6198
   18CHL1  H19C 1301   2.561   3.421  10.010  2.5509  0.0992  0.3748
   18CHL1    C1 1302   2.854   3.406   9.932 -0.4204  0.5338  0.1748
   18CHL1   H1A 1303   2.857   3.305   9.886 -1.3868  0.4122  0.3605
   18CHL1   H1B 1304   2.944   3.456   9.890  0.2174 -0.5395  0.2384
   18CHL1    C2 1305   2.876   3.409  10.081 -0.4539  0.1615 -0.1000
   18CHL1   H2A 1306   2.972   3.366  10.117  0.3965  0.9861 -1.2847
   18CHL1   H2B 1307   2.792   3.355  10.129 -0.5670  1.1675  0.8837
   18CHL1   C20 1308   2.638   3.410   9.167 -0.3453 -0.7406 -0.2787
   18CHL1   H20 1309   2.541   3.365   9.193 -1.0340  1.2311  0.7933
   18CHL1   C21 1310   2.739   3.296   9.156 -0.4364  1.0456  0.0083
   18CHL1  H21A 1311   2.836   3.339   9.123  1.3110  0.1350  3.4816
   18CHL1  H21B 1312   2.695   3.214   9.095  0.7161  0.2932  0.1575
   18CHL1  H21C 1313   2.760   3.253   9.256  0.9075  0.9759 -0.2768
   18CHL1   C22 1314   2.625   3.470   9.025 -0.7203  0.2712  0.4267
   18CHL1  H22A 1315   2.585   3.574   9.032 -0.5149  0.4619 -0.9267
   18CHL1  H22B 1316   2.721   3.471   8.970 -0.2066 -0.6161  1.2751
   18CHL1   C23 1317   2.540   3.395   8.926 -0.2874  0.2403 -0.6117
   18CHL1  H23A 1318   2.580   3.294   8.903 -0.9377 -0.2576  0.3986
   18CHL1  H23B 1319   2.444   3.374   8.978  0.3362  0.6725  0.7636
   18CHL1   C24 1320   2.518   3.472   8.791 -0.0645  0.3771  0.0340
   18CHL1  H24A 1321   2.481   3.576   8.805  0.7631  0.5475  1.0017
   18CHL1  H24B 1322   2.616   3.469   8.738  0.2891 -1.0095  0.7309
   18CHL1   C25 1323   2.405   3.397   8.711  0.6039 -0.4260 -0.4905
   18CHL1   H25 1324   2.323   3.358   8.773  0.8363  0.4389  0.3866
   18CHL1   C26 1325   2.336   3.490   8.610 -0.1904  0.0667  0.0749
   18CHL1  H26A 1326   2.413   3.534   8.544 -0.7965  0.2619 -0.5214
   18CHL1  H26B 1327   2.272   3.427   8.545  0.9390 -1.0305  0.0039
   18CHL1  H26C 1328   2.278   3.575   8.654  0.1776  0.7825 -0.7991
   18CHL1   C27 1329   2.448   3.272   8.651 -0.2749 -0.0976 -0.0877
   18CHL1  H27A 1330   2.362   3.205   8.629  0.5328 -1.4656  0.8026
   18CHL1  H27B 1331   2.493   3.286   8.551 -0.2194  0.7892  0.0508
   18CHL1  H27C 1332   2.530   3.213   8.696 -0.6999 -1.5249 -1.1291
   19CHL1    C3 1333   3.766   3.205  10.053  0.7870 -0.2700 -0.5112
   19CHL1    H3 1334   3.856   3.268  10.036  1.3128 -0.6247  0.8438
   19CHL1    O3 1335   3.719   3.214  10.189 -0.3107 -0.3109 -0.0013
   19CHL1   H3' 1336   3.803   3.200  10.233  1.3242  3.2728 -1.6219
   19CHL1    C4 1337   3.652   3.247   9.962 -0.2613 -0.1487  0.3923
   19CHL1   H4A 1338   3.566   3.182   9.989 -0.2067 -1.4168 -2.2082
   19CHL1   H4B 1339   3.636   3.353   9.992  0.6027  0.3267 -0.7291
   19CHL1    C5 1340   3.676   3.228   9.812  0.4535 -0.1802  0.2175
   19CHL1    C6 1341   3.668   3.332   9.726 -0.4118 -0.2548 -0.2930
   19CHL1    H6 1342   3.647   3.436   9.757  2.1164  0.6465 -1.3472
   19CHL1    C7 1343   3.672   3.312   9.576 -0.3879  0.3957 -0.4910
   19CHL1   H7A 1344   3.586   3.366   9.531 -0.9131  1.5262  1.7160
   19CHL1   H7B 1345   3.771   3.344   9.535  0.4276 -2.4757 -1.0084
   19CHL1    C8 1346   3.650   3.159   9.534  1.3401  0.8756 -0.2602
   19CHL1    H8 1347   3.544   3.131   9.546  0.9670  1.9350 -0.9222
   19CHL1   C14 1348   3.695   3.141   9.391 -0.5835  0.0433  0.4287
   19CHL1   H14 1349   3.805   3.157   9.395 -0.7064  0.9779  0.3429
   19CHL1   C15 1350   3.648   3.244   9.283 -0.4635 -0.4618 -0.2446
   19CHL1  H15A 1351   3.538   3.257   9.288 -0.4414 -0.6003  0.7582
   19CHL1  H15B 1352   3.695   3.345   9.281  0.4900 -0.8949 -1.5711
   19CHL1   C16 1353   3.675   3.171   9.153 -1.1579 -0.6518 -0.0528
   19CHL1  H16A 1354   3.574   3.165   9.107 -0.4904 -3.9899 -1.3129
   19CHL1  H16B 1355   3.742   3.223   9.082  1.2561 -1.4024  1.5620
   19CHL1   C17 1356   3.717   3.028   9.184 -0.3902 -0.6644  0.3480
   19CHL1   H17 1357   3.828   3.036   9.191 -0.2465 -2.3270  0.4670
   19CHL1   C13 1358   3.676   3.002   9.334 -0.5472  0.6716  0.5174
   19CHL1   C18 1359   3.529   2.962   9.340  0.2183 -0.0395 -0.4901
   19CHL1  H18A 1360   3.515   2.867   9.284  3.4546  1.0169 -3.4221
   19CHL1  H18B 1361   3.491   2.950   9.444 -0.0786 -1.0912 -0.6989
   19CHL1  H18C 1362   3.465   3.035   9.286  0.6947  1.2246  0.5990
   19CHL1   C12 1363   3.769   2.910   9.423 -0.6149  0.1650 -0.3280
   19CHL1  H12A 1364   3.741   2.809   9.387 -1.8502 -0.7493  2.8385
   19CHL1  H12B 1365   3.873   2.931   9.392  0.0324  0.0623  1.6548
   19CHL1   C11 1366   3.733   2.918   9.568  0.3933  0.0187  0.0536
   19CHL1  H11A 1367   3.635   2.873   9.594  1.6207 -1.3596  2.6114
   19CHL1  H11B 1368   3.810   2.874   9.635  0.8385 -1.5092 -1.3874
   19CHL1    C9 1369   3.735   3.062   9.621  0.8659  0.2583  0.2439
   19CHL1    H9 1370   3.837   3.102   9.602  1.9415 -1.4634  2.0076
   19CHL1   C10 1371   3.700   3.079   9.777  0.3014  0.0137 -0.2776
   19CHL1   C19 1372   3.577   2.993   9.802  0.5158  0.3676 -0.4097
   19CHL1  H19A 1373   3.600   2.886   9.781 -0.4888  0.2374 -0.8881
   19CHL1  H19B 1374   3.553   2.999   9.911 -2.1957  0.2177 -0.9249
   19CHL1  H19C 1375   3.495   3.033   9.738 -0.5423 -3.0911 -1.4152
   19CHL1    C1 1376   3.814   3.033   9.872 -0.4369 -0.7952  0.5226
   19CHL1   H1A 1377   3.824   2.922   9.863 -1.9034 -0.9891  0.9452
   19CHL1   H1B 1378   3.908   3.072   9.829 -1.8320 -0.3525 -2.3947
   19CHL1    C2 1379   3.804   3.053  10.025 -0.5375 -0.6613 -0.7218
   19CHL1   H2A 1380   3.895   3.021  10.080 -1.5411 -1.4352  0.5441
   19CHL1   H2B 1381   3.717   2.991  10.055  0.3796 -0.9741  1.4539
   19CHL1   C20 1382   3.682   2.927   9.077 -0.4697  0.6042  0.6512
   19CHL1   H20 1383   3.571   2.924   9.068 -0.2925  0.5065 -2.6628
   19CHL1   C21 1384   3.750   2.794   9.107 -0.1156  0.7696 -0.7836
   19CHL1  H21A 1385   3.687   2.736   9.178 -1.1383  1.1942 -1.3132
   19CHL1  H21B 1386   3.852   2.802   9.149 -0.2909 -1.4749  0.1634
   19CHL1  H21C 1387   3.750   2.736   9.013  2.4261 -0.4413 -0.1196
   19CHL1   C22 1388   3.728   2.978   8.926  0.5961  0.0297 -0.1253
   19CHL1  H22A 1389   3.675   3.075   8.912 -0.1431  0.1536  2.7695
   19CHL1  H22B 1390   3.837   2.997   8.923  0.4150  1.2361  0.4931
   19CHL1   C23 1391   3.692   2.872   8.819 -0.1037 -0.1812 -0.4466
   19CHL1  H23A 1392   3.765   2.789   8.830  1.6869  1.4431  0.5055
   19CHL1  H23B 1393   3.589   2.835   8.838 -0.2123  0.1027 -0.4714
   19CHL1   C24 1394   3.707   2.928   8.677 -0.0489  0.7298  0.9024
   19CHL1  H24A 1395   3.638   3.013   8.659 -1.2494 -0.2977  0.5262
   19CHL1  H24B 1396   3.809   2.967   8.654 -0.3428 -0.2071 -2.4082
   19CHL1   C25 1397   3.679   2.807   8.580 -0.3924 -0.1375 -0.7424
   19CHL1   H25 1398   3.586   2.762   8.621  0.4238 -1.7510 -0.6011
   19CHL1   C26 1399   3.644   2.866   8.438 -0.5862 -0.0366 -0.0927
   19CHL1  H26A 1400   3.632   2.782   8.367 -2.8244  1.0779 -1.1386
   19CHL1  H26B 1401   3.546   2.918   8.453 -0.3000  1.2333 -2.2871
   19CHL1  H26C 1402   3.711   2.947   8.402 -1.6733  1.3134  0.8010
   19CHL1   C27 1403   3.791   2.705   8.584 -0.7122 -0.3539  0.2698
   19CHL1  H27A 1404   3.760   2.607   8.543  1.4657 -0.0879 -2.3547
   19CHL1  H27B 1405   3.872   2.749   8.521 -0.9820  1.5990  1.2175
   19CHL1  H27C 1406   3.835   2.679   8.682  1.1497 -1.2866 -0.7509
   20CHL1    C3 1407   0.245   0.042  10.353 -0.1699  0.2831  0.0521
   20CHL1    H3 1408   0.233  -0.068  10.363 -2.4975  0.4461 -0.2657
   20CHL1    O3 1409   0.283   0.085  10.486 -0.2798 -0.2382 -0.1942
   20CHL1   H3' 1410   0.212   0.147  10.503 -1.8650 -2.0659  0.2096
   20CHL1    C4 1411   0.348   0.096  10.247 -0.3142 -0.2580 -0.7770
   20CHL1   H4A 1412   0.352   0.207  10.253 -0.4664 -0.2917  0.0790
   20CHL1   H4B 1413   0.445   0.054  10.280 -0.0895  0.4147 -0.5616
   20CHL1    C5 1414   0.322   0.039  10.106 -0.4145 -0.4662  0.9173
   20CHL1    C6 1415   0.416  -0.029  10.031 -0.2955 -0.3216 -0.8427
   20CHL1    H6 1416   0.513  -0.040  10.082 -0.3195  0.5752 -0.5933
   20CHL1    C7 1417   0.387  -0.081   9.899 -0.0818 -0.5523 -0.3022
   20CHL1   H7A 1418   0.477  -0.050   9.842  1.1150 -0.7658  1.4053
   20CHL1   H7B 1419   0.391  -0.192   9.898  0.7343 -0.5898  1.7841
   20CHL1    C8 1420   0.259  -0.018   9.825 -0.3798  0.5210 -0.0191
   20CHL1    H8 1421   0.294   0.081   9.791 -0.8061  0.5887 -0.2847
   20CHL1   C14 1422   0.215  -0.105   9.706  0.1036 -0.1321 -0.2933
   20CHL1   H14 1423   0.187  -0.206   9.745  3.1198 -0.2943  1.7534
   20CHL1   C15 1424   0.314  -0.146   9.594  0.6225  0.2661  0.1943
   20CHL1  H15A 1425   0.401  -0.077   9.600  0.4459  0.3934  1.5010
   20CHL1  H15B 1426   0.355  -0.244   9.625  1.5974 -0.0052 -1.7914
   20CHL1   C16 1427   0.239  -0.151   9.461  0.1726  0.3560 -1.0211
   20CHL1  H16A 1428   0.278  -0.065   9.403  3.1445 -0.4074 -0.3194
   20CHL1  H16B 1429   0.265  -0.235   9.394 -0.5736  0.2213 -1.1559
   20CHL1   C17 1430   0.096  -0.148   9.507 -0.3909  0.0593 -0.6129
   20CHL1   H17 1431   0.058  -0.247   9.540 -0.4409 -0.2852 -1.6500
   20CHL1   C13 1432   0.094  -0.052   9.626  0.3410  0.3498 -0.5368
   20CHL1   C18 1433   0.126   0.092   9.578  0.4209 -0.8655 -0.1354
   20CHL1  H18A 1434   0.224   0.100   9.528  0.9985  0.0869  1.1130
   20CHL1  H18B 1435   0.037   0.127   9.520  1.3793  1.9001 -0.0547
   20CHL1  H18C 1436   0.131   0.160   9.665  1.3677 -0.8049 -0.2312
   20CHL1   C12 1437  -0.015  -0.062   9.732 -0.9438  0.2018 -0.7127
   20CHL1  H12A 1438  -0.107  -0.013   9.694 -0.2894  1.6813 -0.4353
   20CHL1  H12B 1439  -0.045  -0.168   9.750  1.7846 -0.8523 -1.8012
   20CHL1   C11 1440   0.008   0.023   9.862  0.2931  0.6202 -0.6404
   20CHL1  H11A 1441  -0.012   0.127   9.827 -1.9393 -0.1894 -1.9761
   20CHL1  H11B 1442  -0.080   0.007   9.929  2.7632 -0.6033  2.5623
   20CHL1    C9 1443   0.140  -0.014   9.924 -0.4908  0.5759 -0.4037
   20CHL1    H9 1444   0.123  -0.121   9.950  2.4977  0.2549  0.7270
   20CHL1   C10 1445   0.178   0.060  10.057 -0.0566 -0.7593 -0.0424
   20CHL1   C19 1446   0.159   0.212  10.030 -0.3615 -0.1892  0.4952
   20CHL1  H19A 1447   0.056   0.250  10.012 -0.0675  0.0339 -0.8336
   20CHL1  H19B 1448   0.213   0.280  10.100 -2.6212  2.2795  0.0170
   20CHL1  H19C 1449   0.212   0.244   9.937 -1.2297 -0.5167 -0.1218
   20CHL1    C1 1450   0.068   0.028  10.170  0.4206  0.5505  0.0088
   20CHL1   H1A 1451  -0.028   0.074  10.139  0.6999  1.1938  0.0837
   20CHL1   H1B 1452   0.059  -0.083  10.175 -1.6868  0.7161  1.5759
   20CHL1    C2 1453   0.099   0.086  10.312 -0.2488 -0.1032  0.5722
   20CHL1   H2A 1454   0.026   0.045  10.385  0.4595 -2.1713  0.1642
   20CHL1   H2B 1455   0.095   0.197  10.311 -0.3507 -0.1116 -0.6447
   20CHL1   C20 1456   0.005  -0.112   9.390 -0.1973  0.7874 -0.4178
   20CHL1   H20 1457   0.027  -0.011   9.348  0.5077  0.6868 -0.3118
   20CHL1   C21 1458  -0.140  -0.099   9.428 -0.1267 -0.4822  0.4303
   20CHL1  H21A 1459  -0.206  -0.076   9.342 -1.2721 -1.5178  1.0010
   20CHL1  H21B 1460  -0.144  -0.009   9.493  0.4686 -0.8726  1.0212
   20CHL1  H21C 1461  -0.188  -0.177   9.492 -3.6081  1.2526  0.1763
   20CHL1   C22 1462   0.040  -0.191   9.262 -0.1004  0.0319  0.4916
   20CHL1  H22A 1463   0.148  -0.180   9.238  0.1021 -1.5834  0.5873
   20CHL1  H22B 1464   0.009  -0.295   9.285  0.4944 -0.8444 -2.2013
   20CHL1   C23 1465  -0.040  -0.154   9.133  0.0847  0.7181 -0.2312
   20CHL1  H23A 1466  -0.145  -0.180   9.160  0.8734 -0.7947  1.6675
   20CHL1  H23B 1467  -0.035  -0.046   9.111 -2.3205  0.2938 -3.7298
   20CHL1   C24 1468  -0.013  -0.237   9.006  0.3848  0.1674  0.3038
   20CHL1  H24A 1469   0.093  -0.224   8.974  0.5882 -1.0466  0.4480
   20CHL1  H24B 1470  -0.028  -0.341   9.040  2.1771  0.9249  3.9301
   20CHL1   C25 1471  -0.111  -0.192   8.896 -0.1290  0.4056  0.0337
   20CHL1   H25 1472  -0.211  -0.181   8.944  0.0081 -1.4736  0.8622
   20CHL1   C26 1473  -0.076  -0.058   8.835 -0.1516 -0.3121 -0.2183
   20CHL1  H26A 1474  -0.159   0.002   8.791  0.5486  0.5858 -0.3427
   20CHL1  H26B 1475  -0.034  -0.001   8.921 -0.7467  0.3941 -0.3849
   20CHL1  H26C 1476   0.011  -0.072   8.767 -0.8462  0.1359 -1.2283
   20CHL1   C27 1477  -0.120  -0.288   8.778 -0.6016  0.2338  0.0092
   20CHL1  H27A 1478  -0.038  -0.299   8.703 -2.4664 -1.4941 -1.9187
   20CHL1  H27B 1479  -0.154  -0.388   8.811 -0.9659 -0.4094 -2.1051
   20CHL1  H27C 1480  -0.200  -0.240   8.718  0.2283  1.1107 -0.4397
   21CHL1    C3 1481   1.576   2.272  10.195  0.4223  0.5078  0.6744
   21CHL1    H3 1482   1.470   2.249  10.170 -0.2692  2.2063  1.8464
   21CHL1    O3 1483   1.599   2.247  10.333  0.4603  0.1860 -0.3415
   21CHL1   H3' 1484   1.693   2.255  10.351 -0.1677  1.6282  3.0572
   21CHL1    C4 1485   1.660   2.170  10.114  0.0379  0.4693  0.2405
   21CHL1   H4A 1486   1.763   2.194  10.149 -0.1372  0.7821  0.5546
   21CHL1   H4B 1487   1.639   2.067  10.151 -0.7732  0.2633 -0.7397
   21CHL1    C5 1488   1.645   2.185   9.967 -0.3596  0.5659 -0.1046
   21CHL1    C6 1489   1.591   2.080   9.896  0.1467  0.1105 -0.3083
   21CHL1    H6 1490   1.580   1.983   9.946 -0.1185 -0.9372 -2.2990
   21CHL1    C7 1491   1.571   2.091   9.752 -0.1500 -0.1870  0.1814
   21CHL1   H7A 1492   1.611   2.004   9.695 -0.5113 -0.7469  0.7706
   21CHL1   H7B 1493   1.461   2.092   9.737 -0.5942  2.7215  2.6846
   21CHL1    C8 1494   1.635   2.210   9.684  0.2388 -0.6947  0.5665
   21CHL1    H8 1495   1.742   2.182   9.676 -0.1669 -2.8748  1.9120
   21CHL1   C14 1496   1.574   2.236   9.559  0.3446  0.5345  0.2934
   21CHL1   H14 1497   1.467   2.256   9.580  0.2333  0.1988  0.0551
   21CHL1   C15 1498   1.575   2.117   9.460  0.3221  0.3127 -0.7252
   21CHL1  H15A 1499   1.678   2.077   9.452 -0.1704 -0.7668 -2.0994
   21CHL1  H15B 1500   1.507   2.032   9.480 -2.3895  2.5341  0.3478
   21CHL1   C16 1501   1.538   2.185   9.329 -0.6477 -0.1937  0.1471
   21CHL1  H16A 1502   1.605   2.141   9.251  2.6876  1.2476  1.9751
   21CHL1  H16B 1503   1.436   2.155   9.298 -1.6887  3.6325 -0.7083
   21CHL1   C17 1504   1.554   2.340   9.345  0.5063 -0.1381  0.3106
   21CHL1   H17 1505   1.450   2.378   9.358  0.0286 -1.5846  1.0413
   21CHL1   C13 1506   1.640   2.356   9.471 -0.2135 -0.4567 -0.3849
   21CHL1   C18 1507   1.783   2.327   9.426 -0.1223  0.2751 -0.4151
   21CHL1  H18A 1508   1.784   2.261   9.336  0.3634  0.5662 -0.6297
   21CHL1  H18B 1509   1.829   2.422   9.389 -0.4428  1.6786  2.5326
   21CHL1  H18C 1510   1.850   2.296   9.509 -0.0437  1.4226 -0.0251
   21CHL1   C12 1511   1.633   2.484   9.550 -0.2998  0.6313  0.6993
   21CHL1  H12A 1512   1.684   2.573   9.507 -3.2125  1.5148 -1.2009
   21CHL1  H12B 1513   1.526   2.503   9.574 -0.1661 -0.0724  1.8991
   21CHL1   C11 1514   1.682   2.465   9.696  0.0595 -0.0191  1.0098
   21CHL1  H11A 1515   1.792   2.458   9.685 -0.1538 -0.1068 -2.2687
   21CHL1  H11B 1516   1.669   2.553   9.762 -1.6860  0.1161  0.5534
   21CHL1    C9 1517   1.627   2.341   9.768  0.4002 -0.2430  0.2516
   21CHL1    H9 1518   1.517   2.352   9.780  0.2536 -1.7325  0.4563
   21CHL1   C10 1519   1.671   2.326   9.918  0.0994 -0.5624  0.5999
   21CHL1   C19 1520   1.823   2.340   9.927 -0.4488 -0.1500 -0.2582
   21CHL1  H19A 1521   1.865   2.439   9.898  1.8770 -0.6838  1.0029
   21CHL1  H19B 1522   1.857   2.334  10.033  1.5910  2.7480 -0.6195
   21CHL1  H19C 1523   1.874   2.270   9.858 -0.2535 -1.0158  0.7331
   21CHL1    C1 1524   1.598   2.435  10.002  0.3231  0.2426 -0.1099
   21CHL1   H1A 1525   1.633   2.537   9.975 -1.9058  0.7332 -1.3770
   21CHL1   H1B 1526   1.490   2.431   9.978  0.1030  3.0604  0.0479
   21CHL1    C2 1527   1.609   2.418  10.157 -0.2352  0.1115  0.7452
   21CHL1   H2A 1528   1.549   2.491  10.215 -0.1382 -0.0686  1.0812
   21CHL1   H2B 1529   1.716   2.434  10.184 -0.4029 -0.1666  1.6353
   21CHL1   C20 1530   1.593   2.403   9.205  0.3259  0.4068  0.0179
   21CHL1   H20 1531   1.696   2.371   9.176  1.5602  3.0720  1.1164
   21CHL1   C21 1532   1.620   2.559   9.235 -0.0358 -0.0162 -0.3785
   21CHL1  H21A 1533   1.637   2.610   9.138 -1.7604  0.9206 -0.2343
   21CHL1  H21B 1534   1.709   2.578   9.298  0.0399 -1.5064  0.0124
   21CHL1  H21C 1535   1.531   2.616   9.270 -0.7218 -0.8825 -0.6790
   21CHL1   C22 1536   1.502   2.379   9.092 -0.2090 -0.4042 -0.2922
   21CHL1  H22A 1537   1.510   2.270   9.071 -2.1244 -0.3745 -1.3801
   21CHL1  H22B 1538   1.393   2.392   9.109 -0.3996 -0.0498 -1.6344
   21CHL1   C23 1539   1.524   2.454   8.952 -0.1494 -0.4557 -0.0597
   21CHL1  H23A 1540   1.524   2.564   8.968 -0.6678 -0.2327 -1.4632
   21CHL1  H23B 1541   1.630   2.428   8.928  0.3753  1.5072  0.0064
   21CHL1   C24 1542   1.435   2.417   8.836  0.3274  0.2197 -0.1340
   21CHL1  H24A 1543   1.429   2.306   8.840  1.1458  0.1331 -1.0127
   21CHL1  H24B 1544   1.330   2.452   8.842  0.2760 -0.1416  2.5791
   21CHL1   C25 1545   1.486   2.470   8.699 -0.9275  0.1777  0.4906
   21CHL1   H25 1546   1.587   2.423   8.694 -1.2401 -0.3813 -1.3972
   21CHL1   C26 1547   1.407   2.411   8.586  0.7491  0.0129  0.0410
   21CHL1  H26A 1548   1.402   2.300   8.584 -0.0036  0.0288  0.5772
   21CHL1  H26B 1549   1.301   2.443   8.587  0.3414 -1.2790  0.8404
   21CHL1  H26C 1550   1.443   2.448   8.487  0.5667  1.7700  0.6049
   21CHL1   C27 1551   1.495   2.621   8.689  0.3097  0.0732  0.1329
   21CHL1  H27A 1552   1.508   2.650   8.583 -0.3262 -0.1973 -0.0265
   21CHL1  H27B 1553   1.397   2.664   8.720 -1.2307 -1.7473 -1.8354
   21CHL1  H27C 1554   1.578   2.654   8.754 -1.1759 -2.0488  3.3914
   22CHL1    C3 1555   0.699   4.060   9.918  0.2619  0.3160  0.1703
   22CHL1    H3 1556   0.692   3.953   9.890  0.5406 -0.1002  1.5799
   22CHL1    O3 1557   0.728   4.062  10.061 -0.2446 -0.1866  0.7099
   22CHL1   H3' 1558   0.736   4.154  10.089  1.1037 -0.4460  1.2639
   22CHL1    C4 1559   0.812   4.134   9.843 -0.1213  0.2353 -0.5531
   22CHL1   H4A 1560   0.812   4.233   9.894  0.5862 -0.0263 -0.0281
   22CHL1   H4B 1561   0.903   4.079   9.873  0.1302  1.3951  0.9615
   22CHL1    C5 1562   0.781   4.137   9.691 -0.2141 -0.4263  0.0456
   22CHL1    C6 1563   0.861   4.085   9.598 -0.1432 -0.7107  0.5936
   22CHL1    H6 1564   0.957   4.039   9.624  0.5233  0.7118  0.7291
   22CHL1    C7 1565   0.843   4.095   9.454 -0.1252 -1.1242  0.0895
   22CHL1   H7A 1566   0.943   4.122   9.414 -0.9128  1.4060 -0.3789
   22CHL1   H7B 1567   0.805   4.004   9.404 -2.6090  0.9950 -2.2298
   22CHL1    C8 1568   0.745   4.216   9.420 -0.5371 -0.3567 -0.1132
   22CHL1    H8 1569   0.796   4.312   9.441  0.4958 -0.2105 -2.8705
   22CHL1   C14 1570   0.705   4.212   9.275 -0.4411  0.6164 -0.0482
   22CHL1   H14 1571   0.672   4.106   9.273  0.5026  0.3202 -0.2781
   22CHL1   C15 1572   0.822   4.235   9.179  0.3824  0.3033  0.4267
   22CHL1  H15A 1573   0.869   4.332   9.207 -1.2306  1.4145 -0.5862
   22CHL1  H15B 1574   0.901   4.157   9.179 -0.5607 -0.7102  1.8036
   22CHL1   C16 1575   0.747   4.258   9.043 -0.5561 -0.3534  0.1316
   22CHL1  H16A 1576   0.788   4.341   8.981 -3.6910  0.2144 -1.4080
   22CHL1  H16B 1577   0.756   4.161   8.989  0.8284 -1.9890  3.0824
   22CHL1   C17 1578   0.595   4.260   9.079 -0.1596  0.0046 -0.3897
   22CHL1   H17 1579   0.560   4.154   9.075  1.4445 -0.6820  2.0188
   22CHL1   C13 1580   0.588   4.297   9.231 -0.8084  0.0335  0.5736
   22CHL1   C18 1581   0.626   4.450   9.238 -0.5532 -0.1562  0.0954
   22CHL1  H18A 1582   0.553   4.514   9.185  0.2158  0.5948 -0.0778
   22CHL1  H18B 1583   0.642   4.474   9.346 -2.6266 -0.5232  0.5240
   22CHL1  H18C 1584   0.720   4.464   9.181 -1.7529 -1.9975 -2.5652
   22CHL1   C12 1585   0.469   4.254   9.303  0.2487 -0.5730 -0.6281
   22CHL1  H12A 1586   0.375   4.303   9.269  0.5043  0.5601  0.2318
   22CHL1  H12B 1587   0.451   4.145   9.290  1.6490 -1.0494  0.9663
   22CHL1   C11 1588   0.496   4.281   9.454 -0.8448  0.6305  0.6244
   22CHL1  H11A 1589   0.508   4.388   9.482  1.7916  0.3159  0.9422
   22CHL1  H11B 1590   0.400   4.255   9.504 -0.3146  1.1827  1.9638
   22CHL1    C9 1591   0.619   4.195   9.504 -0.5467 -0.2644 -0.3336
   22CHL1    H9 1592   0.594   4.088   9.483  1.4389 -0.8029 -0.2216
   22CHL1   C10 1593   0.646   4.201   9.659 -0.1248 -0.9182 -0.4219
   22CHL1   C19 1594   0.653   4.356   9.698 -0.0571  0.5979  0.3571
   22CHL1  H19A 1595   0.696   4.358   9.800  0.1774  1.2373  0.2465
   22CHL1  H19B 1596   0.726   4.414   9.637  1.7135 -2.1052 -0.2730
   22CHL1  H19C 1597   0.552   4.401   9.703 -0.3260 -0.1594  3.1086
   22CHL1    C1 1598   0.530   4.131   9.736 -0.0477 -0.0036  0.4621
   22CHL1   H1A 1599   0.430   4.178   9.719 -0.9445 -2.1102 -0.4790
   22CHL1   H1B 1600   0.514   4.029   9.694 -2.4642  0.8922 -1.0385
   22CHL1    C2 1601   0.560   4.121   9.886  0.3251  0.6123 -0.0579
   22CHL1   H2A 1602   0.479   4.063   9.937  1.6234 -1.3595 -0.1562
   22CHL1   H2B 1603   0.567   4.217   9.943 -0.2596  0.9767 -0.5876
   22CHL1   C20 1604   0.514   4.335   8.977 -0.7471  0.7201  0.3775
   22CHL1   H20 1605   0.559   4.436   8.973 -0.6843  0.7052  0.6997
   22CHL1   C21 1606   0.368   4.340   9.011  0.1894  1.2729 -0.1190
   22CHL1  H21A 1607   0.328   4.386   8.918  2.6743  0.3375 -1.7528
   22CHL1  H21B 1608   0.345   4.395   9.105 -1.7691  0.2145  0.0776
   22CHL1  H21C 1609   0.331   4.237   9.028  2.0183  0.8297  1.3945
   22CHL1   C22 1610   0.535   4.268   8.841 -0.1152 -0.1279  0.1558
   22CHL1  H22A 1611   0.640   4.272   8.805  0.2494  0.0130  1.2070
   22CHL1  H22B 1612   0.518   4.159   8.853  1.2088 -0.3345  0.3267
   22CHL1   C23 1613   0.452   4.321   8.718 -0.3805 -0.5006  0.5286
   22CHL1  H23A 1614   0.343   4.339   8.718 -0.4956 -1.1553  0.0293
   22CHL1  H23B 1615   0.493   4.419   8.686 -4.3773  1.2823  0.3054
   22CHL1   C24 1616   0.465   4.225   8.604  0.0774 -0.1356 -0.7030
   22CHL1  H24A 1617   0.573   4.220   8.576 -0.0189  0.0123 -1.0967
   22CHL1  H24B 1618   0.429   4.123   8.630 -0.2424 -0.0349 -0.7480
   22CHL1   C25 1619   0.392   4.265   8.474  1.0559 -0.2222 -0.3965
   22CHL1   H25 1620   0.281   4.262   8.477  0.9633  1.6980 -0.7623
   22CHL1   C26 1621   0.426   4.414   8.430 -0.0672 -0.4330  0.4323
   22CHL1  H26A 1622   0.534   4.439   8.434  0.1137 -1.1689  0.3585
   22CHL1  H26B 1623   0.397   4.426   8.323  1.0864  2.0420  0.3312
   22CHL1  H26C 1624   0.368   4.490   8.486  2.6722  1.5116  0.8343
   22CHL1   C27 1625   0.432   4.166   8.362 -0.3962 -0.1629 -0.4089
   22CHL1  H27A 1626   0.386   4.198   8.266 -0.0256 -0.4078 -0.6676
   22CHL1  H27B 1627   0.542   4.160   8.351  0.0215 -0.2717  2.7290
   22CHL1  H27C 1628   0.398   4.065   8.395 -1.5148  0.7233  1.3472
   23CHL1    C3 1629   3.134   6.135  10.174 -0.5694  0.6890 -0.4094
   23CHL1    H3 1630   3.049   6.096  10.114  0.2365 -1.1843 -0.3912
   23CHL1    O3 1631   3.109   6.126  10.315  0.4596  0.0847  0.1588
   23CHL1   H3' 1632   3.118   6.034  10.340  0.1208 -0.2323 -0.8661
   23CHL1    C4 1633   3.266   6.050  10.145  0.6506 -0.3526  0.5232
   23CHL1   H4A 1634   3.347   6.094  10.207  2.4374 -1.6245 -0.8085
   23CHL1   H4B 1635   3.263   5.941  10.166  0.0786 -1.0351 -2.6038
   23CHL1    C5 1636   3.310   6.070   9.999  0.1436 -0.1180  0.4351
   23CHL1    C6 1637   3.323   5.963   9.925 -0.2031 -0.2038  0.3977
   23CHL1    H6 1638   3.315   5.862   9.968  0.8254 -1.4956 -2.2343
   23CHL1    C7 1639   3.370   5.963   9.786  0.4714 -0.0528  0.2119
   23CHL1   H7A 1640   3.445   5.883   9.770 -0.1382 -0.4033 -1.0286
   23CHL1   H7B 1641   3.281   5.919   9.735  0.9976 -2.1352  0.9917
   23CHL1    C8 1642   3.406   6.099   9.731 -0.6054  0.7798 -0.1626
   23CHL1    H8 1643   3.513   6.111   9.758 -0.1220 -0.9035 -1.2056
   23CHL1   C14 1644   3.393   6.098   9.582 -0.2388  0.2343  0.4945
   23CHL1   H14 1645   3.284   6.080   9.568  0.0868 -1.7376  0.2997
   23CHL1   C15 1646   3.451   5.982   9.501 -0.2029 -0.0051 -0.3573
   23CHL1  H15A 1647   3.560   5.978   9.522 -0.4804 -1.6967  0.9132
   23CHL1  H15B 1648   3.412   5.882   9.528  2.7443 -0.9724  0.6614
   23CHL1   C16 1649   3.439   6.029   9.350 -0.6390  0.4549  1.0571
   23CHL1  H16A 1650   3.525   6.005   9.284 -1.1310 -0.4904  0.7319
   23CHL1  H16B 1651   3.359   5.960   9.316 -1.4219  1.0983  1.5696
   23CHL1   C17 1652   3.393   6.178   9.358 -0.6095  0.2526 -0.0336
   23CHL1   H17 1653   3.283   6.189   9.361 -0.5825  0.5880 -0.2535
   23CHL1   C13 1654   3.426   6.229   9.507 -0.1107  0.0624  0.3863
   23CHL1   C18 1655   3.579   6.250   9.510  0.2563  0.3497  0.4351
   23CHL1  H18A 1656   3.633   6.184   9.438  1.6769  1.2060  0.6724
   23CHL1  H18B 1657   3.595   6.358   9.492  0.8223  0.4953  1.7273
   23CHL1  H18C 1658   3.619   6.237   9.613  0.0461  1.8981  0.7381
   23CHL1   C12 1659   3.351   6.347   9.566 -0.5544  0.1446 -0.3794
   23CHL1  H12A 1660   3.394   6.436   9.515 -0.1488  0.2841  0.1847
   23CHL1  H12B 1661   3.242   6.341   9.549 -0.4886 -0.8591 -0.5072
   23CHL1   C11 1662   3.361   6.349   9.721  0.0240  0.3239  0.3819
   23CHL1  H11A 1663   3.469   6.365   9.745  0.4302 -0.6776 -0.6722
   23CHL1  H11B 1664   3.301   6.435   9.758 -0.6615  0.4616 -0.9873
   23CHL1    C9 1665   3.325   6.209   9.784  0.9030 -0.1634 -0.9764
   23CHL1    H9 1666   3.221   6.196   9.747  0.7941  0.3798 -0.8724
   23CHL1   C10 1667   3.325   6.210   9.941  0.3696 -0.2761  0.2802
   23CHL1   C19 1668   3.454   6.261   9.992  0.9125 -0.3628  0.4981
   23CHL1  H19A 1669   3.445   6.283  10.101 -0.6297  0.4016  0.2471
   23CHL1  H19B 1670   3.543   6.206   9.955 -0.0125  0.2133 -2.8632
   23CHL1  H19C 1671   3.474   6.362   9.950 -1.0367  0.0794  0.5220
   23CHL1    C1 1672   3.208   6.296   9.991 -0.3449 -0.0749 -0.6002
   23CHL1   H1A 1673   3.227   6.404   9.975 -0.5697  0.1251  0.3912
   23CHL1   H1B 1674   3.112   6.277   9.939 -1.2855 -1.6656  1.5595
   23CHL1    C2 1675   3.171   6.281  10.141 -0.5684  0.5650 -0.0005
   23CHL1   H2A 1676   3.075   6.335  10.161 -0.1422  1.4737 -0.3309
   23CHL1   H2B 1677   3.253   6.312  10.208  1.6769 -1.9529 -1.4144
   23CHL1   C20 1678   3.439   6.254   9.233 -0.0508  0.4389  0.1642
   23CHL1   H20 1679   3.534   6.305   9.262 -0.1868  0.7517  0.0618
   23CHL1   C21 1680   3.354   6.377   9.229 -0.9026  0.2798  0.1669
   23CHL1  H21A 1681   3.248   6.355   9.205 -0.7271  1.2642 -1.7166
   23CHL1  H21B 1682   3.393   6.452   9.157  2.2904 -1.2427  0.1265
   23CHL1  H21C 1683   3.361   6.421   9.331  2.8861 -1.2451  0.7362
   23CHL1   C22 1684   3.433   6.185   9.097  0.1197 -0.1279 -0.0613
   23CHL1  H22A 1685   3.490   6.090   9.094 -1.0857 -0.8398 -1.7308
   23CHL1  H22B 1686   3.327   6.157   9.078 -0.1635 -0.1287  1.3998
   23CHL1   C23 1687   3.479   6.271   8.978  0.7076 -0.4537  0.6058
   23CHL1  H23A 1688   3.396   6.345   8.975 -0.4248 -1.7226 -1.1896
   23CHL1  H23B 1689   3.578   6.314   9.005  0.8580 -0.0588 -0.5180
   23CHL1   C24 1690   3.490   6.187   8.851 -0.0071  0.5591  0.0198
   23CHL1  H24A 1691   3.573   6.113   8.851  1.3967  2.0695 -0.9539
   23CHL1  H24B 1692   3.401   6.121   8.837  1.3301 -1.5670  0.9558
   23CHL1   C25 1693   3.504   6.266   8.722  0.5272 -0.2338 -0.0129
   23CHL1   H25 1694   3.421   6.339   8.709 -0.2300 -0.7611  1.5941
   23CHL1   C26 1695   3.632   6.362   8.717 -0.4467 -0.4907 -0.3383
   23CHL1  H26A 1696   3.732   6.317   8.701 -0.5919 -0.8058 -0.3529
   23CHL1  H26B 1697   3.623   6.444   8.643 -0.0030  0.8295  1.0105
   23CHL1  H26C 1698   3.640   6.410   8.817 -2.2507  1.3405 -1.0128
   23CHL1   C27 1699   3.532   6.162   8.610 -0.5860 -0.1248  0.1707
   23CHL1  H27A 1700   3.437   6.108   8.587  0.2061 -1.8284  0.7634
   23CHL1  H27B 1701   3.579   6.207   8.520  2.7405 -0.0068  1.8211
   23CHL1  H27C 1702   3.613   6.096   8.646  0.6218  2.0065  1.5345
   24CHL1    C3 1703   4.053   5.478  10.197  0.1158 -0.1850 -0.1917
   24CHL1    H3 1704   4.158   5.516  10.192 -0.3595  1.1973  0.1269
   24CHL1    O3 1705   4.000   5.492  10.328 -0.6045  0.4660  0.3159
   24CHL1   H3' 1706   3.910   5.461  10.324 -0.4988  0.1126  0.5753
   24CHL1    C4 1707   3.971   5.565  10.101 -0.4633 -0.2992 -0.3273
   24CHL1   H4A 1708   3.863   5.542  10.101 -0.5618  0.0420  1.4241
   24CHL1   H4B 1709   3.977   5.671  10.135  2.2550 -0.1168 -1.1392
   24CHL1    C5 1710   4.033   5.549   9.963 -0.0224  0.4206  0.5250
   24CHL1    C6 1711   4.095   5.649   9.899 -0.6489  0.0218 -0.0414
   24CHL1    H6 1712   4.112   5.746   9.948  0.9640 -0.2833  0.0619
   24CHL1    C7 1713   4.158   5.624   9.765  0.0071 -0.7283  0.1346
   24CHL1   H7A 1714   4.152   5.717   9.705 -0.6568 -1.5861 -1.1942
   24CHL1   H7B 1715   4.265   5.602   9.784  0.3830 -0.5702 -1.6256
   24CHL1    C8 1716   4.078   5.510   9.685  0.4591 -0.5470  0.1499
   24CHL1    H8 1717   3.978   5.547   9.654 -0.0553 -1.2590  0.9361
   24CHL1   C14 1718   4.157   5.477   9.563 -0.5173 -0.0621  0.2120
   24CHL1   H14 1719   4.251   5.427   9.596 -0.9689  0.2897  2.1456
   24CHL1   C15 1720   4.195   5.582   9.460 -0.2152 -0.3418 -0.3222
   24CHL1  H15A 1721   4.104   5.643   9.443 -0.8468 -1.3583 -0.6880
   24CHL1  H15B 1722   4.275   5.649   9.497  0.2890 -0.6344 -0.8699
   24CHL1   C16 1723   4.222   5.507   9.332 -0.4563 -0.0158  0.0009
   24CHL1  H16A 1724   4.162   5.551   9.249  1.3096 -0.0194 -1.3397
   24CHL1  H16B 1725   4.322   5.505   9.283 -0.6923  0.1417 -0.4985
   24CHL1   C17 1726   4.185   5.361   9.354 -0.2614  0.6796  0.7194
   24CHL1   H17 1727   4.281   5.316   9.386  0.2935  1.7885  0.6481
   24CHL1   C13 1728   4.096   5.357   9.482  0.0188 -0.8830 -0.8943
   24CHL1   C18 1729   3.958   5.397   9.430  1.2135 -0.3608  0.1435
   24CHL1  H18A 1730   3.884   5.428   9.506  2.4927  0.4354  1.1183
   24CHL1  H18B 1731   3.970   5.487   9.366  0.7145 -2.1722 -2.7121
   24CHL1  H18C 1732   3.902   5.312   9.384 -1.9713  1.5787  0.1440
   24CHL1   C12 1733   4.098   5.230   9.568 -0.0857 -0.3291  0.8781
   24CHL1  H12A 1734   4.048   5.148   9.512 -1.3716  0.2667  1.1099
   24CHL1  H12B 1735   4.197   5.203   9.611 -0.3068 -0.9331  1.0082
   24CHL1   C11 1736   4.017   5.257   9.693 -0.3864  0.0983 -0.1945
   24CHL1  H11A 1737   3.910   5.282   9.678 -0.4544  2.0588  2.7548
   24CHL1  H11B 1738   4.020   5.165   9.755 -1.4274  0.1119 -0.1046
   24CHL1    C9 1739   4.072   5.386   9.767  0.0884  0.6519 -0.0311
   24CHL1    H9 1740   4.177   5.360   9.790 -0.1866 -0.2672  0.2127
   24CHL1   C10 1741   4.009   5.405   9.907 -0.4782  0.2643 -0.5392
   24CHL1   C19 1742   3.857   5.371   9.908  0.2795 -0.2708 -0.0497
   24CHL1  H19A 1743   3.815   5.378  10.010  2.1381  1.6268  0.6519
   24CHL1  H19B 1744   3.797   5.436   9.841  0.3862 -2.2009 -2.1553
   24CHL1  H19C 1745   3.849   5.265   9.874 -0.1769 -0.4367  0.5663
   24CHL1    C1 1746   4.077   5.309  10.008  0.8071  0.5645 -0.0079
   24CHL1   H1A 1747   4.053   5.205   9.978  3.1051  0.2021 -0.8091
   24CHL1   H1B 1748   4.188   5.310  10.002  0.7766  1.8880 -0.8322
   24CHL1    C2 1749   4.041   5.325  10.157 -0.7874 -0.1009  0.4147
   24CHL1   H2A 1750   4.114   5.268  10.218  2.9505  2.4676 -1.2935
   24CHL1   H2B 1751   3.938   5.292  10.182 -1.2148 -1.0149 -2.2010
   24CHL1   C20 1752   4.146   5.277   9.234  0.1687  0.7922  0.1163
   24CHL1   H20 1753   4.092   5.185   9.265 -1.3602  0.7406 -2.3432
   24CHL1   C21 1754   4.279   5.224   9.171  0.2633  0.6220  0.7002
   24CHL1  H21A 1755   4.329   5.305   9.113 -1.0380  0.5714 -0.5374
   24CHL1  H21B 1756   4.252   5.150   9.093  1.3213  1.0767 -0.1249
   24CHL1  H21C 1757   4.345   5.166   9.240 -0.9729 -1.1974  0.4132
   24CHL1   C22 1758   4.067   5.355   9.127 -0.3148 -0.1534 -0.3445
   24CHL1  H22A 1759   4.006   5.434   9.175  0.9851  1.6344 -1.4954
   24CHL1  H22B 1760   4.144   5.413   9.071 -0.8024 -0.7334 -1.6546
   24CHL1   C23 1761   3.975   5.277   9.039  0.5054  0.3065 -0.6786
   24CHL1  H23A 1762   4.021   5.182   9.005  1.7950  0.7727 -0.2748
   24CHL1  H23B 1763   3.880   5.247   9.089  2.3519 -3.3361  1.0612
   24CHL1   C24 1764   3.935   5.348   8.912  1.1560  1.1000 -0.0523
   24CHL1  H24A 1765   3.892   5.446   8.944 -0.9146  0.2899 -0.1657
   24CHL1  H24B 1766   4.027   5.360   8.852  2.4851 -0.3946  1.5894
   24CHL1   C25 1767   3.824   5.281   8.826  0.5626 -0.0137 -0.9526
   24CHL1   H25 1768   3.734   5.280   8.891  1.6376  3.3967  0.8541
   24CHL1   C26 1769   3.778   5.370   8.715 -0.7895 -0.3345  0.6132
   24CHL1  H26A 1770   3.717   5.456   8.750 -1.7364 -0.7495  0.0409
   24CHL1  H26B 1771   3.854   5.397   8.639  0.0127  1.1738  1.8921
   24CHL1  H26C 1772   3.700   5.314   8.660 -2.7226  0.1440  2.7422
   24CHL1   C27 1773   3.860   5.144   8.774  0.1717 -0.2683 -0.3799
   24CHL1  H27A 1774   3.947   5.150   8.705  0.1504  1.1980 -0.3095
   24CHL1  H27B 1775   3.891   5.076   8.856 -0.4289 -1.8322 -1.4046
   24CHL1  H27C 1776   3.770   5.096   8.730  0.1928 -0.0053 -0.7146
   25CHL1    C3 1777   2.420   0.605  10.265  0.4794 -0.6133 -1.1066
   25CHL1    H3 1778   2.520   0.648  10.246  0.4259  0.2869  0.4972
   25CHL1    O3 1779   2.388   0.582  10.403  0.0901  0.1310 -0.0981
   25CHL1   H3' 1780   2.370   0.489  10.418 -2.5586  0.6761  0.8470
   25CHL1    C4 1781   2.315   0.707  10.211  0.0443 -0.1159  0.3981
   25CHL1   H4A 1782   2.215   0.673  10.246 -0.7322  1.6690  0.0168
   25CHL1   H4B 1783   2.336   0.804  10.260  1.0043 -0.9095  1.6516
   25CHL1    C5 1784   2.317   0.718  10.057  0.6580 -0.4307 -0.1193
   25CHL1    C6 1785   2.313   0.839   9.992  0.1881 -0.4272 -0.3088
   25CHL1    H6 1786   2.320   0.930  10.054  2.0186 -0.9784  0.3573
   25CHL1    C7 1787   2.301   0.850   9.843 -1.1450 -0.2862  0.1064
   25CHL1   H7A 1788   2.209   0.908   9.817 -0.1318  0.8115 -1.2002
   25CHL1   H7B 1789   2.391   0.901   9.803  0.9642 -3.3910  0.5501
   25CHL1    C8 1790   2.284   0.719   9.772  0.5882  0.2223 -0.4853
   25CHL1    H8 1791   2.177   0.688   9.782  0.7370  0.3672  2.2216
   25CHL1   C14 1792   2.333   0.737   9.628 -0.4344  0.0394  0.4736
   25CHL1   H14 1793   2.437   0.774   9.642 -0.4708  0.1466  0.4596
   25CHL1   C15 1794   2.276   0.860   9.544 -0.3803  0.7225  0.1642
   25CHL1  H15A 1795   2.167   0.868   9.563 -0.2265  0.4062  1.2106
   25CHL1  H15B 1796   2.348   0.942   9.564  1.4101 -0.7558  0.0951
   25CHL1   C16 1797   2.289   0.815   9.397 -0.6316  0.3620  0.3351
   25CHL1  H16A 1798   2.185   0.794   9.363 -0.2266 -2.4202  0.5942
   25CHL1  H16B 1799   2.336   0.896   9.337  0.6528  0.8562  1.9378
   25CHL1   C17 1800   2.369   0.680   9.396  0.7370 -0.6775 -0.8282
   25CHL1   H17 1801   2.477   0.701   9.410  0.5569 -0.8128  0.9393
   25CHL1   C13 1802   2.326   0.610   9.540  1.2554 -0.7479  0.4860
   25CHL1   C18 1803   2.180   0.572   9.530 -0.4830 -0.2376 -0.2995
   25CHL1  H18A 1804   2.104   0.647   9.498 -0.5773 -0.1650  0.0865
   25CHL1  H18B 1805   2.170   0.478   9.473 -0.1227 -0.4569 -0.0117
   25CHL1  H18C 1806   2.134   0.543   9.627  0.4635 -0.8201 -0.0143
   25CHL1   C12 1807   2.406   0.503   9.597 -0.5607  0.6401 -0.2057
   25CHL1  H12A 1808   2.398   0.412   9.535  0.8585  1.2126 -1.2826
   25CHL1  H12B 1809   2.512   0.534   9.604  0.1869 -1.5786 -0.8544
   25CHL1   C11 1810   2.361   0.473   9.750  0.0960 -0.3543  0.1030
   25CHL1  H11A 1811   2.265   0.420   9.734  0.4036 -0.1047 -3.3748
   25CHL1  H11B 1812   2.444   0.410   9.786  1.0343  0.9842  0.3269
   25CHL1    C9 1813   2.360   0.602   9.838  0.0048  0.4749  0.4616
   25CHL1    H9 1814   2.466   0.637   9.837  0.2575 -0.2761  0.6055
   25CHL1   C10 1815   2.323   0.578   9.986 -0.1586 -0.2010  0.0109
   25CHL1   C19 1816   2.188   0.506   9.989 -0.1472 -0.5621 -0.2062
   25CHL1  H19A 1817   2.196   0.405   9.945 -1.9820 -0.9882  0.3395
   25CHL1  H19B 1818   2.137   0.503  10.088 -0.8695 -0.9811 -0.5836
   25CHL1  H19C 1819   2.125   0.556   9.913  2.2687  1.7689 -0.8433
   25CHL1    C1 1820   2.432   0.491  10.052  0.7985  0.0916  0.3718
   25CHL1   H1A 1821   2.449   0.390  10.008 -1.7451 -0.1546 -0.2075
   25CHL1   H1B 1822   2.534   0.529  10.032  2.2007 -2.6743  1.8382
   25CHL1    C2 1823   2.417   0.474  10.198 -0.6033 -0.1353  0.1827
   25CHL1   H2A 1824   2.501   0.410  10.231 -0.3633  0.2240  0.2714
   25CHL1   H2B 1825   2.327   0.411  10.216  1.4785 -2.9697  1.3720
   25CHL1   C20 1826   2.348   0.595   9.270 -0.3032  0.0567 -0.6437
   25CHL1   H20 1827   2.242   0.565   9.279  0.0667 -0.7036  2.3948
   25CHL1   C21 1828   2.442   0.469   9.274  0.4897 -0.0219  0.1934
   25CHL1  H21A 1829   2.460   0.440   9.168  0.9306 -0.2160  0.3155
   25CHL1  H21B 1830   2.380   0.392   9.324 -0.7695 -0.9407 -2.5916
   25CHL1  H21C 1831   2.538   0.476   9.330  0.2471 -2.3680  1.0288
   25CHL1   C22 1832   2.370   0.668   9.144 -0.3822 -0.1341  0.2349
   25CHL1  H22A 1833   2.339   0.597   9.064 -0.6577 -0.3315  0.5117
   25CHL1  H22B 1834   2.312   0.763   9.146  1.1383  0.8193  0.6044
   25CHL1   C23 1835   2.518   0.702   9.125 -0.0669  0.2189 -0.1308
   25CHL1  H23A 1836   2.565   0.760   9.207  0.3987 -0.2253 -0.0767
   25CHL1  H23B 1837   2.592   0.619   9.124 -0.1889  0.1149 -0.7358
   25CHL1   C24 1838   2.525   0.791   8.998  0.2245 -0.0163 -0.0365
   25CHL1  H24A 1839   2.486   0.720   8.921  2.4537 -0.5773 -0.7270
   25CHL1  H24B 1840   2.448   0.870   9.011  1.0761  1.1032 -1.4966
   25CHL1   C25 1841   2.660   0.847   8.954 -0.4545 -0.2922 -0.8922
   25CHL1   H25 1842   2.729   0.762   8.970 -0.4121  0.1935  2.1416
   25CHL1   C26 1843   2.669   0.889   8.804 -0.1836  0.5779 -0.2464
   25CHL1  H26A 1844   2.763   0.944   8.781  2.3790 -3.1174  0.4243
   25CHL1  H26B 1845   2.651   0.800   8.740 -2.7298 -0.6316  1.9503
   25CHL1  H26C 1846   2.581   0.956   8.797  1.3415  2.6337 -0.5389
   25CHL1   C27 1847   2.700   0.958   9.053  0.1190  0.4776 -0.5623
   25CHL1  H27A 1848   2.780   1.026   9.017  0.8470 -0.5363 -0.9169
   25CHL1  H27B 1849   2.607   1.008   9.089 -0.3644 -1.3233  0.8315
   25CHL1  H27C 1850   2.743   0.905   9.141 -0.9236 -1.3735 -1.1111
   26CHL1    C3 1851   1.379   2.754  10.147  0.5776  0.3249  0.4590
   26CHL1    H3 1852   1.445   2.672  10.112 -0.0612 -0.0650  0.1406
   26CHL1    O3 1853   1.390   2.789  10.286  0.1364  0.1225 -0.0114
   26CHL1   H3' 1854   1.331   2.863  10.299 -0.1422 -0.3575  1.6602
   26CHL1    C4 1855   1.398   2.881  10.058  0.3076  0.0468 -0.5819
   26CHL1   H4A 1856   1.321   2.957  10.083  1.6349  1.3486 -0.2572
   26CHL1   H4B 1857   1.501   2.918  10.079 -0.0249  1.1655 -0.8668
   26CHL1    C5 1858   1.392   2.852   9.912  0.1209 -0.3006  0.3753
   26CHL1    C6 1859   1.499   2.885   9.834 -0.0649  0.0895  0.1104
   26CHL1    H6 1860   1.584   2.935   9.882 -0.9999  0.2854  1.6351
   26CHL1    C7 1861   1.495   2.868   9.680 -0.2884 -0.1899  0.3726
   26CHL1   H7A 1862   1.536   2.958   9.629 -0.4938 -0.4942 -0.3434
   26CHL1   H7B 1863   1.547   2.775   9.649  0.0421 -0.0688  0.5585
   26CHL1    C8 1864   1.345   2.844   9.624  0.3803  0.1995  0.7476
   26CHL1    H8 1865   1.285   2.937   9.627 -1.9215 -1.2395  2.4911
   26CHL1   C14 1866   1.358   2.801   9.476 -0.6720 -0.0231  0.7734
   26CHL1   H14 1867   1.417   2.707   9.476 -0.4712  0.0332 -1.4791
   26CHL1   C15 1868   1.432   2.892   9.379 -0.4946 -0.5485 -0.0124
   26CHL1  H15A 1869   1.394   2.996   9.379  1.7217  0.3052 -0.8791
   26CHL1  H15B 1870   1.542   2.890   9.387  0.2063  3.2927 -4.3328
   26CHL1   C16 1871   1.377   2.835   9.238 -0.3737 -0.7911  0.5467
   26CHL1  H16A 1872   1.321   2.918   9.191 -0.2736 -1.8849 -1.6159
   26CHL1  H16B 1873   1.460   2.801   9.173 -0.2115  0.5613  0.0265
   26CHL1   C17 1874   1.268   2.730   9.273 -0.1258  0.4245  0.0076
   26CHL1   H17 1875   1.324   2.634   9.275 -0.5480  0.1829  0.8245
   26CHL1   C13 1876   1.226   2.760   9.419  0.7028  0.4689 -0.5494
   26CHL1   C18 1877   1.119   2.865   9.422  0.5430 -0.1449  0.0128
   26CHL1  H18A 1878   1.016   2.830   9.398 -0.0643  1.8912 -0.5173
   26CHL1  H18B 1879   1.117   2.912   9.522  0.8799  2.1546 -0.9864
   26CHL1  H18C 1880   1.145   2.950   9.354  0.3703  0.2736  0.4698
   26CHL1   C12 1881   1.183   2.637   9.500  0.0808 -0.4822 -0.1270
   26CHL1  H12A 1882   1.086   2.601   9.457 -0.0221 -0.0211 -0.2861
   26CHL1  H12B 1883   1.257   2.555   9.512  0.8291  0.1493 -0.4210
   26CHL1   C11 1884   1.162   2.666   9.648 -0.0588 -0.5026 -0.3062
   26CHL1  H11A 1885   1.065   2.719   9.658 -0.0795 -0.7031  0.6713
   26CHL1  H11B 1886   1.156   2.570   9.702 -0.9113 -1.6982 -2.4279
   26CHL1    C9 1887   1.286   2.737   9.712 -0.0627 -0.0350  0.4797
   26CHL1    H9 1888   1.361   2.658   9.729 -1.8640 -1.5203  1.9396
   26CHL1   C10 1889   1.267   2.786   9.859  0.3242 -0.1969 -0.4749
   26CHL1   C19 1890   1.157   2.893   9.867  0.3355  0.2519 -0.2952
   26CHL1  H19A 1891   1.065   2.853   9.818 -0.3629  0.9323  0.4380
   26CHL1  H19B 1892   1.129   2.915   9.972 -1.6544 -0.5736 -0.6069
   26CHL1  H19C 1893   1.190   2.980   9.807  2.5970 -0.1315  0.2761
   26CHL1    C1 1894   1.225   2.669   9.954 -0.1970  0.5415  0.8373
   26CHL1   H1A 1895   1.123   2.628   9.933  0.0657  0.5703 -0.5588
   26CHL1   H1B 1896   1.299   2.590   9.929  0.0421  1.1392 -0.4302
   26CHL1    C2 1897   1.240   2.701  10.107  0.1085  0.0639  0.1836
   26CHL1   H2A 1898   1.220   2.603  10.155 -1.9741 -0.4036 -1.4867
   26CHL1   H2B 1899   1.159   2.770  10.137  0.1143  0.3215 -0.3656
   26CHL1   C20 1900   1.159   2.719   9.165 -0.1138  0.2784 -0.2125
   26CHL1   H20 1901   1.103   2.814   9.167 -0.3366  0.1431  0.1071
   26CHL1   C21 1902   1.064   2.599   9.191 -0.0580 -0.0648  0.2062
   26CHL1  H21A 1903   1.121   2.507   9.216 -0.1655  0.5031  2.7488
   26CHL1  H21B 1904   1.017   2.566   9.096  1.7242 -1.4362 -0.2601
   26CHL1  H21C 1905   0.987   2.627   9.266 -0.3476 -1.1556  0.3379
   26CHL1   C22 1906   1.216   2.707   9.023 -0.1110 -0.5640 -0.2330
   26CHL1  H22A 1907   1.289   2.791   9.010  0.7334 -1.3387 -0.5654
   26CHL1  H22B 1908   1.275   2.614   9.012 -0.1301 -0.4903 -1.0105
   26CHL1   C23 1909   1.115   2.714   8.907 -0.1260 -0.3260 -0.1560
   26CHL1  H23A 1910   1.168   2.692   8.812  1.9910  1.6507  0.4783
   26CHL1  H23B 1911   1.042   2.630   8.906  0.5723 -0.9857  1.0888
   26CHL1   C24 1912   1.040   2.841   8.898  0.2537 -0.4958  0.9588
   26CHL1  H24A 1913   0.992   2.874   8.993  0.5883 -0.8784  1.2678
   26CHL1  H24B 1914   1.115   2.918   8.871 -2.7315  2.1735 -0.4775
   26CHL1   C25 1915   0.933   2.845   8.785  0.6061 -0.3596  0.1262
   26CHL1   H25 1916   0.855   2.770   8.812 -0.8210  0.0730 -2.4455
   26CHL1   C26 1917   0.853   2.975   8.778 -0.3508  0.2555 -0.5246
   26CHL1  H26A 1918   0.780   2.991   8.861  1.6585  1.3370  1.1330
   26CHL1  H26B 1919   0.925   3.060   8.786 -1.1293  0.9954 -1.2194
   26CHL1  H26C 1920   0.804   2.972   8.679  1.9244 -2.3128 -1.6896
   26CHL1   C27 1921   0.991   2.822   8.645  0.1711  0.3760 -0.5923
   26CHL1  H27A 1922   1.057   2.909   8.623  1.1926  0.0235  0.9173
   26CHL1  H27B 1923   1.048   2.727   8.634 -0.0142  0.0737  0.8306
   26CHL1  H27C 1924   0.911   2.839   8.570 -0.8425  0.0775  0.4057
   27CHL1    C3 1925   5.892   4.794  10.416  0.3559 -0.0032 -0.6616
   27CHL1    H3 1926   6.002   4.806  10.419  0.3618 -0.1219  1.7261
   27CHL1    O3 1927   5.841   4.817  10.550 -0.3082 -0.1450  0.1117
   27CHL1   H3' 1928   5.755   4.859  10.537  0.1365  0.6452 -0.3490
   27CHL1    C4 1929   5.827   4.898  10.321 -0.0296 -0.1364  0.1520
   27CHL1   H4A 1930   5.718   4.880  10.328  0.2508 -1.8914  0.6272
   27CHL1   H4B 1931   5.842   4.999  10.363  0.3400  0.6902 -1.8650
   27CHL1    C5 1932   5.866   4.890  10.176 -0.7246 -0.2300 -0.5447
   27CHL1    C6 1933   5.933   4.991  10.120  0.8663 -0.3411  0.0291
   27CHL1    H6 1934   5.943   5.082  10.180 -0.2790 -0.5897  0.6233
   27CHL1    C7 1935   5.974   4.988   9.972  0.2857  0.1904  0.3238
   27CHL1   H7A 1936   5.929   5.073   9.916 -0.8428 -0.5199  0.1249
   27CHL1   H7B 1937   6.085   4.987   9.971  0.2939 -0.8918  0.5773
   27CHL1    C8 1938   5.918   4.866   9.894  0.2501 -0.0221  0.1426
   27CHL1    H8 1939   5.809   4.880   9.878  0.2777 -0.5294 -0.5190
   27CHL1   C14 1940   5.996   4.854   9.771  0.0652 -0.5204 -0.6649
   27CHL1   H14 1941   6.100   4.843   9.807 -0.2955 -0.9625  0.2956
   27CHL1   C15 1942   6.012   4.979   9.678 -0.7245  0.0407  0.1092
   27CHL1  H15A 1943   5.913   5.026   9.659  0.4548  2.1001 -1.4965
   27CHL1  H15B 1944   6.074   5.060   9.721 -2.0743  0.4732  1.3105
   27CHL1   C16 1945   6.065   4.921   9.552  0.2156 -0.1645 -0.0230
   27CHL1  H16A 1946   6.002   4.954   9.466  1.1478 -1.1264 -1.1099
   27CHL1  H16B 1947   6.171   4.946   9.527  0.2567  0.1368  0.4398
   27CHL1   C17 1948   6.067   4.763   9.574 -0.4836  1.4617  0.2162
   27CHL1   H17 1949   6.167   4.732   9.612  0.6170  1.5808 -2.3622
   27CHL1   C13 1950   5.965   4.730   9.686 -0.2065 -0.6316  0.0546
   27CHL1   C18 1951   5.819   4.739   9.632  0.0978  0.0648  0.1165
   27CHL1  H18A 1952   5.741   4.741   9.711 -0.9335 -3.3638 -0.6157
   27CHL1  H18B 1953   5.822   4.828   9.567 -0.2108 -0.6753 -0.9289
   27CHL1  H18C 1954   5.800   4.648   9.571  1.1198  0.4915 -0.8767
   27CHL1   C12 1955   5.999   4.604   9.774 -0.1483  0.1617  0.1976
   27CHL1  H12A 1956   5.976   4.509   9.721 -2.3118  1.1675 -0.7931
   27CHL1  H12B 1957   6.103   4.610   9.813  0.7480  2.0831 -2.1763
   27CHL1   C11 1958   5.920   4.604   9.903  0.4999 -0.0902  0.8720
   27CHL1  H11A 1959   5.814   4.583   9.874  0.8079  0.3490 -0.6383
   27CHL1  H11B 1960   5.955   4.508   9.946  1.4339  0.0802  0.5059
   27CHL1    C9 1961   5.934   4.736   9.982 -0.1981 -0.4583  0.1045
   27CHL1    H9 1962   6.041   4.753  10.006  0.2394  0.7484 -2.3686
   27CHL1   C10 1963   5.848   4.755  10.110  0.3975  0.1539  0.3931
   27CHL1   C19 1964   5.697   4.735  10.077 -0.0970 -0.3419  0.2959
   27CHL1  H19A 1965   5.675   4.631  10.044 -1.1229 -0.1499  0.3426
   27CHL1  H19B 1966   5.633   4.753  10.166 -1.5049  2.4728 -1.1533
   27CHL1  H19C 1967   5.670   4.809  10.000  0.3464 -1.5262 -1.0382
   27CHL1    C1 1968   5.890   4.643  10.210 -0.4740  0.1482  0.0253
   27CHL1   H1A 1969   5.837   4.554  10.170 -1.6606 -1.0586  3.8952
   27CHL1   H1B 1970   6.000   4.628  10.202 -0.3053  1.7548 -1.4252
   27CHL1    C2 1971   5.855   4.660  10.357  0.5225 -0.2074 -0.4246
   27CHL1   H2A 1972   5.894   4.580  10.422 -1.6992  0.4240  1.8508
   27CHL1   H2B 1973   5.745   4.642  10.351  0.3997  0.3418  0.0383
   27CHL1   C20 1974   6.061   4.687   9.437 -0.3986  0.1182  0.4021
   27CHL1   H20 1975   5.962   4.711   9.393 -0.7135 -1.0680  0.4359
   27CHL1   C21 1976   6.066   4.535   9.452 -0.1899  0.0045 -0.6726
   27CHL1  H21A 1977   6.155   4.504   9.509 -1.7393 -2.5149  0.5573
   27CHL1  H21B 1978   6.078   4.486   9.353  0.2070 -0.9302 -0.1684
   27CHL1  H21C 1979   5.974   4.507   9.508  0.8132 -1.2793  0.3539
   27CHL1   C22 1980   6.164   4.727   9.338 -0.4300  0.5676  0.4959
   27CHL1  H22A 1981   6.185   4.836   9.346  2.0382  0.1564  0.5896
   27CHL1  H22B 1982   6.262   4.679   9.356 -0.2460  0.3869 -0.9111
   27CHL1   C23 1983   6.149   4.694   9.189  0.5122  0.0294  0.5820
   27CHL1  H23A 1984   6.137   4.584   9.174 -0.4095  0.5607 -4.0776
   27CHL1  H23B 1985   6.052   4.739   9.157  0.0871 -0.2798  1.4152
   27CHL1   C24 1986   6.262   4.746   9.105  0.3410 -0.0752  0.3284
   27CHL1  H24A 1987   6.273   4.855   9.127  1.1445 -0.2597  0.8962
   27CHL1  H24B 1988   6.357   4.699   9.140  0.1866 -0.6351  0.0076
   27CHL1   C25 1989   6.254   4.725   8.955  0.5839 -0.7932  0.4926
   27CHL1   H25 1990   6.163   4.785   8.933  0.1158 -0.9331  1.9271
   27CHL1   C26 1991   6.388   4.776   8.890 -0.0517  0.5366 -0.2919
   27CHL1  H26A 1992   6.416   4.875   8.932 -0.8614  0.2984  0.8840
   27CHL1  H26B 1993   6.460   4.697   8.918  0.0253  1.2029  1.5775
   27CHL1  H26C 1994   6.380   4.778   8.779 -0.6554 -0.6932 -0.2795
   27CHL1   C27 1995   6.236   4.578   8.908 -0.1543 -0.1010 -0.1880
   27CHL1  H27A 1996   6.246   4.564   8.799 -0.8150 -0.3648 -0.2219
   27CHL1  H27B 1997   6.316   4.521   8.961 -2.0068 -0.2071  2.7814
   27CHL1  H27C 1998   6.135   4.545   8.942 -0.4586  0.3311 -0.6687
   28CHL1    C3 1999   5.485   4.331  10.251 -0.5726  0.6057 -0.6503
   28CHL1    H3 2000   5.381   4.366  10.264 -0.4220  0.1036  2.8181
   28CHL1    O3 2001   5.533   4.325  10.387  0.0807 -0.3566  0.3919
   28CHL1   H3' 2002   5.613   4.272  10.381  1.1427  1.3038 -1.7358
   28CHL1    C4 2003   5.479   4.184  10.199 -0.0350 -0.2594  0.4700
   28CHL1   H4A 2004   5.580   4.140  10.215  0.5108  0.4564 -0.8562
   28CHL1   H4B 2005   5.410   4.125  10.263  1.0953 -0.6765  1.3504
   28CHL1    C5 2006   5.437   4.172  10.057 -0.7452 -0.6317  0.2447
   28CHL1    C6 2007   5.342   4.084  10.022 -0.3580 -0.2550  0.5347
   28CHL1    H6 2008   5.281   4.039  10.102  0.3997 -0.4485  1.0156
   28CHL1    C7 2009   5.299   4.067   9.878 -0.1405 -0.1729  0.2895
   28CHL1   H7A 2010   5.273   3.963   9.852 -0.4774  0.9149 -4.7504
   28CHL1   H7B 2011   5.206   4.120   9.847 -1.2802 -2.3268 -0.1306
   28CHL1    C8 2012   5.408   4.115   9.777 -0.7206 -0.4185 -0.1500
   28CHL1    H8 2013   5.502   4.059   9.799  0.2534  1.6362  1.2100
   28CHL1   C14 2014   5.361   4.094   9.637  0.1706  0.1369  0.1019
   28CHL1   H14 2015   5.266   4.149   9.618 -0.4507 -1.7903 -3.2225
   28CHL1   C15 2016   5.334   3.950   9.590  0.5321 -0.5133  0.5608
   28CHL1  H15A 2017   5.421   3.883   9.610  1.7120  0.1938 -1.7675
   28CHL1  H15B 2018   5.244   3.919   9.647 -1.3544  0.9496 -1.4816
   28CHL1   C16 2019   5.322   3.964   9.439 -0.4061 -0.1675  0.1348
   28CHL1  H16A 2020   5.379   3.881   9.392  1.3137 -0.0697  1.8981
   28CHL1  H16B 2021   5.217   3.956   9.405  0.0187  1.3476 -1.7103
   28CHL1   C17 2022   5.374   4.110   9.398  0.6094  0.1329  0.5849
   28CHL1   H17 2023   5.282   4.168   9.377 -1.2072 -1.9918  2.1648
   28CHL1   C13 2024   5.454   4.153   9.522 -0.0471  0.7028 -0.8482
   28CHL1   C18 2025   5.593   4.084   9.528 -0.5479  0.2244  0.2136
   28CHL1  H18A 2026   5.645   4.109   9.623 -0.9583  0.0987  0.4738
   28CHL1  H18B 2027   5.593   3.973   9.522 -1.1372  0.1857  0.7191
   28CHL1  H18C 2028   5.657   4.133   9.452  0.6202 -1.0824  0.3195
   28CHL1   C12 2029   5.467   4.306   9.562 -0.1862 -0.7227 -0.4853
   28CHL1  H12A 2030   5.538   4.344   9.485  0.6466  0.6380  0.8886
   28CHL1  H12B 2031   5.371   4.359   9.547 -0.7723 -0.4634  3.2620
   28CHL1   C11 2032   5.510   4.344   9.708  0.6199 -0.3303 -0.7314
   28CHL1  H11A 2033   5.617   4.315   9.710  0.6862 -0.1010  1.1972
   28CHL1  H11B 2034   5.502   4.453   9.725  0.6209 -0.4301 -0.0421
   28CHL1    C9 2035   5.440   4.263   9.815  0.8779  0.5317  0.4171
   28CHL1    H9 2036   5.341   4.310   9.830  0.9485  1.3938 -1.5232
   28CHL1   C10 2037   5.513   4.267   9.954 -0.3194 -0.2657 -1.1719
   28CHL1   C19 2038   5.666   4.222   9.929  0.1316  0.8201  0.3397
   28CHL1  H19A 2039   5.723   4.297   9.870 -0.6642 -0.6497 -2.5008
   28CHL1  H19B 2040   5.709   4.196  10.027 -0.3135 -0.5329  0.1915
   28CHL1  H19C 2041   5.670   4.129   9.868 -1.8550 -0.1585  1.5915
   28CHL1    C1 2042   5.506   4.406  10.021 -0.3214  0.4677 -0.0847
   28CHL1   H1A 2043   5.563   4.481   9.963  1.3385 -1.2316 -0.7785
   28CHL1   H1B 2044   5.397   4.430  10.015 -0.7627 -1.4431 -0.6051
   28CHL1    C2 2045   5.568   4.419  10.166 -0.3415  0.5145 -0.1150
   28CHL1   H2A 2046   5.569   4.521  10.209  1.2553  0.1176  0.8728
   28CHL1   H2B 2047   5.676   4.394  10.162 -0.3244  0.1418  1.6757
   28CHL1   C20 2048   5.445   4.111   9.263  0.1590  0.4145 -0.6753
   28CHL1   H20 2049   5.534   4.046   9.273 -0.8152 -0.9642 -0.7483
   28CHL1   C21 2050   5.501   4.241   9.207 -0.8784  0.4502 -0.2393
   28CHL1  H21A 2051   5.427   4.324   9.209 -1.3871 -0.0131  0.2517
   28CHL1  H21B 2052   5.538   4.234   9.102  0.9838 -1.6682  0.4893
   28CHL1  H21C 2053   5.588   4.284   9.261 -0.6213 -1.2262  0.7385
   28CHL1   C22 2054   5.358   4.049   9.153  0.1461  0.5971  0.0373
   28CHL1  H22A 2055   5.416   4.045   9.058  1.5767  1.6208  0.8195
   28CHL1  H22B 2056   5.325   3.944   9.169 -1.6728  1.1829  0.2860
   28CHL1   C23 2057   5.216   4.114   9.132 -0.3652 -1.0994  0.4179
   28CHL1  H23A 2058   5.157   4.128   9.225 -0.9425 -1.7185  0.1528
   28CHL1  H23B 2059   5.227   4.217   9.092  0.6290 -0.4567  2.2141
   28CHL1   C24 2060   5.130   4.021   9.034 -0.8187  0.0252  0.5800
   28CHL1  H24A 2061   5.206   4.005   8.955 -1.2901  1.2480 -0.1413
   28CHL1  H24B 2062   5.102   3.924   9.083 -1.2895 -0.4131 -0.5281
   28CHL1   C25 2063   5.010   4.103   8.982  0.0395  0.2082 -0.0757
   28CHL1   H25 2064   5.036   4.209   8.959  0.1050  0.2805  0.3214
   28CHL1   C26 2065   4.967   4.039   8.845  0.1877  0.1880 -0.1709
   28CHL1  H26A 2066   4.862   4.061   8.817 -0.0768  0.9460  1.3147
   28CHL1  H26B 2067   5.040   4.069   8.767  0.2522  0.3401 -0.0537
   28CHL1  H26C 2068   4.987   3.930   8.854 -2.9601 -0.6583 -1.8327
   28CHL1   C27 2069   4.886   4.109   9.079  0.0228  0.7679 -0.3572
   28CHL1  H27A 2070   4.814   4.190   9.057 -0.3412  0.3704 -0.6392
   28CHL1  H27B 2071   4.828   4.015   9.078 -0.4128  0.9073  2.7879
   28CHL1  H27C 2072   4.911   4.132   9.185 -0.7124 -1.0221  0.2321
   29CHL1    C3 2073   0.616   1.766   6.833 -0.3811  0.2089 -0.6884
   29CHL1    H3 2074   0.722   1.732   6.822  0.3382  2.0081  0.3178
   29CHL1    O3 2075   0.584   1.795   6.701 -0.4454 -0.4266  0.0617
   29CHL1   H3' 2076   0.503   1.848   6.705  1.3055  2.5778 -0.9628
   29CHL1    C4 2077   0.514   1.660   6.894  0.6116 -0.7931  0.3270
   29CHL1   H4A 2078   0.409   1.687   6.872  1.0916 -0.9444 -2.5294
   29CHL1   H4B 2079   0.541   1.576   6.827  0.2818  0.7620 -1.8905
   29CHL1    C5 2080   0.521   1.645   7.045 -0.1446 -0.9344 -0.2910
   29CHL1    C6 2081   0.530   1.519   7.100  0.3989 -0.7106  0.0520
   29CHL1    H6 2082   0.530   1.435   7.028  1.1147 -2.6302  2.1660
   29CHL1    C7 2083   0.539   1.487   7.242  0.1118 -0.5348  0.5790
   29CHL1   H7A 2084   0.466   1.407   7.264 -2.5710  0.4502 -3.5799
   29CHL1   H7B 2085   0.639   1.457   7.282  0.5938  1.0038  0.5920
   29CHL1    C8 2086   0.512   1.615   7.320 -0.1664 -1.5177 -0.2260
   29CHL1    H8 2087   0.401   1.623   7.328 -0.3533 -2.9879 -0.8583
   29CHL1   C14 2088   0.573   1.591   7.463 -0.0463  0.0150 -0.1510
   29CHL1   H14 2089   0.683   1.597   7.449  0.0663  0.4509  0.8076
   29CHL1   C15 2090   0.565   1.457   7.544 -0.6903 -0.0050  0.1267
   29CHL1  H15A 2091   0.464   1.415   7.528 -0.4375  0.2789 -2.8186
   29CHL1  H15B 2092   0.644   1.386   7.510 -0.9590 -0.9960  1.4817
   29CHL1   C16 2093   0.584   1.495   7.694  0.1799 -0.0263  0.0837
   29CHL1  H16A 2094   0.484   1.473   7.737  0.5356  0.4275  1.1715
   29CHL1  H16B 2095   0.666   1.437   7.742  0.2302  1.0424  1.3523
   29CHL1   C17 2096   0.608   1.650   7.694  0.2193  0.3980  0.1486
   29CHL1   H17 2097   0.716   1.660   7.669 -0.5243  1.5942 -3.1329
   29CHL1   C13 2098   0.542   1.704   7.565  0.2167  0.4458  0.8654
   29CHL1   C18 2099   0.387   1.719   7.578  0.4796 -0.0829  0.4989
   29CHL1  H18A 2100   0.359   1.777   7.668  1.9440  1.6241 -0.0868
   29CHL1  H18B 2101   0.337   1.765   7.490  1.6148  2.3508  1.0453
   29CHL1  H18C 2102   0.352   1.614   7.590  3.1716 -1.0535  0.6468
   29CHL1   C12 2103   0.604   1.833   7.513 -0.2519 -0.7171  0.8027
   29CHL1  H12A 2104   0.580   1.916   7.583  1.9009 -1.5935  2.7045
   29CHL1  H12B 2105   0.715   1.827   7.514 -0.1361  0.3792 -0.9011
   29CHL1   C11 2106   0.559   1.870   7.372 -0.1898  0.5712  0.1321
   29CHL1  H11A 2107   0.451   1.895   7.388  0.2407  1.7044  1.4581
   29CHL1  H11B 2108   0.602   1.960   7.323  1.7233 -0.4680 -0.1850
   29CHL1    C9 2109   0.573   1.747   7.264  0.3466 -0.2780 -0.1913
   29CHL1    H9 2110   0.683   1.729   7.259  0.5262  0.0686  1.8639
   29CHL1   C10 2111   0.523   1.770   7.125 -0.4854  0.6937 -0.7077
   29CHL1   C19 2112   0.389   1.835   7.121 -0.3850  0.1719  0.5829
   29CHL1  H19A 2113   0.317   1.777   7.182 -1.2512 -1.3343 -1.7142
   29CHL1  H19B 2114   0.395   1.940   7.158  2.4621  0.3061 -0.0611
   29CHL1  H19C 2115   0.353   1.832   7.016  0.0162 -2.4449  0.4603
   29CHL1    C1 2116   0.626   1.871   7.064 -0.2732 -0.2058 -0.1187
   29CHL1   H1A 2117   0.621   1.966   7.122 -1.3736 -0.0993 -0.3713
   29CHL1   H1B 2118   0.726   1.838   7.098  0.3606  2.5355  0.9661
   29CHL1    C2 2119   0.616   1.902   6.913  0.5850  0.6754  0.1740
   29CHL1   H2A 2120   0.710   1.949   6.878  2.0116 -1.6548  0.5990
   29CHL1   H2B 2121   0.522   1.959   6.899 -0.3191 -0.9646 -0.7004
   29CHL1   C20 2122   0.586   1.727   7.822  0.1007  0.6972 -0.1526
   29CHL1   H20 2123   0.539   1.825   7.800 -2.9027 -0.4761  0.5217
   29CHL1   C21 2124   0.718   1.728   7.900 -0.2639 -0.5639 -0.3026
   29CHL1  H21A 2125   0.794   1.791   7.849  2.0790 -2.8276  0.2306
   29CHL1  H21B 2126   0.772   1.634   7.921  1.1162  0.1682 -0.4421
   29CHL1  H21C 2127   0.695   1.780   7.996 -3.0283 -2.2291  0.0543
   29CHL1   C22 2128   0.474   1.664   7.915  0.0234  0.0075 -0.3193
   29CHL1  H22A 2129   0.380   1.634   7.864 -0.6609  1.2503  0.1838
   29CHL1  H22B 2130   0.522   1.577   7.965  1.4120  1.0812  0.2678
   29CHL1   C23 2131   0.421   1.757   8.019  0.0478 -0.2269 -0.0322
   29CHL1  H23A 2132   0.504   1.784   8.088 -0.6741 -2.4717  1.8893
   29CHL1  H23B 2133   0.381   1.847   7.969 -1.5786 -0.5887  0.5294
   29CHL1   C24 2134   0.313   1.690   8.115 -0.5344  0.2463 -0.0855
   29CHL1  H24A 2135   0.270   1.770   8.178  1.2317  0.1809  1.2572
   29CHL1  H24B 2136   0.238   1.637   8.052 -0.4445  0.1896 -0.1452
   29CHL1   C25 2137   0.368   1.583   8.215 -0.1010  0.3018 -0.3036
   29CHL1   H25 2138   0.440   1.522   8.156 -0.9588 -1.7887  0.7197
   29CHL1   C26 2139   0.445   1.648   8.330  0.2172  0.2092  1.1033
   29CHL1  H26A 2140   0.509   1.569   8.374 -0.7672 -1.9069 -1.0266
   29CHL1  H26B 2141   0.506   1.734   8.296  0.6233 -0.7250 -0.6970
   29CHL1  H26C 2142   0.372   1.682   8.406 -0.4017 -0.1541  0.6837
   29CHL1   C27 2143   0.261   1.490   8.263  0.0124  0.8209 -0.8083
   29CHL1  H27A 2144   0.191   1.537   8.335 -0.6656  1.8452 -2.1029
   29CHL1  H27B 2145   0.193   1.452   8.184  0.8276  0.1845 -1.2246
   29CHL1  H27C 2146   0.321   1.411   8.314  0.2515  1.2776 -0.3756
   30CHL1    C3 2147   1.201   0.021   7.303 -0.3079 -0.2519  0.3794
   30CHL1    H3 2148   1.167  -0.078   7.339 -1.0373 -0.2070 -0.1733
   30CHL1    O3 2149   1.107   0.046   7.202  0.4844 -0.6005 -0.1251
   30CHL1   H3' 2150   1.136   0.123   7.153  1.7821 -1.3359 -0.5504
   30CHL1    C4 2151   1.189   0.133   7.412  0.5548  0.4734  0.0042
   30CHL1   H4A 2152   1.198   0.233   7.365  1.1525  0.9883  1.1786
   30CHL1   H4B 2153   1.086   0.126   7.451  0.2710 -1.5999 -0.9637
   30CHL1    C5 2154   1.291   0.103   7.523 -0.4862  0.3483  0.2567
   30CHL1    C6 2155   1.256   0.093   7.652  0.5612  0.1939  0.1527
   30CHL1    H6 2156   1.153   0.123   7.679  0.1833 -1.3188  0.5176
   30CHL1    C7 2157   1.347   0.060   7.759 -0.2786 -0.5722 -0.7442
   30CHL1   H7A 2158   1.314   0.115   7.850  2.9954  1.5275 -0.6724
   30CHL1   H7B 2159   1.337  -0.049   7.777  1.6113 -0.7017 -0.2885
   30CHL1    C8 2160   1.493   0.082   7.723 -0.0738 -0.1618  0.3481
   30CHL1    H8 2161   1.515   0.191   7.719  1.0250 -0.3347  1.3346
   30CHL1   C14 2162   1.581   0.028   7.831  0.5483 -0.1815  0.2795
   30CHL1   H14 2163   1.556  -0.081   7.834 -0.4114  0.0515  1.3655
   30CHL1   C15 2164   1.560   0.074   7.977 -0.5674  0.2063 -0.4134
   30CHL1  H15A 2165   1.547   0.184   7.978  0.5921  0.3608 -0.7911
   30CHL1  H15B 2166   1.470   0.028   8.023 -1.0132  1.7405  0.2788
   30CHL1   C16 2167   1.686   0.036   8.049 -0.8256  0.0769 -0.3492
   30CHL1  H16A 2168   1.731   0.126   8.095 -3.9831  1.0433  1.1208
   30CHL1  H16B 2169   1.665  -0.036   8.131 -0.0626 -1.7138 -1.6631
   30CHL1   C17 2170   1.784  -0.017   7.936 -0.5159  0.2573  0.4384
   30CHL1   H17 2171   1.771  -0.127   7.930  1.0546 -0.4170  5.2095
   30CHL1   C13 2172   1.727   0.047   7.804  0.3540  0.0004 -0.5413
   30CHL1   C18 2173   1.774   0.193   7.801 -0.0295  0.7285 -0.1632
   30CHL1  H18A 2174   1.884   0.191   7.784  0.3234  0.3692  1.9597
   30CHL1  H18B 2175   1.732   0.255   7.719 -1.5722  1.8192  1.3698
   30CHL1  H18C 2176   1.758   0.247   7.897 -0.7980 -1.1014  0.7965
   30CHL1   C12 2177   1.751  -0.038   7.681 -0.3070 -0.1779 -0.2500
   30CHL1  H12A 2178   1.859  -0.026   7.655  0.0114 -3.1430 -0.7073
   30CHL1  H12B 2179   1.726  -0.140   7.717 -1.4259 -0.1889 -1.0144
   30CHL1   C11 2180   1.668  -0.004   7.557 -0.1886 -0.1090  0.2548
   30CHL1  H11A 2181   1.707   0.092   7.517 -2.5290  0.2075 -1.5024
   30CHL1  H11B 2182   1.675  -0.076   7.472 -0.1716  1.5393 -1.1964
   30CHL1    C9 2183   1.520   0.011   7.587  0.0897  0.1908  0.3138
   30CHL1    H9 2184   1.480  -0.091   7.606 -1.7113  0.4278 -1.7853
   30CHL1   C10 2185   1.433   0.071   7.471 -0.4985 -0.2012  1.3284
   30CHL1   C19 2186   1.503   0.208   7.423  0.5550 -0.3670 -0.5826
   30CHL1  H19A 2187   1.440   0.265   7.351  0.7982  0.7316  0.0524
   30CHL1  H19B 2188   1.508   0.272   7.514 -1.8775 -2.2021  0.9923
   30CHL1  H19C 2189   1.592   0.184   7.362  1.8956 -1.4857  1.6963
   30CHL1    C1 2190   1.443  -0.031   7.355  0.1727 -0.0139  0.0821
   30CHL1   H1A 2191   1.549  -0.024   7.321  0.4025  0.7983  0.9277
   30CHL1   H1B 2192   1.422  -0.137   7.381 -0.5605 -0.1288 -0.9280
   30CHL1    C2 2193   1.344   0.002   7.242 -0.5509 -0.7503 -0.7838
   30CHL1   H2A 2194   1.339  -0.070   7.157 -2.7843 -0.2446 -1.1361
   30CHL1   H2B 2195   1.370   0.105   7.208 -0.0301 -0.0498  1.5363
   30CHL1   C20 2196   1.932  -0.006   7.972  0.7018 -0.8744  0.2383
   30CHL1   H20 2197   1.952   0.103   7.986 -0.6310 -0.7826  1.8179
   30CHL1   C21 2198   2.027  -0.055   7.863 -0.2331 -0.9150 -0.0105
   30CHL1  H21A 2199   2.017   0.017   7.778 -3.1431 -0.5191  0.5487
   30CHL1  H21B 2200   1.996  -0.151   7.818 -0.9127  0.2403 -2.1352
   30CHL1  H21C 2201   2.129  -0.055   7.908 -0.4740 -1.2035  0.5458
   30CHL1   C22 2202   1.981  -0.071   8.105  0.1307  0.2016 -0.0698
   30CHL1  H22A 2203   2.091  -0.058   8.106  0.4175 -1.6999 -1.2759
   30CHL1  H22B 2204   1.937  -0.014   8.190 -1.3173  3.6377 -2.8541
   30CHL1   C23 2205   1.952  -0.218   8.130  0.0689 -0.2246  0.9841
   30CHL1  H23A 2206   1.848  -0.237   8.098  0.8872 -0.4258 -1.7859
   30CHL1  H23B 2207   2.017  -0.277   8.062 -0.8631  1.1588 -1.1997
   30CHL1   C24 2208   1.970  -0.268   8.276  0.3324 -0.1726  0.1681
   30CHL1  H24A 2209   2.077  -0.253   8.302  0.8893 -0.8626 -1.5760
   30CHL1  H24B 2210   1.915  -0.196   8.340 -0.3207 -0.5609  0.0611
   30CHL1   C25 2211   1.920  -0.412   8.302  0.4643  0.2152 -0.4505
   30CHL1   H25 2212   1.901  -0.426   8.411  0.9094  1.0624 -0.2568
   30CHL1   C26 2213   1.787  -0.443   8.239 -0.0198  0.0103 -0.4277
   30CHL1  H26A 2214   1.797  -0.458   8.129 -3.0204  1.1787 -0.9616
   30CHL1  H26B 2215   1.748  -0.542   8.271 -0.1334  0.2084  0.0593
   30CHL1  H26C 2216   1.718  -0.357   8.251 -2.0313 -1.2823 -2.0511
   30CHL1   C27 2217   2.024  -0.517   8.253  0.0658 -0.1572 -0.3018
   30CHL1  H27A 2218   2.119  -0.481   8.298 -0.0095 -0.0893 -0.1938
   30CHL1  H27B 2219   2.008  -0.622   8.284  0.9167 -0.4568 -0.8633
   30CHL1  H27C 2220   2.036  -0.502   8.144 -2.3189  2.8949 -0.2923
   31CHL1    C3 2221   4.861   4.853   7.037  0.5511 -0.1960  0.1847
   31CHL1    H3 2222   4.846   4.743   7.045  3.4240 -0.6348  0.2982
   31CHL1    O3 2223   4.864   4.898   6.897  0.1465 -0.3973  0.3683
   31CHL1   H3' 2224   4.798   4.845   6.852  0.7383 -0.5168 -0.3729
   31CHL1    C4 2225   4.743   4.932   7.097  1.3397 -0.2049  0.3434
   31CHL1   H4A 2226   4.754   5.041   7.080  1.5114 -0.5454 -2.0658
   31CHL1   H4B 2227   4.654   4.903   7.036  0.6877 -0.4764  1.3972
   31CHL1    C5 2228   4.729   4.910   7.245 -0.4006  0.3382 -0.4001
   31CHL1    C6 2229   4.618   4.861   7.309 -0.2926 -0.1785  0.3687
   31CHL1    H6 2230   4.538   4.842   7.236  0.3903 -0.2660 -0.3756
   31CHL1    C7 2231   4.598   4.843   7.449 -0.1066  0.6401 -1.1373
   31CHL1   H7A 2232   4.497   4.878   7.478 -0.1397  0.5886 -1.1921
   31CHL1   H7B 2233   4.599   4.734   7.471 -2.4861  1.3336  3.7930
   31CHL1    C8 2234   4.715   4.903   7.538  0.2498  0.2725  0.3610
   31CHL1    H8 2235   4.683   5.009   7.551 -0.6272  0.0720 -0.0624
   31CHL1   C14 2236   4.721   4.836   7.677  0.5013  0.2816 -0.5577
   31CHL1   H14 2237   4.749   4.732   7.652  0.5713 -0.3002  1.7292
   31CHL1   C15 2238   4.587   4.821   7.753 -0.4475  0.0646 -0.1821
   31CHL1  H15A 2239   4.540   4.921   7.766 -1.8696 -0.6259  0.0974
   31CHL1  H15B 2240   4.516   4.745   7.714 -1.0190  1.0715 -1.1765
   31CHL1   C16 2241   4.638   4.783   7.892 -0.0401 -0.5517  0.0489
   31CHL1  H16A 2242   4.581   4.852   7.957  2.7661 -0.0984  2.2377
   31CHL1  H16B 2243   4.620   4.678   7.921 -2.5065  0.0922  1.0763
   31CHL1   C17 2244   4.793   4.810   7.898  0.4575 -0.0371  0.4231
   31CHL1   H17 2245   4.837   4.714   7.863  0.4632  0.6842 -1.6798
   31CHL1   C13 2246   4.818   4.898   7.777 -0.1969 -0.4703 -0.1974
   31CHL1   C18 2247   4.776   5.043   7.822  0.0617 -0.5281  0.0386
   31CHL1  H18A 2248   4.682   5.048   7.881  0.3461  0.4827  0.4420
   31CHL1  H18B 2249   4.862   5.090   7.875  0.9628  0.3771 -2.1199
   31CHL1  H18C 2250   4.770   5.093   7.724  3.8139  0.2773  0.0566
   31CHL1   C12 2251   4.964   4.886   7.710 -0.0071  0.4512 -0.4216
   31CHL1  H12A 2252   5.047   4.922   7.775  0.3318 -0.3045 -0.4257
   31CHL1  H12B 2253   4.982   4.777   7.694  2.8530  0.7518  0.2442
   31CHL1   C11 2254   4.968   4.941   7.571  0.5831 -0.1447 -0.1620
   31CHL1  H11A 2255   4.963   5.051   7.588  0.3792 -0.0256 -0.9506
   31CHL1  H11B 2256   5.069   4.926   7.526  0.0868  3.3842 -2.9023
   31CHL1    C9 2257   4.854   4.895   7.470 -0.2714  0.2784  0.3960
   31CHL1    H9 2258   4.876   4.787   7.461  0.7879  0.3435  1.8610
   31CHL1   C10 2259   4.859   4.942   7.324  0.1759  0.2148 -0.3564
   31CHL1   C19 2260   4.893   5.098   7.322  0.1776  1.2125 -0.1319
   31CHL1  H19A 2261   4.889   5.136   7.217 -1.0031 -1.0558 -0.9641
   31CHL1  H19B 2262   4.828   5.160   7.387 -0.5585 -1.4737  1.8644
   31CHL1  H19C 2263   4.999   5.113   7.352 -0.2932  0.6665  1.9076
   31CHL1    C1 2264   4.975   4.872   7.249  0.0149  0.1063  0.2685
   31CHL1   H1A 2265   5.068   4.905   7.301  0.9217  0.5931 -1.5504
   31CHL1   H1B 2266   4.971   4.762   7.266 -2.1349  0.2513  0.8616
   31CHL1    C2 2267   4.982   4.898   7.104 -0.9412 -0.8191  0.1590
   31CHL1   H2A 2268   5.068   4.854   7.049  0.2746 -0.5271  1.7540
   31CHL1   H2B 2269   4.994   5.007   7.086 -0.5165 -1.1623 -1.8713
   31CHL1   C20 2270   4.844   4.834   8.040  0.3113 -0.2046 -0.8036
   31CHL1   H20 2271   4.794   4.929   8.071 -1.0088 -0.1728 -2.8680
   31CHL1   C21 2272   4.998   4.857   8.044  0.9595 -0.1720  0.0912
   31CHL1  H21A 2273   5.026   4.956   8.001 -2.3809  1.4857  1.3471
   31CHL1  H21B 2274   5.053   4.777   7.990  0.8915  1.4455 -2.5563
   31CHL1  H21C 2275   5.031   4.849   8.149 -1.5646 -1.5425  0.8751
   31CHL1   C22 2276   4.798   4.719   8.138  0.4755  0.1177  0.0893
   31CHL1  H22A 2277   4.694   4.687   8.121  0.7094  0.3738 -2.0670
   31CHL1  H22B 2278   4.858   4.629   8.113  0.6342 -0.5894  2.7074
   31CHL1   C23 2279   4.795   4.765   8.286 -0.3510 -0.5845 -0.2255
   31CHL1  H23A 2280   4.895   4.801   8.320 -1.2717  1.0251  0.8975
   31CHL1  H23B 2281   4.725   4.848   8.309  0.7025  0.1299  0.5140
   31CHL1   C24 2282   4.760   4.638   8.379 -0.1046  0.5015 -0.6262
   31CHL1  H24A 2283   4.658   4.600   8.356  0.3596 -0.9060 -0.4191
   31CHL1  H24B 2284   4.838   4.561   8.363 -0.4982 -0.0703  0.1583
   31CHL1   C25 2285   4.753   4.677   8.532 -0.5353 -0.6561 -0.0674
   31CHL1   H25 2286   4.696   4.771   8.548  0.5628  0.0885 -0.4443
   31CHL1   C26 2287   4.680   4.565   8.605 -0.0597  0.2787 -0.7544
   31CHL1  H26A 2288   4.711   4.464   8.571 -0.4094 -1.0009  2.4035
   31CHL1  H26B 2289   4.704   4.568   8.714  0.3258  0.2025 -0.8364
   31CHL1  H26C 2290   4.572   4.563   8.579  0.1330 -3.1872 -1.8192
   31CHL1   C27 2291   4.900   4.699   8.588  0.1066  0.8294  0.3563
   31CHL1  H27A 2292   4.961   4.609   8.568 -0.4824  0.8759 -1.9152
   31CHL1  H27B 2293   4.909   4.721   8.697  1.6165  0.1257  0.4013
   31CHL1  H27C 2294   4.953   4.781   8.535 -2.1911  1.4550 -1.1106
   32CHL1    C3 2295   0.219   3.274   6.700 -0.0467 -0.0342 -0.4715
   32CHL1    H3 2296   0.161   3.179   6.710 -0.1783 -0.0794 -1.5838
   32CHL1    O3 2297   0.217   3.310   6.569 -0.1961 -0.4172  0.0416
   32CHL1   H3' 2298   0.263   3.394   6.559 -2.3251  0.6000 -2.8140
   32CHL1    C4 2299   0.164   3.381   6.794 -0.4465 -0.2534 -1.0375
   32CHL1   H4A 2300   0.212   3.479   6.771  1.1248 -1.2155 -2.0621
   32CHL1   H4B 2301   0.057   3.402   6.769 -0.3410 -0.4475 -1.6586
   32CHL1    C5 2302   0.188   3.345   6.938  0.1885  0.2564  0.4618
   32CHL1    C6 2303   0.087   3.346   7.023 -0.5897  0.1520 -0.1209
   32CHL1    H6 2304  -0.016   3.373   6.993 -0.8968  2.2221  2.4108
   32CHL1    C7 2305   0.092   3.314   7.173 -0.1693  0.4071  0.2089
   32CHL1   H7A 2306   0.040   3.391   7.233 -0.8603 -0.4682  0.7587
   32CHL1   H7B 2307   0.047   3.213   7.191  0.2554 -0.1201 -1.4899
   32CHL1    C8 2308   0.236   3.306   7.227 -0.6627 -0.5080 -0.0211
   32CHL1    H8 2309   0.266   3.412   7.238 -0.5770 -0.6151  0.8699
   32CHL1   C14 2310   0.251   3.233   7.362 -0.4314  0.7266  0.0438
   32CHL1   H14 2311   0.234   3.124   7.349  2.9211  0.1586 -0.5619
   32CHL1   C15 2312   0.158   3.272   7.478  0.4500 -0.3399  0.6090
   32CHL1  H15A 2313   0.142   3.381   7.487 -0.7649 -0.5398  1.1456
   32CHL1  H15B 2314   0.065   3.216   7.451  1.7152 -1.7655 -1.0978
   32CHL1   C16 2315   0.228   3.222   7.604  0.8021 -0.3523  0.1946
   32CHL1  H16A 2316   0.249   3.317   7.658 -0.7375  0.5274 -0.6924
   32CHL1  H16B 2317   0.158   3.159   7.662  1.4806 -1.0453  0.2765
   32CHL1   C17 2318   0.364   3.164   7.557 -0.0153  0.1449 -0.6099
   32CHL1   H17 2319   0.340   3.057   7.542  1.5637 -0.3582  0.2626
   32CHL1   C13 2320   0.389   3.226   7.419 -1.0838 -0.3392  0.1797
   32CHL1   C18 2321   0.442   3.375   7.439 -0.3332  0.5620  0.0981
   32CHL1  H18A 2322   0.546   3.378   7.476 -0.2669  0.0954 -0.0376
   32CHL1  H18B 2323   0.444   3.431   7.344  2.8097  1.1181  0.3870
   32CHL1  H18C 2324   0.386   3.433   7.516  1.1195 -0.9224  2.4082
   32CHL1   C12 2325   0.485   3.147   7.322  0.4612  0.1567  0.0126
   32CHL1  H12A 2326   0.587   3.142   7.366  0.5169  1.2762  0.0490
   32CHL1  H12B 2327   0.438   3.048   7.307  1.4242 -0.3938  0.5317
   32CHL1   C11 2328   0.474   3.213   7.180 -0.4487  0.3943  0.3894
   32CHL1  H11A 2329   0.519   3.314   7.171  0.1109 -0.0115 -2.0211
   32CHL1  H11B 2330   0.531   3.153   7.106  1.0455  1.6494  0.4884
   32CHL1    C9 2331   0.323   3.233   7.124 -0.4090 -0.0787 -0.2027
   32CHL1    H9 2332   0.286   3.128   7.119  0.9650 -0.7261  1.8386
   32CHL1   C10 2333   0.321   3.296   6.981 -1.1027 -0.1857 -0.1435
   32CHL1   C19 2334   0.419   3.424   6.975 -0.3621  0.4853  0.4814
   32CHL1  H19A 2335   0.402   3.485   6.884 -0.4197  0.0246  0.1819
   32CHL1  H19B 2336   0.401   3.490   7.063  0.1450  0.3308  0.7108
   32CHL1  H19C 2337   0.526   3.393   6.977 -0.1112  1.3084  1.8686
   32CHL1    C1 2338   0.376   3.188   6.878  0.1668  0.3236  0.2687
   32CHL1   H1A 2339   0.479   3.157   6.906  0.4785 -1.5127 -2.5187
   32CHL1   H1B 2340   0.323   3.092   6.893 -2.7829  1.8517  0.3550
   32CHL1    C2 2341   0.368   3.239   6.735  0.1091 -0.4213 -0.0971
   32CHL1   H2A 2342   0.411   3.156   6.676  1.9474  0.9484 -0.7936
   32CHL1   H2B 2343   0.447   3.316   6.718  2.6751 -2.4661  1.8036
   32CHL1   C20 2344   0.473   3.189   7.671 -0.2545 -0.3529  0.3672
   32CHL1   H20 2345   0.492   3.298   7.675 -2.8077  0.2055 -0.5365
   32CHL1   C21 2346   0.598   3.104   7.656 -0.0206 -0.1494  0.2881
   32CHL1  H21A 2347   0.567   2.998   7.652 -2.2612  0.3619  1.9657
   32CHL1  H21B 2348   0.663   3.122   7.745 -3.1693  0.8461  2.5632
   32CHL1  H21C 2349   0.657   3.133   7.566  0.4996 -2.6215 -0.2262
   32CHL1   C22 2350   0.428   3.165   7.821 -0.4554 -0.4827 -0.4539
   32CHL1  H22A 2351   0.512   3.176   7.892 -0.5173  3.0494 -0.7824
   32CHL1  H22B 2352   0.347   3.235   7.851 -0.9591 -1.8717  1.6771
   32CHL1   C23 2353   0.373   3.016   7.854  0.3109 -0.5637 -0.5904
   32CHL1  H23A 2354   0.281   3.019   7.792  0.9094  1.4525 -1.4549
   32CHL1  H23B 2355   0.442   2.938   7.815  2.1032 -1.5042  3.8528
   32CHL1   C24 2356   0.360   2.998   8.008 -0.0765  0.3017 -0.5518
   32CHL1  H24A 2357   0.462   2.976   8.044 -1.2334 -0.8685  2.3473
   32CHL1  H24B 2358   0.335   3.095   8.057  0.5292  0.5262 -0.6865
   32CHL1   C25 2359   0.267   2.881   8.033 -0.0310 -0.3193 -0.9646
   32CHL1   H25 2360   0.291   2.803   7.957  2.0487 -0.9773  0.2859
   32CHL1   C26 2361   0.282   2.824   8.174  0.3843  0.7742 -0.6258
   32CHL1  H26A 2362   0.205   2.745   8.187  0.3591  0.6450 -1.5276
   32CHL1  H26B 2363   0.385   2.788   8.192 -0.0394 -0.0693  0.1917
   32CHL1  H26C 2364   0.261   2.902   8.251 -1.3900  0.0945 -0.3610
   32CHL1   C27 2365   0.126   2.916   8.013 -0.0964  0.3529  0.4344
   32CHL1  H27A 2366   0.100   3.010   8.066 -0.8571  0.2267  0.3036
   32CHL1  H27B 2367   0.119   2.930   7.903  1.0258 -2.5858 -0.1117
   32CHL1  H27C 2368   0.060   2.831   8.041 -1.2747  0.9304 -0.5050
   33CHL1    C3 2369   0.831   2.491   6.778 -0.5225 -0.4042 -0.2543
   33CHL1    H3 2370   0.860   2.594   6.809  0.6257 -0.7721 -0.0663
   33CHL1    O3 2371   0.798   2.492   6.643 -0.0135 -0.4782  0.3689
   33CHL1   H3' 2372   0.817   2.579   6.606  0.4686 -0.9013 -0.4098
   33CHL1    C4 2373   0.927   2.375   6.821 -0.2770 -0.7176 -0.1980
   33CHL1   H4A 2374   0.882   2.282   6.781 -3.5214 -1.0718  3.6330
   33CHL1   H4B 2375   1.026   2.401   6.778  0.2140 -1.3718  0.4858
   33CHL1    C5 2376   0.945   2.367   6.970  0.2126  0.3643 -0.1309
   33CHL1    C6 2377   1.066   2.384   7.026  0.5941  0.3933  0.1739
   33CHL1    H6 2378   1.156   2.393   6.962 -0.9106  0.5829 -2.0306
   33CHL1    C7 2379   1.078   2.376   7.171  0.8891  0.8771  0.2460
   33CHL1   H7A 2380   1.176   2.327   7.190 -0.1400 -1.6963 -0.7254
   33CHL1   H7B 2381   1.086   2.479   7.213 -0.2869  2.0814 -2.2279
   33CHL1    C8 2382   0.965   2.297   7.239  0.3803  0.4528  0.9622
   33CHL1    H8 2383   0.959   2.190   7.209 -2.1677  0.5847  0.7848
   33CHL1   C14 2384   0.988   2.292   7.390  0.4357  0.3857  0.6370
   33CHL1   H14 2385   0.978   2.399   7.420 -2.3957  0.4403 -0.2573
   33CHL1   C15 2386   1.118   2.244   7.449 -0.4686  0.0414 -0.0479
   33CHL1  H15A 2387   1.149   2.146   7.405  2.2234  0.5878  0.4587
   33CHL1  H15B 2388   1.198   2.319   7.432 -1.0057  0.7223  0.3705
   33CHL1   C16 2389   1.089   2.227   7.595 -0.4225  0.4485  0.0220
   33CHL1  H16A 2390   1.119   2.120   7.606 -3.4095 -0.4800 -0.1088
   33CHL1  H16B 2391   1.156   2.287   7.660  0.0673 -1.5457  1.4571
   33CHL1   C17 2392   0.940   2.244   7.616  0.1219 -0.2862  0.0362
   33CHL1   H17 2393   0.915   2.347   7.650  2.1148  0.5755 -0.9595
   33CHL1   C13 2394   0.874   2.222   7.475 -1.0706 -0.0887 -0.0535
   33CHL1   C18 2395   0.872   2.069   7.436 -0.2580 -0.7933  1.0595
   33CHL1  H18A 2396   0.840   2.052   7.331 -2.1982  1.3690  1.2075
   33CHL1  H18B 2397   0.962   2.010   7.463 -1.4500 -4.3341 -1.8331
   33CHL1  H18C 2398   0.790   2.024   7.497 -0.4658 -0.5440  0.9662
   33CHL1   C12 2399   0.746   2.305   7.442 -0.6215  0.5392 -0.3687
   33CHL1  H12A 2400   0.670   2.251   7.502  2.7090 -2.1225  1.8621
   33CHL1  H12B 2401   0.758   2.404   7.490  0.3946 -0.0798  0.6878
   33CHL1   C11 2402   0.716   2.306   7.292 -0.1160 -0.4390 -0.1867
   33CHL1  H11A 2403   0.674   2.207   7.264  0.2934 -1.0968  1.4084
   33CHL1  H11B 2404   0.642   2.385   7.267  0.6295  0.3386  0.0206
   33CHL1    C9 2405   0.832   2.355   7.204 -1.0005 -0.0683 -0.3147
   33CHL1    H9 2406   0.849   2.463   7.225  0.4362 -0.1000 -1.1531
   33CHL1   C10 2407   0.813   2.352   7.055  0.7991 -0.0754 -0.0285
   33CHL1   C19 2408   0.766   2.202   7.025  0.4619  0.4643  0.0671
   33CHL1  H19A 2409   0.791   2.159   6.926 -1.2833  0.6274 -0.4879
   33CHL1  H19B 2410   0.808   2.134   7.102  0.7928 -1.9833 -2.1552
   33CHL1  H19C 2411   0.658   2.203   7.053  0.6146 -0.5455  0.7118
   33CHL1    C1 2412   0.711   2.454   7.001  0.1322 -0.0412 -0.7226
   33CHL1   H1A 2413   0.614   2.420   7.043  0.9153 -1.7007 -0.1609
   33CHL1   H1B 2414   0.742   2.553   7.042  1.3804 -0.1784 -1.2971
   33CHL1    C2 2415   0.700   2.461   6.849  0.4825  0.1040 -0.5751
   33CHL1   H2A 2416   0.633   2.549   6.837  0.5109  0.2467  0.2807
   33CHL1   H2B 2417   0.651   2.367   6.815  0.5470 -1.5580  3.4162
   33CHL1   C20 2418   0.880   2.143   7.719 -0.0813  0.9433 -0.3582
   33CHL1   H20 2419   0.919   2.041   7.699  2.5454  1.5610  1.1758
   33CHL1   C21 2420   0.725   2.148   7.733  0.1573  0.3401 -0.2349
   33CHL1  H21A 2421   0.687   2.242   7.777  0.6503  0.3925  0.0778
   33CHL1  H21B 2422   0.705   2.059   7.796  0.3203  1.4431  1.4292
   33CHL1  H21C 2423   0.665   2.113   7.645  1.9691  0.5356 -1.6082
   33CHL1   C22 2424   0.931   2.173   7.860 -0.1088  0.7949 -0.0105
   33CHL1  H22A 2425   1.039   2.200   7.862 -0.5104  2.4301  0.4637
   33CHL1  H22B 2426   0.873   2.257   7.903 -0.2555  0.5197  0.3406
   33CHL1   C23 2427   0.914   2.064   7.965  0.8406 -0.7747  0.0769
   33CHL1  H23A 2428   0.807   2.050   7.993  0.2411  0.0414 -1.6974
   33CHL1  H23B 2429   0.948   1.961   7.941 -0.0264 -1.5226  1.8206
   33CHL1   C24 2430   0.988   2.120   8.091 -0.1751 -0.2276 -0.2702
   33CHL1  H24A 2431   1.097   2.128   8.074 -0.1203  1.3614  0.6782
   33CHL1  H24B 2432   0.947   2.217   8.128 -1.0317 -1.1189  1.2031
   33CHL1   C25 2433   0.988   2.025   8.211  0.1988  0.3982 -0.0094
   33CHL1   H25 2434   1.028   1.925   8.183 -1.3563 -0.2691  0.0633
   33CHL1   C26 2435   1.085   2.079   8.314  0.6113 -0.0541  0.3397
   33CHL1  H26A 2436   1.084   2.190   8.302  0.5649 -0.3671 -3.9824
   33CHL1  H26B 2437   1.062   2.030   8.411 -1.0143  1.1465  0.6087
   33CHL1  H26C 2438   1.184   2.036   8.290 -0.2913 -4.1460  2.9479
   33CHL1   C27 2439   0.853   2.007   8.276 -0.9650 -0.6062  0.4990
   33CHL1  H27A 2440   0.780   1.955   8.210 -0.5062  2.2217 -2.4615
   33CHL1  H27B 2441   0.867   1.956   8.374 -1.9176 -1.0848  0.4000
   33CHL1  H27C 2442   0.810   2.108   8.298  0.3014  0.1006 -0.1987
   34CHL1    C3 2443   1.861   0.830   7.009 -0.6456  0.3518  0.2665
   34CHL1    H3 2444   1.756   0.796   7.022 -0.8104  0.1267 -1.4651
   34CHL1    O3 2445   1.883   0.860   6.872  0.2706 -0.5081  0.1007
   34CHL1   H3' 2446   1.826   0.936   6.856  0.4933 -0.5693 -1.0681
   34CHL1    C4 2447   1.891   0.950   7.100  0.0393 -0.2187  0.7939
   34CHL1   H4A 2448   1.995   0.980   7.077 -0.8243  0.9133 -2.0411
   34CHL1   H4B 2449   1.825   1.033   7.068  2.2059  0.7636 -1.3751
   34CHL1    C5 2450   1.866   0.921   7.246 -0.3389  0.2313 -0.1407
   34CHL1    C6 2451   1.780   0.987   7.318  1.0620 -0.0788 -0.3539
   34CHL1    H6 2452   1.722   1.070   7.276 -1.4939 -1.6715 -0.2158
   34CHL1    C7 2453   1.745   0.953   7.463  0.2594  0.3389  0.3608
   34CHL1   H7A 2454   1.737   1.047   7.521  1.4206 -0.0682  1.2060
   34CHL1   H7B 2455   1.658   0.888   7.482  1.9667 -2.6606 -1.2399
   34CHL1    C8 2456   1.856   0.859   7.529  0.4117 -0.4150  0.2732
   34CHL1    H8 2457   1.934   0.935   7.549 -0.9108  0.8370  0.8719
   34CHL1   C14 2458   1.805   0.794   7.655 -0.1046  0.3553 -0.1180
   34CHL1   H14 2459   1.727   0.723   7.620 -0.2216 -0.2395  1.2660
   34CHL1   C15 2460   1.738   0.884   7.759 -0.8059 -0.4920  0.3882
   34CHL1  H15A 2461   1.794   0.980   7.765  0.8476 -1.4637  1.0197
   34CHL1  H15B 2462   1.633   0.888   7.724 -0.4922  1.1095 -0.4513
   34CHL1   C16 2463   1.758   0.809   7.889  0.3191  0.3822 -0.1329
   34CHL1  H16A 2464   1.827   0.873   7.947 -0.4734  1.1973 -0.0592
   34CHL1  H16B 2465   1.665   0.795   7.949  1.2102  1.4073  1.5602
   34CHL1   C17 2466   1.839   0.683   7.857  0.0814  0.4865 -0.8242
   34CHL1   H17 2467   1.753   0.615   7.838 -0.4061  0.8984 -0.1853
   34CHL1   C13 2468   1.913   0.719   7.730 -0.2929  0.0648 -0.0192
   34CHL1   C18 2469   2.040   0.801   7.771  0.3985 -0.0629 -0.3367
   34CHL1  H18A 2470   2.126   0.739   7.805  3.1064  2.6046 -1.8074
   34CHL1  H18B 2471   2.076   0.856   7.681 -3.0924  1.6655 -0.8552
   34CHL1  H18C 2472   2.007   0.880   7.842 -2.8088 -1.4330 -0.1072
   34CHL1   C12 2473   1.945   0.597   7.640 -0.0438 -0.1228  0.5193
   34CHL1  H12A 2474   2.014   0.527   7.692 -0.2807 -0.8923 -0.1999
   34CHL1  H12B 2475   1.852   0.542   7.617 -0.4884  0.5159  0.7370
   34CHL1   C11 2476   2.010   0.647   7.514  0.1693 -0.5080  0.4844
   34CHL1  H11A 2477   2.113   0.687   7.529  1.1852 -2.1745 -1.5470
   34CHL1  H11B 2478   2.016   0.568   7.436 -0.5262  0.9984 -1.1791
   34CHL1    C9 2479   1.907   0.746   7.434 -0.2206 -0.6562 -0.5062
   34CHL1    H9 2480   1.822   0.678   7.412 -0.9197 -0.1070  0.4473
   34CHL1   C10 2481   1.953   0.798   7.298 -0.4603 -0.3044  0.0693
   34CHL1   C19 2482   2.096   0.855   7.316  0.1167 -0.1119  0.2074
   34CHL1  H19A 2483   2.160   0.770   7.345 -0.6088 -0.3456  1.1768
   34CHL1  H19B 2484   2.132   0.903   7.222  0.4441  0.1517  0.4659
   34CHL1  H19C 2485   2.096   0.935   7.394 -0.5115 -0.8785  1.0197
   34CHL1    C1 2486   1.953   0.681   7.195 -0.1597  0.9664  0.4611
   34CHL1   H1A 2487   2.021   0.598   7.227 -0.4010  1.3802  2.1599
   34CHL1   H1B 2488   1.850   0.640   7.199  0.1745  0.1078  0.6318
   34CHL1    C2 2489   1.964   0.728   7.047 -0.3066  0.7053 -0.2433
   34CHL1   H2A 2490   1.938   0.641   6.982 -0.7556 -0.8312  1.8811
   34CHL1   H2B 2491   2.065   0.771   7.029 -0.0472  0.4482  0.5851
   34CHL1   C20 2492   1.913   0.631   7.981 -0.1867 -0.4835 -0.3323
   34CHL1   H20 2493   1.992   0.707   8.003  1.3752 -1.0980 -3.2720
   34CHL1   C21 2494   1.984   0.496   7.961  0.1616  0.5368  0.9739
   34CHL1  H21A 2495   1.909   0.425   7.920  1.9300 -0.3575 -0.8917
   34CHL1  H21B 2496   2.016   0.452   8.058  0.4010 -1.6790 -0.0416
   34CHL1  H21C 2497   2.076   0.507   7.898 -0.3382 -0.6342  0.0002
   34CHL1   C22 2498   1.825   0.616   8.109  0.3607  0.2817  0.3875
   34CHL1  H22A 2499   1.894   0.572   8.184  0.4035 -0.9941 -0.3553
   34CHL1  H22B 2500   1.788   0.717   8.138 -2.7960 -0.5878 -0.1624
   34CHL1   C23 2501   1.708   0.523   8.097 -0.2385 -0.0811 -0.6273
   34CHL1  H23A 2502   1.640   0.549   8.012 -1.0743  0.0710  0.0733
   34CHL1  H23B 2503   1.743   0.418   8.095 -0.3356 -0.2267  2.0185
   34CHL1   C24 2504   1.614   0.525   8.224 -0.5612 -0.2658  0.0840
   34CHL1  H24A 2505   1.674   0.507   8.315 -2.7562 -0.7458  1.4933
   34CHL1  H24B 2506   1.562   0.623   8.233  1.8103  1.3320 -1.9359
   34CHL1   C25 2507   1.507   0.409   8.226 -0.0205 -0.6119 -0.6793
   34CHL1   H25 2508   1.575   0.322   8.232 -1.1888 -1.4505  2.7373
   34CHL1   C26 2509   1.426   0.400   8.352 -0.9593  0.3609  0.1931
   34CHL1  H26A 2510   1.330   0.455   8.342 -1.0639  0.2449  0.5297
   34CHL1  H26B 2511   1.389   0.299   8.379 -3.0898  1.7111  2.7923
   34CHL1  H26C 2512   1.484   0.436   8.439 -0.1114 -0.4721 -0.0100
   34CHL1   C27 2513   1.422   0.393   8.097  0.2806  0.6665 -0.0346
   34CHL1  H27A 2514   1.482   0.400   8.003 -0.7010  0.2387 -0.7071
   34CHL1  H27B 2515   1.367   0.297   8.103  2.8995 -1.1187 -1.7854
   34CHL1  H27C 2516   1.348   0.475   8.094 -1.2816 -0.7048 -0.2737
   35CHL1    C3 2517   4.030   0.904   7.026  0.2996  0.0448 -0.0431
   35CHL1    H3 2518   4.049   1.014   7.035  0.6230 -0.1369  2.1081
   35CHL1    O3 2519   4.029   0.861   6.896 -0.2829 -0.0130  0.7635
   35CHL1   H3' 2520   4.025   0.765   6.899 -0.2570 -0.0199  0.5868
   35CHL1    C4 2521   4.137   0.834   7.111  0.1680  0.8282 -0.1214
   35CHL1   H4A 2522   4.137   0.723   7.100 -0.6697  1.0162 -3.2453
   35CHL1   H4B 2523   4.236   0.865   7.070  0.7658 -0.0085  0.6505
   35CHL1    C5 2524   4.127   0.873   7.252 -0.0374  0.2423 -0.1451
   35CHL1    C6 2525   4.225   0.929   7.323  0.2488 -0.0320 -0.0367
   35CHL1    H6 2526   4.318   0.972   7.283 -0.3510  0.3708 -1.0152
   35CHL1    C7 2527   4.217   0.949   7.476 -0.0922  0.8531  0.0268
   35CHL1   H7A 2528   4.310   0.905   7.515 -1.3831 -1.4659  0.6413
   35CHL1   H7B 2529   4.222   1.058   7.497 -0.8791  0.4933  2.2372
   35CHL1    C8 2530   4.106   0.870   7.551  0.0168  0.5711  0.1516
   35CHL1    H8 2531   4.128   0.761   7.553  0.3621  0.5570 -2.1679
   35CHL1   C14 2532   4.086   0.925   7.694 -0.1543  0.1003 -0.0431
   35CHL1   H14 2533   4.054   1.031   7.681 -0.2871 -0.0151 -0.6891
   35CHL1   C15 2534   4.211   0.934   7.777 -0.0694 -0.0113  0.3903
   35CHL1  H15A 2535   4.281   0.847   7.772 -1.4413 -1.4169  3.2200
   35CHL1  H15B 2536   4.273   1.024   7.756  1.3343 -0.6998  1.4335
   35CHL1   C16 2537   4.159   0.940   7.920 -0.9169  0.6647  0.2244
   35CHL1  H16A 2538   4.183   0.848   7.978  0.5490  1.2521  0.5979
   35CHL1  H16B 2539   4.197   1.026   7.980 -0.0460  0.0114  0.6355
   35CHL1   C17 2540   4.007   0.942   7.910 -0.0528 -0.2830  0.0529
   35CHL1   H17 2541   3.971   1.047   7.907  0.0390 -0.2657 -1.2258
   35CHL1   C13 2542   3.980   0.864   7.772  0.8675 -0.4987  0.1211
   35CHL1   C18 2543   3.997   0.710   7.787  0.0970 -0.1725 -0.2507
   35CHL1  H18A 2544   4.090   0.703   7.847  0.6827  0.0941 -1.1091
   35CHL1  H18B 2545   3.910   0.673   7.845  0.2796 -1.0036 -0.4909
   35CHL1  H18C 2546   4.006   0.664   7.686  0.4791 -1.0602  0.1757
   35CHL1   C12 2547   3.845   0.895   7.706  0.7024  0.3236  0.5072
   35CHL1  H12A 2548   3.755   0.843   7.744  0.9378 -0.2223  0.3331
   35CHL1  H12B 2549   3.826   1.004   7.717 -0.4000  0.2487 -0.4799
   35CHL1   C11 2550   3.850   0.856   7.555  0.2000  0.5624 -0.3546
   35CHL1  H11A 2551   3.836   0.746   7.552  1.4615  0.3541  0.6871
   35CHL1  H11B 2552   3.763   0.895   7.497 -0.6770 -0.4515  0.2411
   35CHL1    C9 2553   3.976   0.898   7.474 -0.1064 -0.0459  0.1270
   35CHL1    H9 2554   3.975   1.007   7.453 -1.1070 -0.5752 -3.0926
   35CHL1   C10 2555   3.992   0.844   7.329 -0.0725  0.7786 -0.3703
   35CHL1   C19 2556   3.963   0.690   7.341  0.0995 -0.1942 -0.3670
   35CHL1  H19A 2557   4.031   0.636   7.411  3.1907  2.0313 -1.4294
   35CHL1  H19B 2558   3.856   0.681   7.370 -0.0660  0.8662 -0.6005
   35CHL1  H19C 2559   3.980   0.631   7.248 -0.0088 -3.2698  1.4311
   35CHL1    C1 2560   3.888   0.905   7.233  1.0421 -0.3899 -0.0647
   35CHL1   H1A 2561   3.783   0.892   7.266  1.1977  0.1231  0.6565
   35CHL1   H1B 2562   3.902   1.015   7.238 -1.0061 -0.1336  3.5155
   35CHL1    C2 2563   3.897   0.876   7.089 -0.1881  0.5886 -0.3238
   35CHL1   H2A 2564   3.820   0.933   7.033  0.3475  2.1998  0.5321
   35CHL1   H2B 2565   3.857   0.773   7.079 -0.8586  0.6823  1.0960
   35CHL1   C20 2566   3.947   0.874   8.039 -0.2249  0.2439  0.4185
   35CHL1   H20 2567   3.979   0.767   8.042 -2.8996 -0.6520  0.2674
   35CHL1   C21 2568   3.799   0.879   8.030 -0.0412 -0.0787 -0.8145
   35CHL1  H21A 2569   3.760   0.971   7.981  0.9156  0.3208 -0.8413
   35CHL1  H21B 2570   3.747   0.864   8.127 -1.5322 -0.0620 -1.5752
   35CHL1  H21C 2571   3.772   0.798   7.959  2.1603 -0.1010 -1.7262
   35CHL1   C22 2572   4.002   0.928   8.171  0.2774 -0.3441  0.6172
   35CHL1  H22A 2573   4.113   0.937   8.178  0.2420 -1.0436  3.8793
   35CHL1  H22B 2574   3.962   1.031   8.185 -0.1543 -0.6909  2.1411
   35CHL1   C23 2575   3.962   0.859   8.300 -0.0993 -0.3427 -0.0054
   35CHL1  H23A 2576   3.855   0.867   8.326 -0.8457  0.4210 -2.9606
   35CHL1  H23B 2577   3.995   0.753   8.293 -0.0077 -0.2386 -1.6050
   35CHL1   C24 2578   4.044   0.938   8.406  0.4095 -0.0457 -0.1269
   35CHL1  H24A 2579   4.153   0.922   8.392  0.3239 -0.2021 -0.6309
   35CHL1  H24B 2580   4.014   1.045   8.404  0.0330  0.0424  3.4855
   35CHL1   C25 2581   4.004   0.892   8.553  0.7012 -0.4664 -0.0790
   35CHL1   H25 2582   3.894   0.910   8.561  0.9646  1.6254 -0.5590
   35CHL1   C26 2583   4.026   0.747   8.579 -0.3563  1.1543  0.0419
   35CHL1  H26A 2584   4.034   0.679   8.492  0.7401  1.7672 -0.3541
   35CHL1  H26B 2585   4.123   0.732   8.630  0.7878 -0.9449 -2.5189
   35CHL1  H26C 2586   3.950   0.704   8.648  1.1621 -2.7940 -0.5043
   35CHL1   C27 2587   4.067   0.975   8.663 -0.2808  0.1734 -1.0135
   35CHL1  H27A 2588   4.011   0.963   8.759  3.8238 -0.6275  1.5474
   35CHL1  H27B 2589   4.074   1.084   8.641 -0.3021  0.1704 -1.0358
   35CHL1  H27C 2590   4.170   0.938   8.677 -0.7366 -1.6718 -2.1564
   36CHL1    C3 2591   6.502   6.775   7.042  0.1888  0.5613  0.0394
   36CHL1    H3 2592   6.602   6.816   7.070  0.1321  0.8787 -0.1995
   36CHL1    O3 2593   6.492   6.748   6.903 -0.2436 -0.8248  0.5080
   36CHL1   H3' 2594   6.531   6.828   6.868 -0.9592 -0.9669 -0.6654
   36CHL1    C4 2595   6.467   6.644   7.130  0.6071  0.0273 -0.1932
   36CHL1   H4A 2596   6.376   6.593   7.094 -0.0394  1.3897 -0.5580
   36CHL1   H4B 2597   6.556   6.577   7.126 -0.1210 -1.3170  2.8075
   36CHL1    C5 2598   6.461   6.690   7.276  0.7524  0.2146 -0.2732
   36CHL1    C6 2599   6.540   6.638   7.367 -0.9812 -0.1256 -0.3894
   36CHL1    H6 2600   6.622   6.571   7.336  0.8304  2.4063 -1.4115
   36CHL1    C7 2601   6.528   6.673   7.519 -0.0022 -0.7801  0.7996
   36CHL1   H7A 2602   6.551   6.583   7.581 -0.9119 -0.3919  1.7195
   36CHL1   H7B 2603   6.605   6.749   7.545 -1.8515  1.1479  0.9154
   36CHL1    C8 2604   6.392   6.736   7.558 -0.2286 -0.1220  0.0792
   36CHL1    H8 2605   6.321   6.650   7.564  1.3954 -1.7698 -2.1964
   36CHL1   C14 2606   6.395   6.803   7.698  0.3111  0.5066  0.1230
   36CHL1   H14 2607   6.461   6.892   7.692 -0.5735  1.1228 -0.8040
   36CHL1   C15 2608   6.440   6.714   7.813  0.2899 -0.5959  0.1716
   36CHL1  H15A 2609   6.396   6.612   7.806 -0.4939 -0.4420  2.1535
   36CHL1  H15B 2610   6.548   6.699   7.835  0.8563  0.5886 -1.5870
   36CHL1   C16 2611   6.381   6.781   7.942 -0.3602  0.1123  0.5478
   36CHL1  H16A 2612   6.318   6.710   7.999 -0.5622  1.9399  2.7501
   36CHL1  H16B 2613   6.457   6.801   8.020  0.3138 -1.5122  0.3340
   36CHL1   C17 2614   6.295   6.904   7.890 -0.8716  0.6380 -0.3388
   36CHL1   H17 2615   6.371   6.981   7.863 -1.4351  1.4007  0.1916
   36CHL1   C13 2616   6.255   6.847   7.747 -0.5760  0.6061  0.3083
   36CHL1   C18 2617   6.145   6.731   7.749 -0.1929  0.0011  0.2775
   36CHL1  H18A 2618   6.055   6.773   7.798  0.4402  2.2091 -0.3353
   36CHL1  H18B 2619   6.124   6.703   7.644  3.4605  0.2232 -0.6581
   36CHL1  H18C 2620   6.173   6.637   7.801 -1.4093 -0.5599 -0.0483
   36CHL1   C12 2621   6.212   6.952   7.650 -0.3972 -0.2229  0.7917
   36CHL1  H12A 2622   6.116   7.005   7.671 -0.1610  1.4808 -1.9545
   36CHL1  H12B 2623   6.290   7.030   7.656  0.0941 -0.5176 -1.2245
   36CHL1   C11 2624   6.226   6.915   7.503  0.5975  0.7281 -0.5671
   36CHL1  H11A 2625   6.143   6.845   7.479  0.7395 -0.1717  1.3667
   36CHL1  H11B 2626   6.221   7.000   7.431  1.8190 -0.0644 -1.6150
   36CHL1    C9 2627   6.349   6.837   7.457  0.2472 -0.0002  0.3235
   36CHL1    H9 2628   6.434   6.909   7.455  0.8399 -0.6209  1.8107
   36CHL1   C10 2629   6.347   6.789   7.307 -0.5681  0.3462 -0.5836
   36CHL1   C19 2630   6.208   6.734   7.260  0.3915  0.3990  0.1606
   36CHL1  H19A 2631   6.202   6.691   7.158  0.4698 -0.9259  0.6985
   36CHL1  H19B 2632   6.163   6.666   7.335  1.4347 -0.2911  0.1717
   36CHL1  H19C 2633   6.150   6.829   7.257  1.4144  1.0356 -0.0391
   36CHL1    C1 2634   6.377   6.917   7.220 -0.1811 -0.1619 -0.2835
   36CHL1   H1A 2635   6.306   7.000   7.242  0.7991  0.3004  1.3159
   36CHL1   H1B 2636   6.481   6.953   7.236 -0.3393  1.0214 -1.7097
   36CHL1    C2 2637   6.392   6.881   7.069 -0.2353  0.3833  0.2059
   36CHL1   H2A 2638   6.418   6.974   7.015 -3.0115  1.2586  0.2000
   36CHL1   H2B 2639   6.292   6.853   7.028 -0.7975  1.4807  0.7839
   36CHL1   C20 2640   6.190   6.951   7.991 -0.4195 -0.2262  0.6227
   36CHL1   H20 2641   6.118   6.870   8.015 -0.4190 -0.5511 -0.4413
   36CHL1   C21 2642   6.104   7.065   7.938  1.0988  0.5625 -0.4287
   36CHL1  H21A 2643   6.047   7.122   8.014  1.4311 -1.7654  1.6849
   36CHL1  H21B 2644   6.036   7.027   7.858  1.2169 -1.3914  0.3465
   36CHL1  H21C 2645   6.167   7.139   7.884  1.2656 -1.1594 -2.7778
   36CHL1   C22 2646   6.241   7.011   8.126 -1.0096 -0.3478 -0.3205
   36CHL1  H22A 2647   6.164   7.079   8.169 -1.4659 -1.7684  1.1971
   36CHL1  H22B 2648   6.265   6.930   8.198 -1.2178  0.0162  0.1650
   36CHL1   C23 2649   6.368   7.105   8.121 -0.1386  0.3292  0.2434
   36CHL1  H23A 2650   6.446   7.055   8.059  1.3119  0.4165  1.9176
   36CHL1  H23B 2651   6.351   7.200   8.066 -0.2090  0.1445 -0.0567
   36CHL1   C24 2652   6.422   7.122   8.261 -0.9486 -0.3188 -0.7213
   36CHL1  H24A 2653   6.340   7.146   8.331 -0.1551 -1.0286  0.4743
   36CHL1  H24B 2654   6.465   7.030   8.305 -0.3107 -1.0983 -2.8338
   36CHL1   C25 2655   6.536   7.221   8.269 -0.2545 -0.0432  0.4147
   36CHL1   H25 2656   6.507   7.304   8.200  2.7743  0.3736 -0.4837
   36CHL1   C26 2657   6.564   7.263   8.414  0.4767  0.6992  0.0981
   36CHL1  H26A 2658   6.623   7.357   8.401 -0.9350  1.7002  0.6481
   36CHL1  H26B 2659   6.471   7.288   8.471  0.6493 -2.4284  1.9743
   36CHL1  H26C 2660   6.606   7.180   8.475 -1.9790 -1.1595 -0.5871
   36CHL1   C27 2661   6.660   7.154   8.209 -0.2158 -0.5810 -0.0316
   36CHL1  H27A 2662   6.643   7.104   8.111 -0.5348  2.2608 -1.5248
   36CHL1  H27B 2663   6.737   7.233   8.195  0.8677 -1.7622 -0.8624
   36CHL1  H27C 2664   6.711   7.085   8.280  2.6432  0.6603 -0.7272
   37CHL1    C3 2665   3.396   4.560   6.811  0.0571 -0.1313  0.2014
   37CHL1    H3 2666   3.478   4.631   6.835  0.1607  0.6766 -2.2421
   37CHL1    O3 2667   3.386   4.570   6.672 -0.5243  0.3121 -0.9556
   37CHL1   H3' 2668   3.364   4.661   6.653  1.3514  1.5094  1.8924
   37CHL1    C4 2669   3.428   4.410   6.842  0.1134  0.4421 -0.6049
   37CHL1   H4A 2670   3.362   4.342   6.785  0.6487 -0.2866 -0.3622
   37CHL1   H4B 2671   3.526   4.415   6.791  0.2487  3.0330 -0.2373
   37CHL1    C5 2672   3.432   4.374   6.989  0.3472 -0.2982 -1.3701
   37CHL1    C6 2673   3.536   4.312   7.051 -0.0294  0.1546 -0.2414
   37CHL1    H6 2674   3.623   4.299   6.985  0.6994 -0.4220  0.8007
   37CHL1    C7 2675   3.546   4.263   7.197  0.1315  0.0759 -0.9447
   37CHL1   H7A 2676   3.572   4.155   7.201  0.4980  0.1972  1.8867
   37CHL1   H7B 2677   3.625   4.316   7.255  0.6542  2.5482 -3.6735
   37CHL1    C8 2678   3.410   4.284   7.271  0.1973  1.1317 -0.1088
   37CHL1    H8 2679   3.341   4.198   7.252  0.9981  0.5535 -0.4813
   37CHL1   C14 2680   3.438   4.283   7.422  0.5197 -0.0084 -0.0525
   37CHL1   H14 2681   3.487   4.381   7.435  0.1522  0.0369  1.1186
   37CHL1   C15 2682   3.547   4.183   7.477  0.1135 -0.6603 -0.2178
   37CHL1  H15A 2683   3.526   4.085   7.428 -1.8292 -0.7760  0.7584
   37CHL1  H15B 2684   3.652   4.218   7.473 -0.3589  1.1076  1.5793
   37CHL1   C16 2685   3.506   4.163   7.626  0.3728  0.5537 -0.5839
   37CHL1  H16A 2686   3.469   4.059   7.645  2.8730 -0.0987  1.2989
   37CHL1  H16B 2687   3.584   4.187   7.702 -0.7155  1.6488  0.2216
   37CHL1   C17 2688   3.390   4.269   7.649 -0.4327  0.1086 -0.6189
   37CHL1   H17 2689   3.430   4.366   7.685  4.2429 -1.5607 -0.4868
   37CHL1   C13 2690   3.319   4.289   7.511 -0.4180  0.0217  0.4354
   37CHL1   C18 2691   3.240   4.160   7.489 -0.0537  0.4372  0.1750
   37CHL1  H18A 2692   3.171   4.138   7.574  1.8140  1.1984  1.9938
   37CHL1  H18B 2693   3.190   4.154   7.391 -1.2583  1.4490  0.6962
   37CHL1  H18C 2694   3.309   4.073   7.484  0.9204  1.2173 -0.3310
   37CHL1   C12 2695   3.247   4.422   7.483 -0.6926 -0.0081 -0.0536
   37CHL1  H12A 2696   3.157   4.435   7.548  0.5044 -2.7570  2.4043
   37CHL1  H12B 2697   3.326   4.497   7.503  0.3510 -0.9754 -0.4287
   37CHL1   C11 2698   3.221   4.443   7.329 -0.2621 -0.0562 -0.2577
   37CHL1  H11A 2699   3.138   4.378   7.293 -0.0110 -0.6578  0.2357
   37CHL1  H11B 2700   3.195   4.551   7.319  1.4667  0.3791 -0.3976
   37CHL1    C9 2701   3.347   4.410   7.231  0.4936 -0.3766 -0.2081
   37CHL1    H9 2702   3.426   4.486   7.244 -1.1357  1.1952  1.0384
   37CHL1   C10 2703   3.312   4.416   7.080  0.4051 -0.4347 -0.3112
   37CHL1   C19 2704   3.184   4.324   7.049 -0.8068 -0.2379 -0.2495
   37CHL1  H19A 2705   3.185   4.223   7.095  0.5772  1.1816  3.1991
   37CHL1  H19B 2706   3.104   4.389   7.090  0.9167  2.0096 -0.2849
   37CHL1  H19C 2707   3.168   4.323   6.939  0.7279 -0.7500 -0.5039
   37CHL1    C1 2708   3.281   4.563   7.041 -0.1174  0.3887  0.2629
   37CHL1   H1A 2709   3.193   4.601   7.097  0.2306  1.0175  0.3958
   37CHL1   H1B 2710   3.364   4.625   7.080  0.7115 -1.8227  2.2285
   37CHL1    C2 2711   3.264   4.595   6.886  0.0197  0.1626  0.0702
   37CHL1   H2A 2712   3.226   4.699   6.877 -0.4026 -0.0103 -0.2055
   37CHL1   H2B 2713   3.182   4.531   6.846  1.4229 -1.0611 -0.9649
   37CHL1   C20 2714   3.305   4.226   7.770  0.5052  0.4061 -0.7723
   37CHL1   H20 2715   3.276   4.120   7.751  1.8106  0.1241 -1.3341
   37CHL1   C21 2716   3.183   4.315   7.781  0.5938  0.4389 -0.5714
   37CHL1  H21A 2717   3.115   4.290   7.698 -1.6431 -3.0133  2.0188
   37CHL1  H21B 2718   3.207   4.424   7.777 -1.2410  0.8328 -1.9907
   37CHL1  H21C 2719   3.127   4.292   7.874  0.6475 -0.3657 -0.7301
   37CHL1   C22 2720   3.379   4.240   7.906 -0.2832 -0.2386  0.4733
   37CHL1  H22A 2721   3.481   4.196   7.895 -0.7221 -1.5100  1.2288
   37CHL1  H22B 2722   3.394   4.345   7.938  1.7936 -0.0154 -1.0008
   37CHL1   C23 2723   3.317   4.152   8.018  0.2245  0.1079 -0.2711
   37CHL1  H23A 2724   3.209   4.176   8.015 -0.1233 -1.3272  0.1613
   37CHL1  H23B 2725   3.332   4.045   7.990  1.3103  1.2264 -4.9088
   37CHL1   C24 2726   3.377   4.191   8.154  0.9746  0.7317 -0.0537
   37CHL1  H24A 2727   3.484   4.177   8.129  0.2745 -3.3386 -1.4416
   37CHL1  H24B 2728   3.356   4.298   8.179  1.5987  0.5186  1.5387
   37CHL1   C25 2729   3.335   4.112   8.280  0.3353  1.1203 -0.3311
   37CHL1   H25 2730   3.398   4.155   8.361  1.0343  0.3952 -0.4803
   37CHL1   C26 2731   3.185   4.142   8.329 -0.3303  0.5420  0.2380
   37CHL1  H26A 2732   3.159   4.064   8.403  1.3720 -0.6764 -0.3888
   37CHL1  H26B 2733   3.181   4.246   8.366 -1.7081  1.9813 -3.4721
   37CHL1  H26C 2734   3.122   4.126   8.238  1.5123  0.0726 -1.0079
   37CHL1   C27 2735   3.358   3.959   8.264  0.4605 -0.5126  0.4543
   37CHL1  H27A 2736   3.322   3.895   8.347 -0.4393 -0.0350  0.4382
   37CHL1  H27B 2737   3.306   3.934   8.169  1.1090  2.1740 -0.7109
   37CHL1  H27C 2738   3.464   3.927   8.260 -0.3128 -3.3033  0.2845
   38CHL1    C3 2739   4.254   3.442   6.878  0.1674  0.1105 -0.2299
   38CHL1    H3 2740   4.361   3.454   6.907  0.7930 -1.0456 -1.8875
   38CHL1    O3 2741   4.254   3.449   6.732  0.1776 -0.0108 -0.1212
   38CHL1   H3' 2742   4.348   3.452   6.714  0.9073  1.7519  3.1529
   38CHL1    C4 2743   4.202   3.309   6.923 -0.2043  0.6058 -0.3144
   38CHL1   H4A 2744   4.103   3.287   6.879 -0.5056  1.4524 -0.0859
   38CHL1   H4B 2745   4.273   3.239   6.876 -0.2154  1.2375 -1.2933
   38CHL1    C5 2746   4.196   3.291   7.071  0.1010 -0.6192  0.9087
   38CHL1    C6 2747   4.231   3.184   7.137  0.4292 -0.4244 -0.9299
   38CHL1    H6 2748   4.289   3.107   7.083 -0.4623 -1.5656 -0.3134
   38CHL1    C7 2749   4.215   3.162   7.285 -0.3098 -0.2453  0.6683
   38CHL1   H7A 2750   4.150   3.074   7.299  0.4007 -0.9338 -0.2472
   38CHL1   H7B 2751   4.310   3.140   7.339  0.0436  0.6568  0.4427
   38CHL1    C8 2752   4.151   3.278   7.365 -0.5429  0.5809 -0.1325
   38CHL1    H8 2753   4.043   3.253   7.362 -0.2001 -1.0212  0.0318
   38CHL1   C14 2754   4.191   3.280   7.510 -0.0449 -0.1532 -0.4180
   38CHL1   H14 2755   4.299   3.308   7.513 -0.2848  0.7531  0.0933
   38CHL1   C15 2756   4.188   3.153   7.598 -0.0732  0.4639 -0.1529
   38CHL1  H15A 2757   4.088   3.105   7.593 -0.9371  1.9378  1.7593
   38CHL1  H15B 2758   4.267   3.077   7.575  1.0533  0.8457  2.2123
   38CHL1   C16 2759   4.219   3.207   7.738 -0.3899  0.9926  0.7440
   38CHL1  H16A 2760   4.151   3.167   7.816  0.3923 -0.1189  0.8759
   38CHL1  H16B 2761   4.325   3.194   7.771 -0.4071  1.1720  0.8714
   38CHL1   C17 2762   4.196   3.364   7.734  0.1475 -0.5753 -0.3706
   38CHL1   H17 2763   4.294   3.417   7.731  0.2373 -0.6018  1.1413
   38CHL1   C13 2764   4.123   3.392   7.599 -0.1687 -0.4101  0.5606
   38CHL1   C18 2765   3.978   3.356   7.611  0.4525 -0.1586  0.1694
   38CHL1  H18A 2766   3.931   3.345   7.511  0.8771 -1.0303  0.0565
   38CHL1  H18B 2767   3.945   3.272   7.677 -0.4981  0.3556  0.3589
   38CHL1  H18C 2768   3.910   3.436   7.646  0.0095 -1.2400  1.9226
   38CHL1   C12 2769   4.145   3.530   7.532  0.3403  0.4934 -0.6074
   38CHL1  H12A 2770   4.081   3.607   7.578  1.6815  0.6635  1.0742
   38CHL1  H12B 2771   4.253   3.558   7.541  0.1611  0.7738  0.9265
   38CHL1   C11 2772   4.106   3.529   7.381 -0.4835  1.3817  0.2620
   38CHL1  H11A 2773   3.996   3.513   7.377 -0.1922 -3.9204  3.9594
   38CHL1  H11B 2774   4.130   3.624   7.329 -0.5606  0.5886 -1.2663
   38CHL1    C9 2775   4.178   3.418   7.296  0.1742 -0.2742 -0.1570
   38CHL1    H9 2776   4.288   3.429   7.306  0.0307  1.9666 -0.5730
   38CHL1   C10 2777   4.135   3.419   7.143 -0.7279  0.0367 -0.4654
   38CHL1   C19 2778   3.984   3.392   7.131 -0.5719  0.1869 -0.1879
   38CHL1  H19A 2779   3.929   3.475   7.180 -0.0096  0.0120  0.7528
   38CHL1  H19B 2780   3.957   3.386   7.023  1.5770 -2.1044 -0.7071
   38CHL1  H19C 2781   3.959   3.300   7.186  0.4338  1.0045  1.7342
   38CHL1    C1 2782   4.177   3.556   7.083 -0.1080  0.2724 -0.2791
   38CHL1   H1A 2783   4.099   3.631   7.110 -0.6475  0.2266 -1.6093
   38CHL1   H1B 2784   4.274   3.591   7.122  0.0911  2.2398 -2.2861
   38CHL1    C2 2785   4.175   3.556   6.935 -0.3298 -0.0248  0.1243
   38CHL1   H2A 2786   4.206   3.657   6.901 -0.7129  0.0638  0.0292
   38CHL1   H2B 2787   4.076   3.529   6.894  0.8440 -1.2533 -2.0358
   38CHL1   C20 2788   4.131   3.420   7.865 -0.2893 -0.6062  0.9801
   38CHL1   H20 2789   4.023   3.396   7.870  0.0169 -2.0206  1.2096
   38CHL1   C21 2790   4.120   3.579   7.856 -0.0903 -0.3115  0.5086
   38CHL1  H21A 2791   4.218   3.624   7.831 -0.2247 -0.6991 -0.7421
   38CHL1  H21B 2792   4.094   3.624   7.955  3.8473  0.4602  1.3524
   38CHL1  H21C 2793   4.046   3.602   7.776 -1.3818 -3.2163  0.7365
   38CHL1   C22 2794   4.215   3.386   7.993 -0.2706 -0.6544 -0.0252
   38CHL1  H22A 2795   4.167   3.441   8.076  1.6139  1.4124 -0.2186
   38CHL1  H22B 2796   4.204   3.277   8.010  2.3446 -1.1946 -1.2763
   38CHL1   C23 2797   4.370   3.421   7.994  0.2319  0.6500  0.1729
   38CHL1  H23A 2798   4.410   3.388   7.896  0.7850  0.3371  0.5003
   38CHL1  H23B 2799   4.389   3.529   7.981  2.5909  0.3044  0.3180
   38CHL1   C24 2800   4.455   3.376   8.124  0.0113 -0.3668  0.7822
   38CHL1  H24A 2801   4.405   3.436   8.203 -1.5862 -2.2558  1.3099
   38CHL1  H24B 2802   4.431   3.269   8.142  0.7305 -1.4165 -3.4238
   38CHL1   C25 2803   4.605   3.397   8.115  0.4134 -0.2027  0.2634
   38CHL1   H25 2804   4.636   3.341   8.025  0.2446 -1.8097  1.1645
   38CHL1   C26 2805   4.640   3.551   8.114 -0.2108  0.2374  0.6976
   38CHL1  H26A 2806   4.611   3.605   8.021  1.1988  1.5079  0.9565
   38CHL1  H26B 2807   4.595   3.609   8.197  0.6929  2.5619 -0.3443
   38CHL1  H26C 2808   4.749   3.569   8.124 -0.3383  0.9268  0.9639
   38CHL1   C27 2809   4.666   3.337   8.239 -0.8993  0.1064 -0.3855
   38CHL1  H27A 2810   4.770   3.307   8.212 -1.7307 -1.1394 -2.4315
   38CHL1  H27B 2811   4.666   3.399   8.331 -1.3966  0.1680 -0.4264
   38CHL1  H27C 2812   4.613   3.243   8.266 -2.4287  0.9898 -0.1866
   39CHL1    C3 2813   5.754   4.885   6.874  0.1331 -1.1417  0.2205
   39CHL1    H3 2814   5.731   4.777   6.857 -2.0313 -0.4118 -2.0527
   39CHL1    O3 2815   5.788   4.953   6.753 -0.3639  0.3332  0.3876
   39CHL1   H3' 2816   5.759   5.044   6.765 -1.8121 -0.2755  1.7951
   39CHL1    C4 2817   5.619   4.952   6.916  0.1908  0.3459  0.0628
   39CHL1   H4A 2818   5.639   5.061   6.928  3.4814 -0.1229 -0.0427
   39CHL1   H4B 2819   5.553   4.949   6.827 -0.3382  0.6940  0.4415
   39CHL1    C5 2820   5.577   4.889   7.051  0.5436  0.1733  0.0237
   39CHL1    C6 2821   5.463   4.822   7.072 -0.3568 -0.2431  0.6206
   39CHL1    H6 2822   5.400   4.804   6.984 -0.7703  0.1717  0.8275
   39CHL1    C7 2823   5.416   4.764   7.209  0.2785  0.0845  1.1000
   39CHL1   H7A 2824   5.307   4.781   7.223 -0.3767 -2.2155 -0.5605
   39CHL1   H7B 2825   5.427   4.654   7.196 -2.9363 -0.3570  1.3320
   39CHL1    C8 2826   5.490   4.832   7.323 -0.2961 -0.0855 -0.3470
   39CHL1    H8 2827   5.466   4.941   7.327  2.3725  0.5902 -0.8374
   39CHL1   C14 2828   5.475   4.757   7.453 -0.4651 -0.2407 -0.0163
   39CHL1   H14 2829   5.517   4.658   7.428  0.4204 -0.8072  3.2077
   39CHL1   C15 2830   5.332   4.741   7.500  0.2143 -0.1398  0.0761
   39CHL1  H15A 2831   5.291   4.844   7.503 -1.2468 -0.7205  1.4449
   39CHL1  H15B 2832   5.274   4.671   7.435  0.0038  0.9482 -0.9433
   39CHL1   C16 2833   5.352   4.691   7.650 -0.2282 -0.1084 -0.3113
   39CHL1  H16A 2834   5.295   4.758   7.718  1.2843  2.5606 -1.5280
   39CHL1  H16B 2835   5.321   4.585   7.646  0.9149 -0.4570 -0.1359
   39CHL1   C17 2836   5.504   4.695   7.683 -0.0989  0.3242 -0.9289
   39CHL1   H17 2837   5.551   4.595   7.671  0.7398  0.6964 -0.8386
   39CHL1   C13 2838   5.554   4.790   7.577  0.6385  0.9256  0.3236
   39CHL1   C18 2839   5.523   4.937   7.625  0.2169  0.2937 -0.0282
   39CHL1  H18A 2840   5.422   4.954   7.666  0.8140  2.3883  0.7078
   39CHL1  H18B 2841   5.600   4.965   7.701 -2.0108  3.0779  1.4054
   39CHL1  H18C 2842   5.532   5.013   7.544 -2.5515 -0.8202 -1.4947
   39CHL1   C12 2843   5.697   4.769   7.539 -0.2156 -0.9605 -0.2089
   39CHL1  H12A 2844   5.754   4.811   7.624 -0.6867  1.2482 -0.9257
   39CHL1  H12B 2845   5.719   4.660   7.532 -1.3109 -1.1956 -0.1166
   39CHL1   C11 2846   5.732   4.852   7.414  0.9353 -0.3268  0.5703
   39CHL1  H11A 2847   5.707   4.957   7.441  1.0336  0.3105 -1.5896
   39CHL1  H11B 2848   5.841   4.839   7.397  0.9828 -0.3439  0.8875
   39CHL1    C9 2849   5.642   4.828   7.290 -0.2794 -0.7033 -0.7213
   39CHL1    H9 2850   5.653   4.720   7.267 -1.9097 -1.0249 -0.1389
   39CHL1   C10 2851   5.680   4.910   7.159  1.1692 -0.0415  0.0292
   39CHL1   C19 2852   5.699   5.060   7.200  0.6730 -0.2943  0.4465
   39CHL1  H19A 2853   5.775   5.071   7.280 -0.9463  1.6252  1.8065
   39CHL1  H19B 2854   5.729   5.119   7.110  1.7218  0.4383  1.2449
   39CHL1  H19C 2855   5.610   5.104   7.249  0.2345 -2.0316  1.2786
   39CHL1    C1 2856   5.811   4.856   7.109  0.1909  1.0269 -0.6453
   39CHL1   H1A 2857   5.879   4.871   7.195 -1.6079 -0.0315  1.0454
   39CHL1   H1B 2858   5.807   4.748   7.084  0.4848  0.2953  2.1877
   39CHL1    C2 2859   5.865   4.914   6.979  0.9121  0.3500  0.5961
   39CHL1   H2A 2860   5.958   4.871   6.937 -1.0303 -3.1031 -0.6050
   39CHL1   H2B 2861   5.880   5.022   7.002 -1.1388  0.9804 -0.7147
   39CHL1   C20 2862   5.527   4.731   7.835 -0.1456  0.5298  0.1229
   39CHL1   H20 2863   5.512   4.839   7.857  1.8644  1.3663 -2.1198
   39CHL1   C21 2864   5.676   4.696   7.876  0.0671 -0.4696  0.0187
   39CHL1  H21A 2865   5.698   4.728   7.980  0.9170  0.8015 -0.5225
   39CHL1  H21B 2866   5.746   4.740   7.802 -0.2414  1.1708  0.6682
   39CHL1  H21C 2867   5.682   4.585   7.879 -0.9336 -0.5163  2.2083
   39CHL1   C22 2868   5.437   4.638   7.928  0.0046 -0.0235 -0.2700
   39CHL1  H22A 2869   5.331   4.664   7.907 -0.4979 -0.0588  1.9422
   39CHL1  H22B 2870   5.459   4.530   7.912 -2.1799 -0.5224 -0.1995
   39CHL1   C23 2871   5.442   4.649   8.081 -0.0688 -0.8051 -0.2009
   39CHL1  H23A 2872   5.544   4.634   8.122 -0.5258  0.5564  1.5576
   39CHL1  H23B 2873   5.414   4.754   8.100 -1.3214 -0.9780 -0.9421
   39CHL1   C24 2874   5.353   4.554   8.158  0.0656 -0.3355 -0.2251
   39CHL1  H24A 2875   5.249   4.570   8.121 -0.8451  0.7631  2.5746
   39CHL1  H24B 2876   5.386   4.448   8.149  1.5590 -0.0287  1.1585
   39CHL1   C25 2877   5.346   4.600   8.311 -0.1247 -0.3506  0.0058
   39CHL1   H25 2878   5.338   4.711   8.310  1.1062 -0.1995 -2.7971
   39CHL1   C26 2879   5.227   4.551   8.394  0.2506 -0.4126  0.3611
   39CHL1  H26A 2880   5.241   4.441   8.386  0.2354 -0.3569 -0.4715
   39CHL1  H26B 2881   5.233   4.586   8.499  3.5540  1.0616 -0.2193
   39CHL1  H26C 2882   5.134   4.578   8.339  2.4131  1.0635 -2.8127
   39CHL1   C27 2883   5.474   4.577   8.389  0.6105 -0.4140  0.1721
   39CHL1  H27A 2884   5.561   4.634   8.351 -0.2242 -0.2873 -1.6212
   39CHL1  H27B 2885   5.456   4.615   8.492 -0.5476 -2.6046  0.8470
   39CHL1  H27C 2886   5.494   4.467   8.388  2.1052 -0.1806  0.9599
   40CHL1    C3 2887   1.529   2.196   6.798  0.0027 -0.2530  0.2757
   40CHL1    H3 2888   1.572   2.291   6.760  1.1131  0.0156  2.1060
   40CHL1    O3 2889   1.497   2.126   6.679  0.5178 -0.0364 -0.3858
   40CHL1   H3' 2890   1.493   2.034   6.709  0.3360  0.1070  0.0289
   40CHL1    C4 2891   1.630   2.121   6.886  0.3877  0.8116  0.5442
   40CHL1   H4A 2892   1.603   2.016   6.910  2.4954 -0.2357 -1.2778
   40CHL1   H4B 2893   1.723   2.118   6.825  0.8216 -1.1309  1.2200
   40CHL1    C5 2894   1.655   2.178   7.028 -0.4491  0.5113  0.5257
   40CHL1    C6 2895   1.787   2.192   7.065  0.5738  0.3252 -0.0518
   40CHL1    H6 2896   1.865   2.176   6.988  0.7499 -1.0226  0.3720
   40CHL1    C7 2897   1.823   2.260   7.194  0.0486 -0.4549  0.7981
   40CHL1   H7A 2898   1.917   2.217   7.236 -0.8283 -1.6282  1.6038
   40CHL1   H7B 2899   1.849   2.367   7.179  1.5650 -0.5385  2.4386
   40CHL1    C8 2900   1.706   2.265   7.297 -0.7855  0.3342 -0.6829
   40CHL1    H8 2901   1.685   2.162   7.333  1.1866  0.7096  1.7623
   40CHL1   C14 2902   1.733   2.361   7.409 -0.0519  0.2892  0.7527
   40CHL1   H14 2903   1.744   2.461   7.361  1.4927 -0.1557  0.1000
   40CHL1   C15 2904   1.860   2.325   7.491 -0.3100 -0.4061 -0.1185
   40CHL1  H15A 2905   1.857   2.219   7.522  0.9109 -1.2035 -2.4492
   40CHL1  H15B 2906   1.965   2.329   7.454 -0.6522 -0.0384 -1.1050
   40CHL1   C16 2907   1.842   2.412   7.616 -0.1680 -0.0492 -0.0212
   40CHL1  H16A 2908   1.888   2.357   7.700 -2.1038 -0.9622  0.4918
   40CHL1  H16B 2909   1.904   2.501   7.593  0.8920 -1.1603 -1.6995
   40CHL1   C17 2910   1.697   2.466   7.618 -0.5235 -0.2732  1.5917
   40CHL1   H17 2911   1.695   2.569   7.577 -1.1386 -0.1305  1.9646
   40CHL1   C13 2912   1.621   2.376   7.514 -0.2538 -0.5578 -0.0386
   40CHL1   C18 2913   1.597   2.242   7.593  0.3957 -0.4244 -0.1079
   40CHL1  H18A 2914   1.508   2.255   7.657  0.8664  1.6395  0.2053
   40CHL1  H18B 2915   1.570   2.148   7.540 -2.3747 -0.0535  0.5008
   40CHL1  H18C 2916   1.681   2.227   7.664  1.2536  0.5552 -0.8732
   40CHL1   C12 2917   1.494   2.427   7.444 -0.1144 -0.0694  0.4904
   40CHL1  H12A 2918   1.416   2.438   7.522 -0.4859 -0.4562  0.1779
   40CHL1  H12B 2919   1.525   2.527   7.404 -1.6622 -0.1338 -0.9691
   40CHL1   C11 2920   1.462   2.339   7.325  0.4179  0.4463  0.4590
   40CHL1  H11A 2921   1.424   2.240   7.357  1.0612 -0.0487 -0.2447
   40CHL1  H11B 2922   1.376   2.379   7.267 -0.7637 -0.7024  1.3714
   40CHL1    C9 2923   1.579   2.312   7.231  0.8220  0.3793 -0.1941
   40CHL1    H9 2924   1.593   2.414   7.189  0.2931  2.2128  3.6683
   40CHL1   C10 2925   1.537   2.219   7.109  0.3755  0.5176 -0.7158
   40CHL1   C19 2926   1.456   2.092   7.155  0.5500  0.3971 -0.0159
   40CHL1  H19A 2927   1.418   2.030   7.071 -1.8474 -0.6360  1.7349
   40CHL1  H19B 2928   1.520   2.027   7.217  0.0082 -2.2307 -2.0567
   40CHL1  H19C 2929   1.364   2.124   7.208  0.7818  1.0385  0.0170
   40CHL1    C1 2930   1.452   2.307   7.015  0.0690 -0.1029 -0.3314
   40CHL1   H1A 2931   1.359   2.321   7.073  0.4441 -0.6223  0.4086
   40CHL1   H1B 2932   1.505   2.404   7.001  3.1249 -1.0612  2.9204
   40CHL1    C2 2933   1.405   2.236   6.879  0.0540  0.3337 -0.5679
   40CHL1   H2A 2934   1.338   2.296   6.814  0.0540 -0.7158 -1.5829
   40CHL1   H2B 2935   1.356   2.141   6.910 -0.5565  0.5100 -0.9858
   40CHL1   C20 2936   1.637   2.503   7.755 -0.4525 -0.1717  0.8431
   40CHL1   H20 2937   1.591   2.411   7.796  0.5296 -0.3493  1.5764
   40CHL1   C21 2938   1.518   2.605   7.742 -0.2014 -0.9413 -0.1336
   40CHL1  H21A 2939   1.443   2.579   7.664 -0.1319  0.2062 -0.5950
   40CHL1  H21B 2940   1.556   2.704   7.712  0.1128 -1.1888 -0.5556
   40CHL1  H21C 2941   1.473   2.624   7.842 -0.5900 -4.4224  0.5002
   40CHL1   C22 2942   1.738   2.550   7.863 -0.8986  0.4670  0.0187
   40CHL1  H22A 2943   1.821   2.477   7.874  0.6110  2.1876  0.4599
   40CHL1  H22B 2944   1.794   2.637   7.821  2.1893 -0.9341  0.9383
   40CHL1   C23 2945   1.675   2.595   7.997  0.1734 -0.4876 -0.0536
   40CHL1  H23A 2946   1.615   2.688   7.985  0.3495 -0.4792 -0.9137
   40CHL1  H23B 2947   1.604   2.518   8.034 -1.6372  2.6237  3.7771
   40CHL1   C24 2948   1.772   2.603   8.115  0.2643  0.1702 -0.5271
   40CHL1  H24A 2949   1.828   2.507   8.114  2.9095  1.6052 -0.1059
   40CHL1  H24B 2950   1.852   2.679   8.100  1.6622 -1.0936  0.2940
   40CHL1   C25 2951   1.703   2.627   8.253 -0.7059 -0.1738  0.6681
   40CHL1   H25 2952   1.626   2.549   8.272 -0.9280 -0.2486 -0.4477
   40CHL1   C26 2953   1.808   2.618   8.363  0.2191  0.2455 -0.8353
   40CHL1  H26A 2954   1.750   2.626   8.458 -3.4009 -0.2937 -2.8080
   40CHL1  H26B 2955   1.872   2.527   8.367  0.8383  0.7000  2.0624
   40CHL1  H26C 2956   1.864   2.714   8.357  0.1810  0.3710  0.3793
   40CHL1   C27 2957   1.644   2.767   8.258 -0.1925 -0.1415  0.5162
   40CHL1  H27A 2958   1.576   2.775   8.344 -2.7805 -1.8833 -1.2290
   40CHL1  H27B 2959   1.716   2.851   8.266 -1.1777  0.8732 -0.7410
   40CHL1  H27C 2960   1.590   2.798   8.166  2.7729  0.2310 -1.2660
   41CHL1    C3 2961   2.287   2.398   7.034 -0.3446  0.6686 -0.6550
   41CHL1    H3 2962   2.391   2.359   7.038 -0.3940  0.6052  0.1767
   41CHL1    O3 2963   2.229   2.389   6.905  0.0095  0.6838  0.0557
   41CHL1   H3' 2964   2.292   2.424   6.841 -0.4147  0.4124 -0.5229
   41CHL1    C4 2965   2.208   2.329   7.137  0.6620  0.2775 -0.4150
   41CHL1   H4A 2966   2.103   2.358   7.119  0.4785  1.4884  2.1804
   41CHL1   H4B 2967   2.204   2.219   7.121  1.2002  0.3530 -1.1140
   41CHL1    C5 2968   2.242   2.364   7.286  0.0007  0.7405  0.4493
   41CHL1    C6 2969   2.281   2.260   7.371  0.3953 -0.0098  0.4141
   41CHL1    H6 2970   2.289   2.154   7.345 -1.3024 -0.4185  1.4395
   41CHL1    C7 2971   2.326   2.293   7.511  0.0523  0.0486 -0.7120
   41CHL1   H7A 2972   2.292   2.207   7.574 -1.4832 -0.6101 -2.3316
   41CHL1   H7B 2973   2.436   2.295   7.519 -0.0731  0.4208  1.5241
   41CHL1    C8 2974   2.274   2.428   7.563 -0.0664 -0.6352  0.1048
   41CHL1    H8 2975   2.165   2.414   7.580 -0.1675  0.8284  0.8287
   41CHL1   C14 2976   2.339   2.463   7.690 -0.1534 -0.2579  0.1860
   41CHL1   H14 2977   2.447   2.476   7.665 -0.3621  2.1165  0.3473
   41CHL1   C15 2978   2.335   2.364   7.802  0.6612  1.3085 -0.5470
   41CHL1  H15A 2979   2.229   2.329   7.794  1.2665 -0.6907 -0.3378
   41CHL1  H15B 2980   2.404   2.279   7.782 -0.6278  0.1455 -0.2359
   41CHL1   C16 2981   2.368   2.429   7.932 -0.2515  0.1534 -0.1268
   41CHL1  H16A 2982   2.282   2.402   7.997  0.8898 -0.5657  1.1269
   41CHL1  H16B 2983   2.461   2.387   7.977 -0.7632 -0.2535  0.5847
   41CHL1   C17 2984   2.369   2.576   7.892  0.4108 -1.0358 -0.4328
   41CHL1   H17 2985   2.473   2.610   7.875  0.7461 -1.2851  0.9933
   41CHL1   C13 2986   2.295   2.594   7.757  0.1154 -0.3393  0.3910
   41CHL1   C18 2987   2.144   2.603   7.776  0.0552  0.2153 -0.4014
   41CHL1  H18A 2988   2.105   2.695   7.827  0.8121  0.4503 -0.2406
   41CHL1  H18B 2989   2.091   2.582   7.680  3.1829  1.2733 -2.4997
   41CHL1  H18C 2990   2.109   2.527   7.849  0.7376 -1.2799 -1.5890
   41CHL1   C12 2991   2.347   2.708   7.657 -0.0901  0.3616 -0.5316
   41CHL1  H12A 2992   2.318   2.804   7.705 -1.8379 -0.5070  0.2629
   41CHL1  H12B 2993   2.458   2.702   7.659 -0.1397 -0.7083 -0.4370
   41CHL1   C11 2994   2.292   2.684   7.514  0.2345 -0.0280 -0.7512
   41CHL1  H11A 2995   2.187   2.714   7.496 -0.7830 -3.6677 -1.8975
   41CHL1  H11B 2996   2.348   2.754   7.449  0.4586 -0.7002 -1.2951
   41CHL1    C9 2997   2.311   2.540   7.463  0.3690  0.0297  0.4402
   41CHL1    H9 2998   2.420   2.531   7.443 -0.1576 -1.5843 -2.1397
   41CHL1   C10 2999   2.245   2.512   7.322  0.0192 -0.2121 -0.0069
   41CHL1   C19 3000   2.098   2.570   7.324 -0.8873 -0.0011 -0.9128
   41CHL1  H19A 3001   2.095   2.681   7.322 -3.2122  0.0144  0.0724
   41CHL1  H19B 3002   2.035   2.526   7.243 -2.4709 -1.3088  0.9248
   41CHL1  H19C 3003   2.049   2.532   7.416  1.9412 -1.1447  0.2474
   41CHL1    C1 3004   2.335   2.574   7.221 -0.4103 -0.2481 -0.9447
   41CHL1   H1A 3005   2.346   2.683   7.236 -3.8269  0.5544 -3.1577
   41CHL1   H1B 3006   2.439   2.535   7.222 -0.1689  0.3784 -1.1311
   41CHL1    C2 3007   2.300   2.544   7.074  1.0791 -0.5857  0.0558
   41CHL1   H2A 3008   2.365   2.606   7.009  1.7141 -1.0518  0.2287
   41CHL1   H2B 3009   2.201   2.584   7.046  1.8180 -0.3320 -2.4770
   41CHL1   C20 3010   2.322   2.671   8.008 -0.5254 -0.3148  0.0147
   41CHL1   H20 3011   2.219   2.638   8.032  0.3101 -1.8667  1.7299
   41CHL1   C21 3012   2.328   2.823   7.973 -0.6125  0.0613 -0.4265
   41CHL1  H21A 3013   2.297   2.882   8.062 -0.3535  0.8805 -0.8649
   41CHL1  H21B 3014   2.260   2.848   7.889 -1.4435 -0.5863  0.0425
   41CHL1  H21C 3015   2.432   2.853   7.947 -0.3548 -1.0240 -0.6885
   41CHL1   C22 3016   2.411   2.639   8.129 -0.3773  0.5079 -0.0156
   41CHL1  H22A 3017   2.385   2.535   8.159  0.5017  0.2020 -0.2881
   41CHL1  H22B 3018   2.515   2.646   8.091 -0.8534  1.4228 -1.2116
   41CHL1   C23 3019   2.400   2.728   8.251 -0.0445  0.1847  0.7243
   41CHL1  H23A 3020   2.470   2.688   8.327  0.4087  1.9434  1.2687
   41CHL1  H23B 3021   2.427   2.835   8.235  0.6147 -0.1953 -0.9917
   41CHL1   C24 3022   2.260   2.736   8.318 -0.4347  0.0720  0.4810
   41CHL1  H24A 3023   2.183   2.774   8.247  0.0461  1.2147  0.5415
   41CHL1  H24B 3024   2.247   2.628   8.338 -0.4447  0.2408  1.4373
   41CHL1   C25 3025   2.246   2.810   8.451 -0.2948 -0.1722 -0.1397
   41CHL1   H25 3026   2.330   2.764   8.509 -0.2937  0.3245  0.2600
   41CHL1   C26 3027   2.269   2.963   8.451  0.3486  0.5537 -0.6376
   41CHL1  H26A 3028   2.195   3.022   8.395  0.0966  1.9759  1.1064
   41CHL1  H26B 3029   2.271   2.996   8.557 -3.3773 -1.7866  0.3495
   41CHL1  H26C 3030   2.363   2.983   8.395 -0.2141  1.5512 -1.2420
   41CHL1   C27 3031   2.121   2.778   8.519  0.3621 -0.6548 -0.0713
   41CHL1  H27A 3032   2.146   2.779   8.628  3.3333  0.9018 -0.6400
   41CHL1  H27B 3033   2.054   2.866   8.518  0.0885 -0.7975  1.8701
   41CHL1  H27C 3034   2.071   2.690   8.474  1.8512  0.3093 -3.9837
   42CHL1    C3 3035   6.238   1.217   7.005 -0.3914 -0.2172  0.2427
   42CHL1    H3 3036   6.342   1.214   7.044 -0.1414  0.8880 -0.3196
   42CHL1    O3 3037   6.248   1.195   6.869  0.0412 -0.1916  0.1752
   42CHL1   H3' 3038   6.294   1.111   6.862  0.2027  0.0409 -2.9760
   42CHL1    C4 3039   6.147   1.107   7.069 -0.4424 -0.3048  0.9378
   42CHL1   H4A 3040   6.051   1.118   7.014  0.3565 -4.1658 -1.6741
   42CHL1   H4B 3041   6.185   1.008   7.034  1.7089  0.6207  0.5105
   42CHL1    C5 3042   6.129   1.128   7.221  0.2248  0.1542 -0.1072
   42CHL1    C6 3043   6.156   1.027   7.302  0.2361  0.2614 -0.6135
   42CHL1    H6 3044   6.193   0.938   7.250  1.6285  1.3572 -1.5962
   42CHL1    C7 3045   6.144   1.034   7.451  0.4922 -0.5621  0.1300
   42CHL1   H7A 3046   6.101   0.942   7.495  0.4590 -0.3908  0.4561
   42CHL1   H7B 3047   6.248   1.052   7.486  0.4896  0.6030 -0.3901
   42CHL1    C8 3048   6.065   1.157   7.497  0.0692 -0.5508 -1.1490
   42CHL1    H8 3049   5.957   1.141   7.478  0.1136 -1.7282 -0.4907
   42CHL1   C14 3050   6.095   1.186   7.641  1.0042  1.0943 -0.1427
   42CHL1   H14 3051   6.201   1.216   7.655  1.6227 -0.6008 -0.8699
   42CHL1   C15 3052   6.083   1.068   7.752  0.0156  0.5479 -0.2503
   42CHL1  H15A 3053   6.000   0.997   7.732  0.3049  0.8298 -2.7762
   42CHL1  H15B 3054   6.176   1.008   7.753 -1.0879 -1.2623 -1.0301
   42CHL1   C16 3055   6.040   1.143   7.884 -0.2491  0.2842 -0.3576
   42CHL1  H16A 3056   5.931   1.125   7.897 -0.7392  2.9564 -0.2996
   42CHL1  H16B 3057   6.094   1.104   7.973 -0.0629  0.7637 -0.2547
   42CHL1   C17 3058   6.055   1.296   7.852  0.6723 -0.4321  0.5670
   42CHL1   H17 3059   6.162   1.328   7.849  0.5277  0.0996  0.8835
   42CHL1   C13 3060   6.022   1.304   7.702 -0.0960 -0.1183  0.7419
   42CHL1   C18 3061   5.868   1.291   7.692 -0.1286  0.4366 -0.0016
   42CHL1  H18A 3062   5.818   1.374   7.746 -1.6684 -0.9847  0.8391
   42CHL1  H18B 3063   5.825   1.294   7.590 -1.1332 -1.6868  0.2962
   42CHL1  H18C 3064   5.825   1.200   7.740  0.6028 -0.4718 -1.0296
   42CHL1   C12 3065   6.071   1.434   7.629 -0.5026 -0.6176 -0.0807
   42CHL1  H12A 3066   6.015   1.518   7.677 -2.5925 -2.4323  0.8368
   42CHL1  H12B 3067   6.177   1.453   7.654 -0.6472 -0.0467  0.1099
   42CHL1   C11 3068   6.050   1.417   7.483 -0.1286 -0.0376  0.3797
   42CHL1  H11A 3069   5.946   1.441   7.456 -0.0911 -0.5565 -0.2487
   42CHL1  H11B 3070   6.113   1.495   7.434 -0.2508 -1.0103 -1.3768
   42CHL1    C9 3071   6.099   1.277   7.420  0.2117  0.1161 -0.2826
   42CHL1    H9 3072   6.207   1.294   7.441  0.1426  2.3216 -1.3951
   42CHL1   C10 3073   6.088   1.266   7.262 -0.2214  0.9148 -0.0046
   42CHL1   C19 3074   5.947   1.288   7.213  0.1231  0.3224  0.3862
   42CHL1  H19A 3075   5.881   1.233   7.284  1.1945 -1.6021 -0.0416
   42CHL1  H19B 3076   5.917   1.393   7.229 -1.3224  0.2232 -1.4187
   42CHL1  H19C 3077   5.915   1.272   7.108 -0.9018  2.9715  0.2288
   42CHL1    C1 3078   6.183   1.370   7.187 -0.0642 -0.3492  0.5390
   42CHL1   H1A 3079   6.158   1.473   7.221  1.9422  0.9745 -1.6734
   42CHL1   H1B 3080   6.286   1.352   7.224  0.1714  0.7583  0.4759
   42CHL1    C2 3081   6.185   1.359   7.032 -0.1076  0.0176  0.0443
   42CHL1   H2A 3082   6.256   1.425   6.977  1.7548  0.2632  2.5630
   42CHL1   H2B 3083   6.080   1.358   6.996 -0.1166  0.0903  0.0682
   42CHL1   C20 3084   5.987   1.384   7.954  0.9632  0.6386 -0.6505
   42CHL1   H20 3085   5.877   1.367   7.957  0.7910  1.7606  0.2503
   42CHL1   C21 3086   6.004   1.538   7.922  0.7005  0.2528  0.2023
   42CHL1  H21A 3087   5.938   1.586   7.847  2.2667  2.2378  0.0158
   42CHL1  H21B 3088   6.108   1.550   7.884  1.1741 -2.7757  0.2402
   42CHL1  H21C 3089   5.998   1.599   8.014 -3.0418  0.0091  0.2614
   42CHL1   C22 3090   6.035   1.353   8.098  0.2519 -0.5751  0.1768
   42CHL1  H22A 3091   5.965   1.412   8.161  0.9903  0.1737  0.3187
   42CHL1  H22B 3092   6.017   1.248   8.129 -1.8700 -0.5746 -0.9025
   42CHL1   C23 3093   6.170   1.417   8.135  0.5359  1.0817 -0.2136
   42CHL1  H23A 3094   6.239   1.378   8.058 -1.3517  2.2101 -2.5886
   42CHL1  H23B 3095   6.165   1.528   8.132 -1.4219  1.0741  0.6035
   42CHL1   C24 3096   6.229   1.367   8.268  0.4645  0.1247 -0.1637
   42CHL1  H24A 3097   6.141   1.369   8.335 -0.6396  0.3202 -1.5817
   42CHL1  H24B 3098   6.265   1.262   8.273  1.6065  0.4522 -1.0507
   42CHL1   C25 3099   6.352   1.446   8.317  0.1300 -0.6146  0.1853
   42CHL1   H25 3100   6.427   1.443   8.235  0.4362 -1.8331  0.4897
   42CHL1   C26 3101   6.322   1.590   8.364  0.7071  0.3514 -0.5419
   42CHL1  H26A 3102   6.250   1.581   8.449  1.0183  0.4848 -0.2598
   42CHL1  H26B 3103   6.420   1.626   8.402  1.2080  0.2062 -1.6883
   42CHL1  H26C 3104   6.278   1.659   8.289 -0.9457 -0.5517 -0.4506
   42CHL1   C27 3105   6.436   1.367   8.424 -0.2339 -0.0158 -0.0619
   42CHL1  H27A 3106   6.399   1.356   8.528  0.1568 -0.9636 -0.0156
   42CHL1  H27B 3107   6.536   1.413   8.440  0.0428 -0.4510 -0.4984
   42CHL1  H27C 3108   6.464   1.269   8.379 -0.1067 -0.9693  1.9931
   43CHL1    C3 3109   2.891   2.168   6.971 -0.5210 -0.3454  0.1256
   43CHL1    H3 3110   2.997   2.137   6.982 -0.2933  0.7346  1.2960
   43CHL1    O3 3111   2.849   2.140   6.837 -0.7648  0.4379  0.3413
   43CHL1   H3' 3112   2.757   2.168   6.827 -1.3194  0.6366  4.3668
   43CHL1    C4 3113   2.810   2.083   7.069  0.7064 -0.1068 -0.2412
   43CHL1   H4A 3114   2.703   2.111   7.059  0.6099 -0.6333 -0.8003
   43CHL1   H4B 3115   2.821   1.980   7.028  0.7005  0.4729 -1.7664
   43CHL1    C5 3116   2.843   2.114   7.212  0.2710  0.3201  0.6478
   43CHL1    C6 3117   2.875   2.025   7.302  0.4649  0.4239  0.1504
   43CHL1    H6 3118   2.878   1.921   7.266 -2.1283  0.4113 -0.2300
   43CHL1    C7 3119   2.909   2.045   7.448  0.3750 -0.2889  0.0069
   43CHL1   H7A 3120   2.851   1.980   7.516  0.2062  0.5753  0.7003
   43CHL1   H7B 3121   3.019   2.044   7.461  0.3291  0.9625  0.6675
   43CHL1    C8 3122   2.867   2.188   7.489 -0.3912 -0.4966 -0.1097
   43CHL1    H8 3123   2.759   2.191   7.512  0.1044  0.1978  2.3305
   43CHL1   C14 3124   2.929   2.223   7.625 -0.0236  0.3786 -0.2876
   43CHL1   H14 3125   3.039   2.209   7.614  0.2211  0.8343  1.3403
   43CHL1   C15 3126   2.919   2.119   7.738  0.1708 -0.0036 -0.3318
   43CHL1  H15A 3127   2.812   2.090   7.734  0.1345 -0.2059  1.3205
   43CHL1  H15B 3128   2.975   2.023   7.730 -1.5458 -1.2241  1.3850
   43CHL1   C16 3129   2.947   2.198   7.862  0.0326  0.2582 -0.5525
   43CHL1  H16A 3130   2.864   2.185   7.935 -0.5919  2.3981 -0.7956
   43CHL1  H16B 3131   3.044   2.156   7.896  0.0862 -1.3852 -2.5523
   43CHL1   C17 3132   2.974   2.347   7.819  0.2464  0.9365 -0.1950
   43CHL1   H17 3133   3.084   2.350   7.803  0.1552  1.3191 -0.7951
   43CHL1   C13 3134   2.902   2.360   7.679  0.2150  0.3649 -0.2833
   43CHL1   C18 3135   2.751   2.384   7.711  0.4556 -0.5060  0.3324
   43CHL1  H18A 3136   2.735   2.493   7.724  0.0225 -0.1946 -2.1530
   43CHL1  H18B 3137   2.686   2.352   7.627  1.1264  1.7095 -1.1255
   43CHL1  H18C 3138   2.712   2.325   7.796  1.9850  0.1146  1.5262
   43CHL1   C12 3139   2.956   2.462   7.579 -0.3164  0.0922  0.1754
   43CHL1  H12A 3140   2.950   2.568   7.612  0.3566 -0.2173  1.3409
   43CHL1  H12B 3141   3.066   2.453   7.569  0.2814  2.9852  2.5632
   43CHL1   C11 3142   2.880   2.437   7.442  0.0126  0.0931  0.4916
   43CHL1  H11A 3143   2.773   2.460   7.455  0.1495  1.7911 -1.0782
   43CHL1  H11B 3144   2.923   2.509   7.369  2.6904 -0.8200  1.0303
   43CHL1    C9 3145   2.903   2.291   7.386 -0.0567 -0.1029  0.2146
   43CHL1    H9 3146   3.013   2.276   7.383  0.1331  0.8185  1.5812
   43CHL1   C10 3147   2.838   2.264   7.245  0.2540 -0.0032 -0.2592
   43CHL1   C19 3148   2.694   2.314   7.241  0.3390 -0.3383  0.1680
   43CHL1  H19A 3149   2.654   2.293   7.140  1.9060  1.1993 -0.8399
   43CHL1  H19B 3150   2.624   2.258   7.306  0.6309 -0.1046  0.6891
   43CHL1  H19C 3151   2.680   2.423   7.261  3.8176  0.7906 -2.4287
   43CHL1    C1 3152   2.926   2.337   7.146 -0.2658  0.6062 -0.2957
   43CHL1   H1A 3153   2.923   2.444   7.175 -2.4908  0.5642 -0.1740
   43CHL1   H1B 3154   3.026   2.294   7.166  0.6940  2.1065 -1.6805
   43CHL1    C2 3155   2.879   2.317   7.003  0.3244 -0.0039 -0.3130
   43CHL1   H2A 3156   2.944   2.371   6.930 -0.8738  0.8698 -0.7491
   43CHL1   H2B 3157   2.774   2.346   6.982 -0.9823 -1.8565  2.9221
   43CHL1   C20 3158   2.937   2.454   7.927  0.5562 -0.6777 -0.2489
   43CHL1   H20 3159   2.832   2.486   7.913  0.5497 -0.4235  0.3559
   43CHL1   C21 3160   3.026   2.575   7.914  0.1791 -0.1971  0.5617
   43CHL1  H21A 3161   2.987   2.666   7.964 -0.2745 -0.7600  1.2571
   43CHL1  H21B 3162   3.033   2.601   7.806 -1.1474 -0.3018  0.4340
   43CHL1  H21C 3163   3.128   2.555   7.954 -0.1128  0.8349  1.8838
   43CHL1   C22 3164   2.948   2.396   8.076 -0.1594  0.1758 -0.4095
   43CHL1  H22A 3165   2.884   2.306   8.087 -1.3315  0.9159 -0.9435
   43CHL1  H22B 3166   3.053   2.361   8.078  0.0617  0.5780 -2.6488
   43CHL1   C23 3167   2.919   2.508   8.182  0.2728 -0.0369  0.3851
   43CHL1  H23A 3168   3.011   2.570   8.177  0.3378 -0.2134 -2.1837
   43CHL1  H23B 3169   2.836   2.575   8.151  0.9856  0.8977  0.4638
   43CHL1   C24 3170   2.875   2.453   8.317  0.0976  0.2000 -0.0465
   43CHL1  H24A 3171   2.779   2.406   8.288  0.4119  0.4416 -1.5438
   43CHL1  H24B 3172   2.956   2.384   8.351 -0.1406 -1.3494 -2.4097
   43CHL1   C25 3173   2.845   2.560   8.426 -0.8680  0.3180 -0.0499
   43CHL1   H25 3174   2.816   2.509   8.520  0.7164  1.0893  0.9089
   43CHL1   C26 3175   2.965   2.656   8.439 -0.2049 -0.0848  0.3479
   43CHL1  H26A 3176   2.939   2.743   8.502  1.1624 -1.0056  2.3191
   43CHL1  H26B 3177   3.046   2.603   8.495  1.1034  0.0487 -1.3277
   43CHL1  H26C 3178   2.994   2.706   8.344 -0.4153  0.0083  0.3325
   43CHL1   C27 3179   2.722   2.636   8.386  0.5415  0.9101 -0.8029
   43CHL1  H27A 3180   2.720   2.660   8.278  0.2018 -0.7820 -1.1913
   43CHL1  H27B 3181   2.629   2.576   8.397  0.1639  1.2618 -1.9738
   43CHL1  H27C 3182   2.702   2.725   8.449 -0.0804 -0.3712  0.8869
   44CHL1    C3 3183   2.701   1.007   6.906 -0.5004  0.0781  0.4743
   44CHL1    H3 3184   2.807   1.023   6.936 -0.9938 -1.3104  3.2042
   44CHL1    O3 3185   2.690   1.004   6.763  0.5003 -0.4805  0.0227
   44CHL1   H3' 3186   2.595   0.997   6.752  0.3438  0.7314  0.3766
   44CHL1    C4 3187   2.664   0.868   6.971 -0.9037 -0.5823 -0.3068
   44CHL1   H4A 3188   2.563   0.844   6.932 -1.6825 -1.3690  2.0358
   44CHL1   H4B 3189   2.728   0.785   6.934 -1.0860 -0.6636 -0.4444
   44CHL1    C5 3190   2.672   0.876   7.124  0.3583 -0.1254  0.6260
   44CHL1    C6 3191   2.739   0.781   7.191 -0.0307  0.3742 -0.4742
   44CHL1    H6 3192   2.798   0.706   7.136 -2.6599 -1.4683 -0.9839
   44CHL1    C7 3193   2.734   0.763   7.337  0.5168  0.0245 -0.4296
   44CHL1   H7A 3194   2.723   0.654   7.355 -1.0260  0.3006  0.4470
   44CHL1   H7B 3195   2.831   0.778   7.390  1.1104 -3.6153 -0.2108
   44CHL1    C8 3196   2.608   0.836   7.397  0.2782  0.0842 -0.1440
   44CHL1    H8 3197   2.522   0.773   7.366  1.0044 -0.6685 -0.7152
   44CHL1   C14 3198   2.619   0.843   7.545  0.3512  0.0137 -1.3412
   44CHL1   H14 3199   2.714   0.897   7.565 -0.1919  0.6996 -0.5965
   44CHL1   C15 3200   2.638   0.708   7.624 -0.0817  0.5569 -0.7224
   44CHL1  H15A 3201   2.572   0.632   7.578 -0.7692  0.6723  0.0260
   44CHL1  H15B 3202   2.739   0.665   7.611  0.2904  1.3706 -0.6292
   44CHL1   C16 3203   2.591   0.735   7.770  0.0701  0.5133 -0.1544
   44CHL1  H16A 3204   2.506   0.674   7.807 -1.2370  1.1608 -1.9705
   44CHL1  H16B 3205   2.673   0.742   7.844  0.3714  2.0237 -0.5792
   44CHL1   C17 3206   2.533   0.882   7.771  0.1601 -0.2413 -0.6783
   44CHL1   H17 3207   2.626   0.938   7.795  0.5522 -0.3027 -1.9456
   44CHL1   C13 3208   2.500   0.913   7.622 -0.1859 -0.2511 -0.0205
   44CHL1   C18 3209   2.369   0.846   7.581 -0.3226 -0.1633  0.1717
   44CHL1  H18A 3210   2.353   0.747   7.629  1.8548 -0.8565 -0.4037
   44CHL1  H18B 3211   2.281   0.910   7.602  0.5547  1.3105 -0.4214
   44CHL1  H18C 3212   2.367   0.831   7.471 -0.1918 -2.4591  0.4319
   44CHL1   C12 3213   2.500   1.058   7.575 -0.2767 -0.0395  0.1641
   44CHL1  H12A 3214   2.412   1.110   7.619 -2.0931 -1.4361 -1.6549
   44CHL1  H12B 3215   2.591   1.102   7.621 -1.3072  1.2465  1.0813
   44CHL1   C11 3216   2.498   1.074   7.424  0.9929  0.4453 -0.0976
   44CHL1  H11A 3217   2.391   1.063   7.395  0.8617  0.6516  0.3044
   44CHL1  H11B 3218   2.514   1.180   7.394 -1.7877  0.8429 -0.5105
   44CHL1    C9 3219   2.597   0.979   7.340 -0.0902 -0.2411 -0.4620
   44CHL1    H9 3220   2.699   1.017   7.363 -0.2878 -1.4589  3.0081
   44CHL1   C10 3221   2.588   0.988   7.185  0.4512 -0.0386 -0.0346
   44CHL1   C19 3222   2.434   0.962   7.144  0.4860 -0.0713 -0.0305
   44CHL1  H19A 3223   2.414   0.945   7.036  0.9608 -1.7428  0.1111
   44CHL1  H19B 3224   2.402   0.868   7.195  0.9728 -0.4785 -0.4695
   44CHL1  H19C 3225   2.379   1.046   7.191 -1.0187 -1.3899  0.6855
   44CHL1    C1 3226   2.628   1.120   7.123 -0.6349  0.1125  0.2598
   44CHL1   H1A 3227   2.560   1.202   7.153 -0.7450 -0.3293  1.2708
   44CHL1   H1B 3228   2.733   1.137   7.157  0.2911 -0.8769 -1.8866
   44CHL1    C2 3229   2.617   1.117   6.970 -0.5698 -0.1507  0.7697
   44CHL1   H2A 3230   2.650   1.212   6.923  1.8241 -1.1323  0.3098
   44CHL1   H2B 3231   2.514   1.093   6.935 -0.6785 -1.6563  1.9681
   44CHL1   C20 3232   2.417   0.903   7.880 -1.1766 -0.3241  0.1520
   44CHL1   H20 3233   2.334   0.834   7.854  0.4416 -2.4260  0.2490
   44CHL1   C21 3234   2.377   1.056   7.884  0.8157  0.5548  0.1680
   44CHL1  H21A 3235   2.297   1.070   7.809  0.6412 -3.1082 -0.5121
   44CHL1  H21B 3236   2.460   1.129   7.869  1.5236 -0.5704 -1.8049
   44CHL1  H21C 3237   2.333   1.082   7.983  1.0192  2.4069 -0.1866
   44CHL1   C22 3238   2.470   0.860   8.020  0.8061 -0.2556  0.1157
   44CHL1  H22A 3239   2.510   0.757   8.018 -1.2870 -1.1188 -0.7660
   44CHL1  H22B 3240   2.557   0.922   8.051  1.0658 -0.5294 -0.0605
   44CHL1   C23 3241   2.349   0.839   8.112 -0.4549 -0.1903 -0.2910
   44CHL1  H23A 3242   2.285   0.929   8.113  1.3457  1.1603  1.5037
   44CHL1  H23B 3243   2.286   0.753   8.079 -0.8314  0.8110 -2.3475
   44CHL1   C24 3244   2.396   0.821   8.260 -0.3079  0.2246  0.2827
   44CHL1  H24A 3245   2.475   0.744   8.267 -0.4536  0.0106 -0.3531
   44CHL1  H24B 3246   2.430   0.920   8.298  1.3556 -2.0908  5.7857
   44CHL1   C25 3247   2.271   0.780   8.341 -0.3012 -0.0739  0.6136
   44CHL1   H25 3248   2.179   0.827   8.300 -0.8501 -2.0996 -0.6529
   44CHL1   C26 3249   2.229   0.633   8.308 -0.0042 -0.0575 -0.4559
   44CHL1  H26A 3250   2.298   0.562   8.358 -1.9184 -2.5007 -1.0633
   44CHL1  H26B 3251   2.126   0.616   8.347  0.7463  0.0360  1.6788
   44CHL1  H26C 3252   2.210   0.611   8.201 -2.3276  0.8416 -0.2824
   44CHL1   C27 3253   2.273   0.807   8.489  0.4413 -0.6648  0.2432
   44CHL1  H27A 3254   2.281   0.918   8.500  1.5361 -0.6419 -0.5551
   44CHL1  H27B 3255   2.172   0.784   8.529 -0.3006  0.9754 -0.5895
   44CHL1  H27C 3256   2.350   0.746   8.541  1.0936 -0.8740 -0.9193
   45CHL1    C3 3257   2.091   1.515   6.777 -0.0439  0.3674  0.7629
   45CHL1    H3 3258   2.056   1.620   6.785 -0.5092  0.2102  0.8404
   45CHL1    O3 3259   2.130   1.489   6.644 -0.0152  0.2898  0.5832
   45CHL1   H3' 3260   2.213   1.537   6.635  0.0247 -0.0845 -1.3576
   45CHL1    C4 3261   2.223   1.492   6.846 -0.2579 -0.2018  0.2458
   45CHL1   H4A 3262   2.273   1.398   6.815 -1.9222 -0.6465 -1.3139
   45CHL1   H4B 3263   2.281   1.583   6.820 -1.4366  0.4097 -0.3558
   45CHL1    C5 3264   2.211   1.492   6.995  0.6584 -0.2877  0.0723
   45CHL1    C6 3265   2.299   1.563   7.073 -0.0921 -0.3445  0.3529
   45CHL1    H6 3266   2.371   1.630   7.024  0.9987 -0.4673  1.7299
   45CHL1    C7 3267   2.298   1.572   7.225  1.3844  0.7815  0.0136
   45CHL1   H7A 3268   2.403   1.582   7.260  1.3454 -0.6064  0.6148
   45CHL1   H7B 3269   2.245   1.665   7.254  1.0193  0.8613 -0.8879
   45CHL1    C8 3270   2.209   1.455   7.283  0.1872  0.0733 -0.1943
   45CHL1    H8 3271   2.273   1.364   7.276 -2.1105 -1.5745 -1.5203
   45CHL1   C14 3272   2.172   1.475   7.422 -0.2609  0.1071 -0.2959
   45CHL1   H14 3273   2.099   1.559   7.413 -0.6841  0.2455  2.9780
   45CHL1   C15 3274   2.287   1.520   7.519  0.0135 -0.0895 -0.2979
   45CHL1  H15A 3275   2.381   1.461   7.505 -0.1248 -0.3420 -0.1724
   45CHL1  H15B 3276   2.313   1.627   7.506 -0.0567  0.1924  1.6073
   45CHL1   C16 3277   2.236   1.494   7.662  0.6917  0.3004 -0.6925
   45CHL1  H16A 3278   2.306   1.436   7.727  0.3852  1.6147  0.8641
   45CHL1  H16B 3279   2.222   1.600   7.690 -0.0569  0.9014 -3.1205
   45CHL1   C17 3280   2.100   1.416   7.644  0.4270 -0.3866 -0.2872
   45CHL1   H17 3281   2.028   1.500   7.650  0.4139 -0.3059 -1.3330
   45CHL1   C13 3282   2.100   1.359   7.497 -0.8845 -0.6974  0.0431
   45CHL1   C18 3283   2.190   1.239   7.493  0.0372 -0.1721 -0.1843
   45CHL1  H18A 3284   2.295   1.267   7.519  0.3618  1.6833 -3.0309
   45CHL1  H18B 3285   2.163   1.149   7.553  2.6870 -1.4069 -0.6795
   45CHL1  H18C 3286   2.206   1.199   7.390  2.2091  1.7223 -0.6794
   45CHL1   C12 3287   1.965   1.335   7.419 -0.1925 -0.1185  0.2596
   45CHL1  H12A 3288   1.917   1.247   7.467  0.7829 -0.6398  0.3094
   45CHL1  H12B 3289   1.908   1.429   7.431  0.7368  0.5600 -0.4499
   45CHL1   C11 3290   1.992   1.315   7.266  0.2297 -0.3632 -0.2305
   45CHL1  H11A 3291   2.046   1.218   7.259 -1.3002 -1.1306 -2.2477
   45CHL1  H11B 3292   1.897   1.301   7.210 -0.1520 -0.5853  0.4682
   45CHL1    C9 3293   2.087   1.423   7.202 -0.1801 -0.9940  0.3680
   45CHL1    H9 3294   2.031   1.518   7.192 -0.2548 -1.2187 -1.7249
   45CHL1   C10 3295   2.108   1.395   7.050  0.0092  0.0774  0.0435
   45CHL1   C19 3296   2.163   1.252   7.040 -0.6518  0.1182  0.2027
   45CHL1  H19A 3297   2.086   1.176   7.065 -0.9320  0.3238 -0.0313
   45CHL1  H19B 3298   2.193   1.230   6.935  0.2245  2.2151 -0.0297
   45CHL1  H19C 3299   2.247   1.242   7.112 -1.0542 -0.7940  0.5635
   45CHL1    C1 3300   1.968   1.407   6.970 -1.2575 -0.7464 -0.5358
   45CHL1   H1A 3301   1.903   1.324   7.004 -1.9673  1.4765  4.2521
   45CHL1   H1B 3302   1.928   1.507   6.999  0.6381 -0.1980  0.3414
   45CHL1    C2 3303   1.982   1.413   6.819 -0.0570 -0.5974  1.4612
   45CHL1   H2A 3304   1.890   1.454   6.770  1.3987  0.7091 -0.3216
   45CHL1   H2B 3305   2.009   1.308   6.794 -1.1398 -0.4580 -0.5609
   45CHL1   C20 3306   2.062   1.324   7.761 -0.3531  0.1590 -0.3578
   45CHL1   H20 3307   2.135   1.241   7.774 -1.0375 -0.3196  0.5153
   45CHL1   C21 3308   1.928   1.258   7.740  0.1027  0.1124  0.4960
   45CHL1  H21A 3309   1.885   1.208   7.829 -0.0462 -4.6027 -1.9272
   45CHL1  H21B 3310   1.922   1.182   7.660  3.4336 -0.8849  1.0252
   45CHL1  H21C 3311   1.855   1.337   7.713 -0.9032 -1.2507 -0.9249
   45CHL1   C22 3312   2.070   1.404   7.891  0.1250 -0.0408 -0.2726
   45CHL1  H22A 3313   2.171   1.449   7.882 -0.3785  0.9948 -0.8879
   45CHL1  H22B 3314   2.001   1.489   7.875 -1.2802 -1.2668 -0.9428
   45CHL1   C23 3315   2.048   1.322   8.026 -0.6591 -0.4073  0.8453
   45CHL1  H23A 3316   1.951   1.268   8.025  0.1086 -1.8984 -1.2283
   45CHL1  H23B 3317   2.123   1.242   8.005 -0.4040  0.1536 -0.4490
   45CHL1   C24 3318   2.070   1.404   8.151  0.2348 -0.0439  0.0145
   45CHL1  H24A 3319   2.161   1.464   8.131  0.5066 -0.1145  1.0062
   45CHL1  H24B 3320   1.984   1.474   8.162 -0.1790 -0.4241 -0.7660
   45CHL1   C25 3321   2.101   1.325   8.279 -0.3510 -0.3170  0.2570
   45CHL1   H25 3322   2.196   1.271   8.255  1.7520  2.5036  1.6219
   45CHL1   C26 3323   2.141   1.414   8.403  0.6165  0.2162 -0.2581
   45CHL1  H26A 3324   2.085   1.510   8.398 -0.3693 -0.4008 -2.9112
   45CHL1  H26B 3325   2.128   1.363   8.500  0.9070 -0.5198 -0.5957
   45CHL1  H26C 3326   2.245   1.447   8.384 -0.2946  2.1760 -2.4188
   45CHL1   C27 3327   1.988   1.224   8.316 -0.2867  0.2347  0.4392
   45CHL1  H27A 3328   2.025   1.162   8.400 -0.5628 -2.3101 -1.2342
   45CHL1  H27B 3329   1.897   1.284   8.340  0.0946  0.9562  0.1089
   45CHL1  H27C 3330   1.957   1.162   8.230  2.7301 -1.6490  0.5984
   46CHL1    C3 3331   5.026   2.856   7.060 -0.3384 -0.0613  0.2216
   46CHL1    H3 3332   5.012   2.942   7.128  2.6135  2.1113 -1.7101
   46CHL1    O3 3333   5.040   2.894   6.925  0.0642  0.1269  0.4808
   46CHL1   H3' 3334   4.954   2.919   6.891  1.2735  0.6496 -2.5372
   46CHL1    C4 3335   5.168   2.792   7.093  0.2843  0.0040  0.1329
   46CHL1   H4A 3336   5.178   2.699   7.033  0.2201 -0.1566  0.3704
   46CHL1   H4B 3337   5.258   2.846   7.056 -0.3825 -0.0378 -1.6180
   46CHL1    C5 3338   5.180   2.767   7.240  0.6384 -0.3933  0.1686
   46CHL1    C6 3339   5.267   2.832   7.315  0.4896 -1.0561  0.1924
   46CHL1    H6 3340   5.331   2.904   7.261  2.0829 -3.0965 -0.7687
   46CHL1    C7 3341   5.275   2.829   7.464  0.6780 -0.6027  0.3779
   46CHL1   H7A 3342   5.379   2.830   7.503  0.7471  0.4730  0.1984
   46CHL1   H7B 3343   5.231   2.922   7.506 -0.6977  0.9925 -4.0134
   46CHL1    C8 3344   5.195   2.712   7.532 -0.5828 -0.1396 -0.3520
   46CHL1    H8 3345   5.252   2.622   7.500 -0.3971  0.0069 -0.4361
   46CHL1   C14 3346   5.184   2.715   7.679 -0.6884  0.0854  0.1586
   46CHL1   H14 3347   5.123   2.808   7.684  0.4753  0.9884 -1.4136
   46CHL1   C15 3348   5.310   2.741   7.769  0.5702  0.4436  0.0972
   46CHL1  H15A 3349   5.396   2.672   7.758  0.2353 -0.2141  1.4580
   46CHL1  H15B 3350   5.349   2.841   7.739 -1.5940  0.9387 -1.3046
   46CHL1   C16 3351   5.242   2.733   7.910 -1.1336 -0.3281  0.1241
   46CHL1  H16A 3352   5.318   2.692   7.980  0.1621  1.2444 -0.2916
   46CHL1  H16B 3353   5.233   2.836   7.952  0.7584  0.3395 -0.9519
   46CHL1   C17 3354   5.103   2.664   7.903 -0.2324 -0.2316  0.2616
   46CHL1   H17 3355   5.030   2.746   7.915  0.8893  0.9386 -0.6418
   46CHL1   C13 3356   5.105   2.607   7.751 -0.1067  0.6454 -0.3454
   46CHL1   C18 3357   5.174   2.469   7.744 -0.5067  0.1893 -0.1368
   46CHL1  H18A 3358   5.274   2.464   7.792 -0.5273 -0.3404 -0.1420
   46CHL1  H18B 3359   5.110   2.386   7.782  0.1558 -1.0167 -1.5360
   46CHL1  H18C 3360   5.186   2.451   7.635 -1.9634  1.2724 -0.5150
   46CHL1   C12 3361   4.962   2.599   7.683 -0.0002  0.6741 -0.0163
   46CHL1  H12A 3362   4.904   2.514   7.723 -0.7518  0.0751 -2.1920
   46CHL1  H12B 3363   4.904   2.690   7.708 -0.3538  0.7492 -1.0263
   46CHL1   C11 3364   4.974   2.574   7.530 -0.1081 -0.3272  0.1170
   46CHL1  H11A 3365   5.020   2.475   7.508  0.0557 -0.5201  1.2370
   46CHL1  H11B 3366   4.873   2.571   7.483  0.7594 -2.5598 -1.7837
   46CHL1    C9 3367   5.059   2.691   7.464  0.2890  0.1194  0.3890
   46CHL1    H9 3368   5.005   2.784   7.490  2.4444  1.2867  0.8837
   46CHL1   C10 3369   5.070   2.673   7.304 -0.5522 -1.0635 -0.4833
   46CHL1   C19 3370   5.119   2.526   7.257  0.2555 -0.1719  0.1038
   46CHL1  H19A 3371   5.213   2.502   7.312 -0.5538 -0.3772  1.4518
   46CHL1  H19B 3372   5.044   2.460   7.305 -1.2871  1.4363 -0.0162
   46CHL1  H19C 3373   5.132   2.510   7.148  0.2750  0.7047 -0.0282
   46CHL1    C1 3374   4.933   2.702   7.240  0.3433  0.1536  0.3755
   46CHL1   H1A 3375   4.873   2.609   7.252  0.0533  0.1903 -0.6807
   46CHL1   H1B 3376   4.884   2.773   7.310 -0.4675 -3.5926  3.9872
   46CHL1    C2 3377   4.932   2.744   7.088  0.3649  0.7861  0.0814
   46CHL1   H2A 3378   4.828   2.770   7.062  0.4806  1.0393 -0.1325
   46CHL1   H2B 3379   4.969   2.657   7.029  1.3890  1.4295 -0.2659
   46CHL1   C20 3380   5.068   2.565   8.018  0.3331  1.0876  0.0490
   46CHL1   H20 3381   5.141   2.482   8.008  1.8665  2.5538 -1.6524
   46CHL1   C21 3382   4.925   2.519   8.010  0.5096  0.1271  0.2728
   46CHL1  H21A 3383   4.901   2.483   7.908  0.2938  1.6696 -0.2411
   46CHL1  H21B 3384   4.845   2.591   8.039  0.1505 -1.1283  2.7009
   46CHL1  H21C 3385   4.910   2.426   8.070 -0.4335 -0.3282 -0.6365
   46CHL1   C22 3386   5.108   2.628   8.154 -0.5758 -0.1446  0.3201
   46CHL1  H22A 3387   5.075   2.554   8.231 -1.8711  0.2307  0.1603
   46CHL1  H22B 3388   5.219   2.626   8.153 -0.4659  0.9842 -2.9815
   46CHL1   C23 3389   5.030   2.760   8.186 -0.6011 -0.2215  0.0992
   46CHL1  H23A 3390   5.012   2.828   8.100  0.1886  0.4245  0.4360
   46CHL1  H23B 3391   4.936   2.709   8.217  0.2608 -1.7199  0.3511
   46CHL1   C24 3392   5.111   2.836   8.290 -0.1444 -0.6648 -0.1452
   46CHL1  H24A 3393   5.153   2.770   8.369 -0.8411  0.0725  0.8649
   46CHL1  H24B 3394   5.203   2.866   8.234 -0.4221  0.9623  0.2021
   46CHL1   C25 3395   5.040   2.950   8.370 -0.3176  0.2384  0.0072
   46CHL1   H25 3396   5.119   2.990   8.438  0.1456  0.8946 -0.8996
   46CHL1   C26 3397   4.985   3.057   8.271 -1.0442  0.1404  0.1230
   46CHL1  H26A 3398   5.071   3.087   8.206 -1.1776 -0.2257 -0.2291
   46CHL1  H26B 3399   4.902   3.024   8.204 -0.8454  1.1160 -0.6323
   46CHL1  H26C 3400   4.953   3.147   8.327  2.0591  1.7486 -0.4744
   46CHL1   C27 3401   4.926   2.890   8.447  0.2271  0.7034 -1.2024
   46CHL1  H27A 3402   4.887   2.954   8.528  2.6041 -1.8712  2.2688
   46CHL1  H27B 3403   4.841   2.871   8.379 -0.7876  0.3037  0.1504
   46CHL1  H27C 3404   4.936   2.789   8.492  0.3519  0.7521 -1.1192
   47CHL1    C3 3405   3.348   1.695   6.849 -0.3484 -0.2482  0.1019
   47CHL1    H3 3406   3.436   1.631   6.869  0.0866  0.9510  2.2987
   47CHL1    O3 3407   3.349   1.728   6.708  0.5186 -0.0395 -0.2023
   47CHL1   H3' 3408   3.306   1.652   6.667  1.3034 -1.2299  1.0969
   47CHL1    C4 3409   3.218   1.619   6.905  0.2887 -0.0240  0.2915
   47CHL1   H4A 3410   3.137   1.680   6.859 -0.2673 -1.7876 -1.1969
   47CHL1   H4B 3411   3.219   1.521   6.853  0.0838 -0.4799  1.1404
   47CHL1    C5 3412   3.212   1.601   7.057 -0.8093 -0.4332  0.8082
   47CHL1    C6 3413   3.185   1.483   7.111  0.0898  0.1816  0.3193
   47CHL1    H6 3414   3.176   1.393   7.049  1.1442  0.6077 -0.5005
   47CHL1    C7 3415   3.176   1.469   7.258  0.4981  0.1268 -0.3176
   47CHL1   H7A 3416   3.084   1.410   7.281  0.7442 -0.5386 -1.0087
   47CHL1   H7B 3417   3.259   1.408   7.300 -0.3461  0.4024  1.8886
   47CHL1    C8 3418   3.182   1.598   7.347 -0.6638  0.4100  0.4080
   47CHL1    H8 3419   3.083   1.648   7.340 -0.9293 -0.2532 -0.8190
   47CHL1   C14 3420   3.222   1.570   7.491  0.0230 -0.0873  0.4142
   47CHL1   H14 3421   3.329   1.543   7.486  1.4325  4.6904 -0.2022
   47CHL1   C15 3422   3.154   1.457   7.572 -0.3935  0.0011 -0.6364
   47CHL1  H15A 3423   3.043   1.460   7.574 -0.6361 -3.7348  1.2610
   47CHL1  H15B 3424   3.184   1.354   7.543 -0.6404 -0.9814  2.2655
   47CHL1   C16 3425   3.190   1.487   7.722 -0.2018  0.0937 -0.3828
   47CHL1  H16A 3426   3.100   1.487   7.787  0.4988 -2.5296  0.7196
   47CHL1  H16B 3427   3.259   1.413   7.767  2.3169  2.8088  0.5395
   47CHL1   C17 3428   3.261   1.628   7.714 -0.3513 -0.2673  0.5947
   47CHL1   H17 3429   3.370   1.607   7.709 -0.1320  1.0456 -0.7624
   47CHL1   C13 3430   3.231   1.696   7.576  0.0915 -0.6609 -0.5280
   47CHL1   C18 3431   3.086   1.761   7.585 -0.1017 -0.7284 -0.1905
   47CHL1  H18A 3432   3.087   1.849   7.653  2.3057  0.5993 -1.7949
   47CHL1  H18B 3433   3.069   1.811   7.487  2.3408  0.7342  0.0548
   47CHL1  H18C 3434   3.013   1.683   7.615 -1.4804 -0.2385 -2.0271
   47CHL1   C12 3435   3.337   1.797   7.522  0.5382 -0.2177  0.4388
   47CHL1  H12A 3436   3.340   1.890   7.582  1.9428  1.3657 -1.8955
   47CHL1  H12B 3437   3.431   1.737   7.521  0.2223 -0.7389 -1.0925
   47CHL1   C11 3438   3.310   1.825   7.371  0.4061  0.0707 -0.3806
   47CHL1  H11A 3439   3.227   1.897   7.356  0.4986  0.0155 -1.2219
   47CHL1  H11B 3440   3.396   1.885   7.333  1.3611  0.5901  2.3638
   47CHL1    C9 3441   3.290   1.695   7.288  0.3227 -0.9405  0.4393
   47CHL1    H9 3442   3.386   1.641   7.282  0.7892  0.0140 -1.4636
   47CHL1   C10 3443   3.254   1.730   7.139  0.5445 -0.1483  0.0552
   47CHL1   C19 3444   3.136   1.828   7.133  0.2590  0.0846  0.0626
   47CHL1  H19A 3445   3.165   1.932   7.160  2.8204 -0.7895  0.9938
   47CHL1  H19B 3446   3.094   1.832   7.030  2.0510  1.1736 -0.6874
   47CHL1  H19C 3447   3.064   1.806   7.214  1.3028  1.3472  1.3951
   47CHL1    C1 3448   3.377   1.802   7.075 -0.2501  0.4085 -0.9104
   47CHL1   H1A 3449   3.407   1.897   7.125  1.9386  1.2016 -3.4883
   47CHL1   H1B 3450   3.462   1.732   7.084  0.1037  1.0114  0.8317
   47CHL1    C2 3451   3.362   1.829   6.926  0.3724  0.4392  0.1765
   47CHL1   H2A 3452   3.458   1.877   6.896  1.1607 -0.9283  0.4121
   47CHL1   H2B 3453   3.279   1.899   6.906 -1.4299 -1.7003 -0.2139
   47CHL1   C20 3454   3.251   1.716   7.840  0.0596  0.2774  0.0135
   47CHL1   H20 3455   3.253   1.824   7.812 -1.8788 -0.1116 -1.9077
   47CHL1   C21 3456   3.370   1.686   7.928  0.3196 -0.2912 -0.8845
   47CHL1  H21A 3457   3.375   1.759   8.011  0.4570 -0.6540 -0.5741
   47CHL1  H21B 3458   3.457   1.708   7.862 -1.6215  0.5977 -3.3421
   47CHL1  H21C 3459   3.369   1.581   7.963  0.2019 -0.1591 -0.4834
   47CHL1   C22 3460   3.114   1.720   7.914 -0.0622 -0.6455  0.3033
   47CHL1  H22A 3461   3.045   1.751   7.833  2.6651 -1.0429 -2.3642
   47CHL1  H22B 3462   3.087   1.623   7.961  0.0048 -0.1018  1.5235
   47CHL1   C23 3463   3.093   1.823   8.026 -0.6026 -0.3273 -0.3036
   47CHL1  H23A 3464   3.159   1.795   8.110 -1.6623 -3.6738 -0.4333
   47CHL1  H23B 3465   3.125   1.919   7.981 -1.8238  0.3859  0.2867
   47CHL1   C24 3466   2.947   1.834   8.069 -0.0073 -0.4144  0.6547
   47CHL1  H24A 3467   2.909   1.918   8.006  0.4100 -0.2359  0.6400
   47CHL1  H24B 3468   2.885   1.746   8.043 -0.1756 -0.1549  0.1637
   47CHL1   C25 3469   2.936   1.886   8.215 -0.0613  0.0135  0.6872
   47CHL1   H25 3470   3.009   1.828   8.277 -0.1692  1.2421  2.0356
   47CHL1   C26 3471   2.960   2.037   8.226  0.4861 -0.1460  0.0190
   47CHL1  H26A 3472   2.867   2.096   8.206  0.2611  0.2902  2.0897
   47CHL1  H26B 3473   2.987   2.048   8.333  4.9685 -3.6819 -0.4755
   47CHL1  H26C 3474   3.037   2.074   8.156  0.5686 -0.4477 -0.0503
   47CHL1   C27 3475   2.797   1.858   8.274  0.2895 -0.2028 -0.0947
   47CHL1  H27A 3476   2.717   1.926   8.238 -0.9490 -0.0232  2.7295
   47CHL1  H27B 3477   2.763   1.752   8.270 -1.9238  0.2745  2.5848
   47CHL1  H27C 3478   2.824   1.880   8.379  1.4224 -1.4758 -0.0930
   48CHL1    C3 3479   6.401   2.474   6.603 -0.1900  0.5663 -0.2563
   48CHL1    H3 3480   6.301   2.426   6.611 -1.2644  2.7215  0.1623
   48CHL1    O3 3481   6.422   2.518   6.468 -0.0573  0.1684  0.1845
   48CHL1   H3' 3482   6.468   2.445   6.427  2.6308  1.3533  0.8461
   48CHL1    C4 3483   6.421   2.591   6.707  0.1754 -0.2554  0.2055
   48CHL1   H4A 3484   6.513   2.650   6.690 -1.2386  2.1574  0.4078
   48CHL1   H4B 3485   6.341   2.664   6.684  0.6857  0.0814 -0.5213
   48CHL1    C5 3486   6.429   2.552   6.849 -0.0185 -0.2695  0.5826
   48CHL1    C6 3487   6.345   2.613   6.935 -0.2704 -0.4558 -0.2711
   48CHL1    H6 3488   6.279   2.691   6.894  1.1152  0.2631 -1.2149
   48CHL1    C7 3489   6.347   2.593   7.088 -0.2691  0.3617  0.0294
   48CHL1   H7A 3490   6.331   2.682   7.152  0.4510  1.8020 -1.7015
   48CHL1   H7B 3491   6.270   2.518   7.114 -1.0591  0.6667 -1.3485
   48CHL1    C8 3492   6.474   2.507   7.126 -0.1295 -0.2585 -0.8528
   48CHL1    H8 3493   6.561   2.576   7.129  1.7987 -2.5980 -0.4579
   48CHL1   C14 3494   6.446   2.441   7.260  0.3088 -0.1650 -0.4494
   48CHL1   H14 3495   6.367   2.367   7.236 -0.7588  0.8259 -0.0961
   48CHL1   C15 3496   6.374   2.524   7.376 -0.0866  0.6353  0.2441
   48CHL1  H15A 3497   6.403   2.630   7.393 -1.9074  1.1487  0.3061
   48CHL1  H15B 3498   6.265   2.519   7.361 -0.4289  0.4851  2.4549
   48CHL1   C16 3499   6.417   2.448   7.506  0.0896 -0.6356  0.3740
   48CHL1  H16A 3500   6.490   2.517   7.554 -0.0861 -0.2629  0.1101
   48CHL1  H16B 3501   6.338   2.445   7.584 -0.1929 -1.7744  0.0568
   48CHL1   C17 3502   6.487   2.316   7.464 -0.5913  0.1521  0.1935
   48CHL1   H17 3503   6.409   2.240   7.443  2.5968 -2.9661 -1.3811
   48CHL1   C13 3504   6.556   2.355   7.328 -0.9785  0.1452 -0.8010
   48CHL1   C18 3505   6.676   2.456   7.354  0.1517  0.6862  0.2868
   48CHL1  H18A 3506   6.764   2.396   7.385  0.5351  0.5190 -1.0523
   48CHL1  H18B 3507   6.709   2.502   7.258 -0.0272  1.2320  0.4804
   48CHL1  H18C 3508   6.658   2.533   7.432  0.2092  0.9637  0.0301
   48CHL1   C12 3509   6.587   2.245   7.229 -0.5147 -0.0587  0.1657
   48CHL1  H12A 3510   6.674   2.183   7.261  1.1926  1.6577 -0.9277
   48CHL1  H12B 3511   6.505   2.172   7.215 -1.6472  0.9705  1.1713
   48CHL1   C11 3512   6.615   2.303   7.093  0.2301 -0.6627  0.6174
   48CHL1  H11A 3513   6.697   2.378   7.098 -2.0210  2.1573 -1.5117
   48CHL1  H11B 3514   6.646   2.228   7.016  1.7461 -0.1840  0.7188
   48CHL1    C9 3515   6.500   2.391   7.028  0.1348 -0.6403  0.5431
   48CHL1    H9 3516   6.405   2.334   7.037 -0.1116 -0.1109  1.4411
   48CHL1   C10 3517   6.521   2.439   6.886 -0.4706  0.8604  0.1332
   48CHL1   C19 3518   6.668   2.485   6.879  0.4817  0.0291  0.5847
   48CHL1  H19A 3519   6.692   2.543   6.970 -1.0979 -0.1813  1.1774
   48CHL1  H19B 3520   6.739   2.401   6.862 -1.0627 -1.7978  2.5770
   48CHL1  H19C 3521   6.688   2.560   6.799  2.9363  0.2792  1.3552
   48CHL1    C1 3522   6.503   2.320   6.783  0.0289  0.0927 -0.9877
   48CHL1   H1A 3523   6.590   2.252   6.799  0.6187  1.3113  1.6081
   48CHL1   H1B 3524   6.410   2.264   6.803  0.9213 -1.1642 -0.2172
   48CHL1    C2 3525   6.510   2.365   6.635  0.1858  0.4553  0.1356
   48CHL1   H2A 3526   6.486   2.274   6.574  0.2354  0.1816  0.5215
   48CHL1   H2B 3527   6.612   2.406   6.619  0.7183 -1.0760 -0.6482
   48CHL1   C20 3528   6.579   2.263   7.579 -0.3816 -0.3296 -0.0040
   48CHL1   H20 3529   6.664   2.335   7.582  1.1344 -2.0071 -0.7031
   48CHL1   C21 3530   6.634   2.129   7.541 -0.5372  0.3014  0.2366
   48CHL1  H21A 3531   6.714   2.101   7.613 -0.2099  1.3561  0.2960
   48CHL1  H21B 3532   6.678   2.133   7.439 -0.7148 -0.7686  0.1119
   48CHL1  H21C 3533   6.554   2.052   7.541 -0.7399  0.4796  1.6352
   48CHL1   C22 3534   6.517   2.259   7.718 -0.3628  0.1520 -1.0649
   48CHL1  H22A 3535   6.603   2.239   7.784 -3.4510 -0.2209  3.2836
   48CHL1  H22B 3536   6.474   2.358   7.746 -0.9992 -0.1902 -0.8205
   48CHL1   C23 3537   6.400   2.162   7.750  0.4491 -0.3103  0.5406
   48CHL1  H23A 3538   6.322   2.171   7.670 -0.6892  2.0643  1.8116
   48CHL1  H23B 3539   6.437   2.060   7.725  2.3902  0.8084 -1.4699
   48CHL1   C24 3540   6.346   2.172   7.892  0.3132  0.0717 -0.2555
   48CHL1  H24A 3541   6.422   2.180   7.973  1.1968  1.6117 -1.1746
   48CHL1  H24B 3542   6.288   2.267   7.894  0.2593  0.0400  1.7379
   48CHL1   C25 3543   6.242   2.062   7.917 -0.3987 -0.3998  0.3523
   48CHL1   H25 3544   6.171   2.038   7.835 -3.4674  1.3210  2.2943
   48CHL1   C26 3545   6.318   1.928   7.959  0.3952 -0.5265 -0.3006
   48CHL1  H26A 3546   6.376   1.950   8.051  1.4008 -0.9130 -0.8185
   48CHL1  H26B 3547   6.238   1.851   7.968  1.0022 -1.0368  0.9118
   48CHL1  H26C 3548   6.378   1.892   7.872 -0.3800 -2.3380 -0.1360
   48CHL1   C27 3549   6.145   2.104   8.026  0.6100  0.4945  0.4694
   48CHL1  H27A 3550   6.087   2.197   8.011 -0.4309 -0.0118  1.2143
   48CHL1  H27B 3551   6.069   2.022   8.026  1.8352 -0.6766 -0.1052
   48CHL1  H27C 3552   6.179   2.101   8.131 -2.1410  0.5756  1.4587
   49CHL1    C3 3553   6.341   5.271   6.951 -0.2204  0.0448 -0.2121
   49CHL1    H3 3554   6.429   5.326   6.991 -0.0692  0.5383 -1.2115
   49CHL1    O3 3555   6.332   5.275   6.813  0.0989 -0.0601 -0.3960
   49CHL1   H3' 3556   6.255   5.223   6.790 -0.3100  0.4624 -0.2090
   49CHL1    C4 3557   6.348   5.125   6.999 -0.4675 -0.3521  0.2423
   49CHL1   H4A 3558   6.250   5.088   6.961 -1.1599  1.2302  0.4035
   49CHL1   H4B 3559   6.420   5.063   6.942  0.4753  1.4731 -0.6288
   49CHL1    C5 3560   6.358   5.116   7.147  0.8109  0.4570 -1.0579
   49CHL1    C6 3561   6.466   5.052   7.200 -0.3406  0.5544 -0.1085
   49CHL1    H6 3562   6.534   5.013   7.123 -1.0492  0.8077 -0.8678
   49CHL1    C7 3563   6.496   5.040   7.349 -0.3104  0.1394  0.9104
   49CHL1   H7A 3564   6.526   4.938   7.378 -0.2387  0.2712  1.2990
   49CHL1   H7B 3565   6.580   5.111   7.367  0.2486 -0.1707 -0.3678
   49CHL1    C8 3566   6.369   5.078   7.433  0.1825  0.5419 -0.2776
   49CHL1    H8 3567   6.308   4.986   7.418  3.2703 -1.5657 -0.8433
   49CHL1   C14 3568   6.403   5.098   7.579  0.1928 -1.0144  0.0801
   49CHL1   H14 3569   6.461   5.193   7.582 -2.1471  0.5216 -0.9560
   49CHL1   C15 3570   6.493   4.998   7.651  0.1999  0.0931  0.0822
   49CHL1  H15A 3571   6.479   4.890   7.628 -1.7676  0.2332  0.3980
   49CHL1  H15B 3572   6.594   5.002   7.605  0.4147 -2.1356  0.2722
   49CHL1   C16 3573   6.477   5.029   7.797 -0.1411  0.3585 -0.6687
   49CHL1  H16A 3574   6.448   4.945   7.865 -2.5560  2.0474  0.5272
   49CHL1  H16B 3575   6.573   5.068   7.837  0.1550 -2.1652  1.3832
   49CHL1   C17 3576   6.358   5.134   7.806 -0.6517 -0.0143 -0.1711
   49CHL1   H17 3577   6.392   5.240   7.808 -0.5500 -0.0561  0.5631
   49CHL1   C13 3578   6.289   5.122   7.675  0.0240 -0.4666  0.2685
   49CHL1   C18 3579   6.186   5.006   7.676  0.2866  0.3383  0.3609
   49CHL1  H18A 3580   6.147   4.977   7.577 -0.7025 -2.2015  1.4061
   49CHL1  H18B 3581   6.229   4.915   7.723 -1.7111 -1.3229 -0.8567
   49CHL1  H18C 3582   6.098   5.039   7.736 -0.7058  0.2595 -1.0061
   49CHL1   C12 3583   6.224   5.252   7.620  0.5889 -0.9379 -0.3907
   49CHL1  H12A 3584   6.131   5.285   7.671 -0.3492 -0.3665 -2.3692
   49CHL1  H12B 3585   6.300   5.331   7.635  2.2581 -2.4310 -0.5706
   49CHL1   C11 3586   6.189   5.247   7.470  0.7237  0.2014  0.1458
   49CHL1  H11A 3587   6.100   5.181   7.464  0.0533  1.0343  0.6512
   49CHL1  H11B 3588   6.164   5.351   7.440  0.3302  0.1587  0.3213
   49CHL1    C9 3589   6.299   5.202   7.370 -0.1285  0.6139 -0.5525
   49CHL1    H9 3590   6.377   5.280   7.383  2.8155 -2.1968  0.1885
   49CHL1   C10 3591   6.252   5.190   7.229 -0.2270 -0.9284 -0.3505
   49CHL1   C19 3592   6.127   5.112   7.209  0.8218  0.0435  0.4943
   49CHL1  H19A 3593   6.035   5.153   7.256  0.6084 -0.5876  0.6429
   49CHL1  H19B 3594   6.094   5.121   7.103  0.2679  1.0722  0.7391
   49CHL1  H19C 3595   6.140   5.006   7.238  0.3801 -0.4179 -0.9213
   49CHL1    C1 3596   6.241   5.333   7.170  0.2931  0.4818  0.0528
   49CHL1   H1A 3597   6.150   5.366   7.224  0.7268 -1.3778  2.0988
   49CHL1   H1B 3598   6.325   5.397   7.206  1.3372  0.9717 -2.9503
   49CHL1    C2 3599   6.224   5.347   7.020 -0.4999 -0.1563  0.6481
   49CHL1   H2A 3600   6.236   5.455   6.998 -0.2148 -0.3963 -0.4576
   49CHL1   H2B 3601   6.122   5.316   6.989 -0.1631 -0.5655 -0.0853
   49CHL1   C20 3602   6.272   5.127   7.936  0.3180  0.3103  0.1406
   49CHL1   H20 3603   6.225   5.026   7.942  0.6364  0.1455 -0.1109
   49CHL1   C21 3604   6.166   5.233   7.932  0.1018 -0.4160 -0.2088
   49CHL1  H21A 3605   6.123   5.238   8.035 -1.8856 -0.8641 -0.9863
   49CHL1  H21B 3606   6.081   5.219   7.863 -0.1592 -1.9672  0.3878
   49CHL1  H21C 3607   6.215   5.332   7.924  0.3250  0.0031  3.9968
   49CHL1   C22 3608   6.357   5.150   8.068  0.1707  0.5534 -0.0491
   49CHL1  H22A 3609   6.446   5.084   8.056  0.0927  0.9304 -3.8327
   49CHL1  H22B 3610   6.405   5.250   8.063  0.7577  0.3792  1.5593
   49CHL1   C23 3611   6.299   5.135   8.207 -0.1041 -0.0720 -0.2872
   49CHL1  H23A 3612   6.226   5.214   8.235 -0.5291 -0.0108 -1.4947
   49CHL1  H23B 3613   6.246   5.037   8.203  0.1651 -0.2113 -0.3953
   49CHL1   C24 3614   6.402   5.117   8.314  0.8773  0.0877 -0.1108
   49CHL1  H24A 3615   6.471   5.042   8.270  0.8637  0.7326 -1.2746
   49CHL1  H24B 3616   6.469   5.205   8.321  1.9269 -0.6939 -0.1815
   49CHL1   C25 3617   6.337   5.081   8.451  0.8012 -0.1577 -0.9646
   49CHL1   H25 3618   6.253   5.009   8.441 -2.2704  3.0575 -0.0857
   49CHL1   C26 3619   6.442   5.041   8.549  0.2504 -0.5024  0.6645
   49CHL1  H26A 3620   6.386   4.978   8.621 -0.9514  1.0826  1.1705
   49CHL1  H26B 3621   6.520   4.982   8.496  0.1767  1.3814 -1.7153
   49CHL1  H26C 3622   6.498   5.124   8.597  3.4272 -2.0193 -0.1575
   49CHL1   C27 3623   6.256   5.196   8.522  0.6167  0.1261  0.5606
   49CHL1  H27A 3624   6.160   5.206   8.467  1.2059 -2.4581 -1.1070
   49CHL1  H27B 3625   6.215   5.159   8.618 -0.5238  0.7792  0.3436
   49CHL1  H27C 3626   6.322   5.281   8.551 -0.2722  0.3782  1.8990
   50CHL1    C3 3627   6.406   4.681   6.909  0.2708 -0.1838  0.4335
   50CHL1    H3 3628   6.453   4.770   6.955 -0.7401  0.2460  0.6673
   50CHL1    O3 3629   6.426   4.659   6.770  0.1093  0.0634 -0.0497
   50CHL1   H3' 3630   6.370   4.589   6.737 -1.2337  0.9097  0.3597
   50CHL1    C4 3631   6.460   4.551   6.967 -0.8062 -0.3762  0.1958
   50CHL1   H4A 3632   6.415   4.465   6.913 -0.3045  0.4193 -1.5682
   50CHL1   H4B 3633   6.568   4.552   6.938  0.5298  1.7765  4.4482
   50CHL1    C5 3634   6.436   4.551   7.120  0.0807  0.6093 -1.1199
   50CHL1    C6 3635   6.539   4.535   7.208 -0.0384  0.9057 -0.0214
   50CHL1    H6 3636   6.642   4.522   7.175 -0.2734 -0.0822 -0.4103
   50CHL1    C7 3637   6.525   4.546   7.362  0.6453 -0.2246 -0.0598
   50CHL1   H7A 3638   6.612   4.498   7.412 -0.5559 -1.2752  1.1222
   50CHL1   H7B 3639   6.542   4.651   7.393  2.5156 -0.5233  0.0585
   50CHL1    C8 3640   6.376   4.518   7.405  1.0160 -0.0267  0.0514
   50CHL1    H8 3641   6.359   4.413   7.373  2.0162  0.1962 -1.3352
   50CHL1   C14 3642   6.366   4.537   7.552 -0.8270 -0.2190 -0.6511
   50CHL1   H14 3643   6.406   4.638   7.572  0.1138 -0.7818  0.4310
   50CHL1   C15 3644   6.456   4.452   7.639 -0.0525  0.7461 -0.2764
   50CHL1  H15A 3645   6.431   4.344   7.626  2.0129 -0.2401  2.9179
   50CHL1  H15B 3646   6.564   4.461   7.615 -0.6075  2.5740 -2.5096
   50CHL1   C16 3647   6.410   4.487   7.781 -0.2728  0.0656  0.6299
   50CHL1  H16A 3648   6.407   4.392   7.838  2.4972 -1.0899 -0.9304
   50CHL1  H16B 3649   6.483   4.558   7.825 -1.4191  1.6839  0.0178
   50CHL1   C17 3650   6.274   4.563   7.762  0.2603  1.0576  0.4955
   50CHL1   H17 3651   6.303   4.669   7.772  0.3946  1.4537 -3.0328
   50CHL1   C13 3652   6.227   4.536   7.616  0.3369 -0.3113 -0.0299
   50CHL1   C18 3653   6.155   4.397   7.604  0.2651 -0.2985 -0.0844
   50CHL1  H18A 3654   6.205   4.320   7.666  1.2598 -1.0291 -1.7045
   50CHL1  H18B 3655   6.050   4.409   7.638  0.4390  0.2891  0.2696
   50CHL1  H18C 3656   6.159   4.359   7.499 -0.5850 -0.4969 -0.0439
   50CHL1   C12 3657   6.141   4.644   7.537 -0.4135  0.7164  0.3601
   50CHL1  H12A 3658   6.034   4.642   7.568 -0.6435  3.2294 -0.0250
   50CHL1  H12B 3659   6.177   4.744   7.570 -0.1480  2.5113 -4.5860
   50CHL1   C11 3660   6.142   4.620   7.383  0.1238 -0.0749  0.5470
   50CHL1  H11A 3661   6.086   4.526   7.361 -0.3377  0.6097 -1.4684
   50CHL1  H11B 3662   6.093   4.703   7.327  0.7191 -0.8429 -1.1945
   50CHL1    C9 3663   6.283   4.611   7.324 -0.5972 -0.0314  0.9858
   50CHL1    H9 3664   6.331   4.712   7.328  0.7072 -0.6636  3.0605
   50CHL1   C10 3665   6.288   4.581   7.168  0.3781  0.7917 -0.1588
   50CHL1   C19 3666   6.207   4.444   7.134 -0.0506 -0.6482  0.3770
   50CHL1  H19A 3667   6.105   4.438   7.178  0.3860 -0.7054  1.4101
   50CHL1  H19B 3668   6.203   4.431   7.024 -2.1427 -1.0611  0.4541
   50CHL1  H19C 3669   6.263   4.355   7.169 -1.6145 -1.5252  0.7082
   50CHL1    C1 3670   6.228   4.697   7.085 -0.1686  0.2256 -0.3394
   50CHL1   H1A 3671   6.119   4.712   7.102  0.1346  2.4358 -0.0388
   50CHL1   H1B 3672   6.264   4.790   7.133  2.9578  0.6335 -3.1186
   50CHL1    C2 3673   6.257   4.685   6.934  0.0993  0.2184 -0.4985
   50CHL1   H2A 3674   6.221   4.768   6.870 -0.6952  1.1932  1.1412
   50CHL1   H2B 3675   6.212   4.591   6.896  2.0326 -1.1558  0.4705
   50CHL1   C20 3676   6.176   4.536   7.878  0.5011 -0.5957  0.2611
   50CHL1   H20 3677   6.132   4.435   7.863 -0.1325 -0.2389 -0.3602
   50CHL1   C21 3678   6.052   4.637   7.871 -0.2897 -0.1904 -0.6643
   50CHL1  H21A 3679   6.087   4.742   7.877  0.2727 -0.3633 -0.8385
   50CHL1  H21B 3680   5.987   4.637   7.961  0.9967  0.3354  0.2911
   50CHL1  H21C 3681   5.999   4.629   7.774 -0.9782 -1.8134 -0.1863
   50CHL1   C22 3682   6.241   4.542   8.017  0.4571 -0.5966  0.3440
   50CHL1  H22A 3683   6.147   4.544   8.077 -0.9707 -1.0116 -1.7884
   50CHL1  H22B 3684   6.302   4.453   8.041 -0.1302 -0.9431  0.5736
   50CHL1   C23 3685   6.329   4.672   8.052 -0.2704  0.1405  0.1512
   50CHL1  H23A 3686   6.435   4.648   8.030 -0.3149 -0.6284  0.7290
   50CHL1  H23B 3687   6.299   4.764   7.997 -1.5679  1.4604  2.8998
   50CHL1   C24 3688   6.324   4.706   8.199 -0.5283 -0.1275 -0.1507
   50CHL1  H24A 3689   6.402   4.781   8.224 -1.0886 -0.3088  2.3790
   50CHL1  H24B 3690   6.239   4.771   8.227 -0.3091 -0.5273  1.5158
   50CHL1   C25 3691   6.342   4.591   8.303  0.0280 -0.1474  1.2238
   50CHL1   H25 3692   6.257   4.523   8.281 -1.4612  1.8385  0.4928
   50CHL1   C26 3693   6.481   4.526   8.305 -0.3172  0.0504 -0.8340
   50CHL1  H26A 3694   6.507   4.463   8.393 -1.8882 -0.9163 -1.0370
   50CHL1  H26B 3695   6.483   4.462   8.215  0.6886  2.0022 -2.2958
   50CHL1  H26C 3696   6.553   4.608   8.284 -2.0028  1.9034  0.2602
   50CHL1   C27 3697   6.320   4.658   8.438 -0.8884  0.2960 -0.5031
   50CHL1  H27A 3698   6.406   4.721   8.471  1.6018 -2.7717 -0.7016
   50CHL1  H27B 3699   6.223   4.709   8.460 -1.4284 -0.8348 -0.1827
   50CHL1  H27C 3700   6.312   4.571   8.506  0.0293  0.9980  0.5291
   51CHL1    C3 3701   6.332   3.141   6.834  0.1332  0.1151  0.3782
   51CHL1    H3 3702   6.366   3.036   6.822  0.7134  0.4079 -0.6872
   51CHL1    O3 3703   6.311   3.192   6.701  0.5663  0.1489 -0.0051
   51CHL1   H3' 3704   6.394   3.213   6.658  0.7602  0.6989  0.6190
   51CHL1    C4 3705   6.203   3.124   6.914 -0.0261  0.2065 -0.5862
   51CHL1   H4A 3706   6.159   3.225   6.916 -0.0951  0.1799 -0.7900
   51CHL1   H4B 3707   6.135   3.049   6.867 -3.6826  2.2413  1.0586
   51CHL1    C5 3708   6.230   3.079   7.056  0.1212 -0.7222 -0.2163
   51CHL1    C6 3709   6.163   2.979   7.106  0.1933 -0.7453 -0.4078
   51CHL1    H6 3710   6.096   2.930   7.034  1.4898 -0.4987 -1.8395
   51CHL1    C7 3711   6.169   2.928   7.243 -0.0276 -0.2743 -0.0506
   51CHL1   H7A 3712   6.066   2.900   7.274  0.7903 -2.2038  1.1305
   51CHL1   H7B 3713   6.220   2.830   7.239 -0.5355 -0.6653  1.8022
   51CHL1    C8 3714   6.245   3.026   7.340 -0.2635 -0.2371  0.3870
   51CHL1    H8 3715   6.184   3.115   7.367  1.0506  0.3781  1.4691
   51CHL1   C14 3716   6.288   2.950   7.468  0.1186  0.2202  0.3148
   51CHL1   H14 3717   6.369   2.881   7.436 -0.0218  0.3134 -0.2483
   51CHL1   C15 3718   6.183   2.874   7.546 -0.3580  0.2543  0.6616
   51CHL1  H15A 3719   6.099   2.942   7.574 -1.7940 -0.4851 -1.6158
   51CHL1  H15B 3720   6.136   2.785   7.498  0.6015  0.2673 -0.3393
   51CHL1   C16 3721   6.261   2.843   7.674  0.2383 -0.1876  0.0035
   51CHL1  H16A 3722   6.199   2.850   7.766  0.6285  0.1224  0.2460
   51CHL1  H16B 3723   6.284   2.737   7.654  0.6895 -0.3016  1.0664
   51CHL1   C17 3724   6.388   2.928   7.683 -0.3084 -0.2641  0.4018
   51CHL1   H17 3725   6.475   2.866   7.653  0.0879 -0.6499  2.2604
   51CHL1   C13 3726   6.365   3.034   7.571 -0.5575  0.1008  0.2039
   51CHL1   C18 3727   6.274   3.143   7.619 -0.5339 -0.0749  0.3259
   51CHL1  H18A 3728   6.265   3.230   7.551 -0.7032 -1.0044 -0.8592
   51CHL1  H18B 3729   6.176   3.113   7.664 -0.9018 -0.2169 -0.5630
   51CHL1  H18C 3730   6.318   3.189   7.710  0.8474 -0.0839 -0.3176
   51CHL1   C12 3731   6.490   3.091   7.502 -0.4696  0.1883  0.0996
   51CHL1  H12A 3732   6.554   3.163   7.558 -0.0404  0.7012 -1.0132
   51CHL1  H12B 3733   6.556   3.004   7.480  0.4311  0.2420  2.3631
   51CHL1   C11 3734   6.466   3.151   7.363  0.0051 -0.9580 -0.0661
   51CHL1  H11A 3735   6.417   3.249   7.381  0.1155 -1.0584  0.8375
   51CHL1  H11B 3736   6.565   3.172   7.316  0.1133 -2.1865 -0.4293
   51CHL1    C9 3737   6.369   3.082   7.267 -0.8610 -0.4603  0.3636
   51CHL1    H9 3738   6.420   2.988   7.235 -0.2385 -0.8326  2.2761
   51CHL1   C10 3739   6.335   3.163   7.133  0.5574  0.1562 -0.1059
   51CHL1   C19 3740   6.273   3.303   7.167  0.2558  0.7535  0.4002
   51CHL1  H19A 3741   6.171   3.283   7.207  0.0879 -3.3771 -1.5033
   51CHL1  H19B 3742   6.336   3.362   7.236  0.6879  1.5116 -0.6249
   51CHL1  H19C 3743   6.246   3.351   7.070 -2.2617  0.0048  0.6395
   51CHL1    C1 3744   6.465   3.182   7.050 -0.3837 -0.3303 -0.2174
   51CHL1   H1A 3745   6.536   3.250   7.102  2.4845 -1.0266 -2.9312
   51CHL1   H1B 3746   6.520   3.086   7.041 -0.1374 -0.0521 -2.2263
   51CHL1    C2 3747   6.433   3.230   6.905  0.6999  0.2130 -0.2167
   51CHL1   H2A 3748   6.526   3.235   6.843  0.7936  0.3488 -0.0644
   51CHL1   H2B 3749   6.380   3.328   6.912 -0.4941 -0.5013  1.2270
   51CHL1   C20 3750   6.411   2.983   7.826  0.7628 -1.1260 -0.1529
   51CHL1   H20 3751   6.326   3.050   7.852 -0.0699 -1.6786 -1.3686
   51CHL1   C21 3752   6.533   3.081   7.819  0.1101  0.3486 -0.3393
   51CHL1  H21A 3753   6.623   3.030   7.780 -1.2455 -0.3905 -2.7274
   51CHL1  H21B 3754   6.551   3.143   7.910  1.3223 -0.9629  0.3463
   51CHL1  H21C 3755   6.512   3.165   7.750 -0.1213  1.4597  1.0213
   51CHL1   C22 3756   6.437   2.873   7.928 -0.4028  0.4454 -0.3051
   51CHL1  H22A 3757   6.352   2.802   7.937 -0.8184  1.1738  2.3104
   51CHL1  H22B 3758   6.537   2.828   7.911 -0.3581  0.6449 -0.5788
   51CHL1   C23 3759   6.453   2.920   8.077  0.6492 -0.7245  0.3215
   51CHL1  H23A 3760   6.529   3.002   8.083  1.6054 -1.5913  0.3966
   51CHL1  H23B 3761   6.357   2.968   8.104  0.9652 -0.8135  1.6548
   51CHL1   C24 3762   6.504   2.803   8.163 -0.2534  0.1240 -0.0481
   51CHL1  H24A 3763   6.423   2.728   8.179  0.1627 -0.8544 -2.1882
   51CHL1  H24B 3764   6.585   2.758   8.103 -0.5105  0.0644 -0.3523
   51CHL1   C25 3765   6.560   2.857   8.295  0.7057 -0.1615  0.6838
   51CHL1   H25 3766   6.484   2.924   8.342  1.6193 -0.1440  2.1944
   51CHL1   C26 3767   6.580   2.735   8.388  0.4979  0.3102 -0.1806
   51CHL1  H26A 3768   6.609   2.779   8.486  0.6640 -0.9730  0.3624
   51CHL1  H26B 3769   6.489   2.673   8.403  0.9179 -0.0579  0.8948
   51CHL1  H26C 3770   6.653   2.668   8.339 -1.7625 -2.9849  0.6500
   51CHL1   C27 3771   6.698   2.940   8.291  0.3567  0.4306  0.0350
   51CHL1  H27A 3772   6.780   2.873   8.258 -1.1329 -1.3951 -0.1532
   51CHL1  H27B 3773   6.686   3.011   8.206 -2.1961 -2.0960 -1.9210
   51CHL1  H27C 3774   6.720   2.973   8.394 -2.3236  1.6802  0.2871
   52CHL1    C3 3775   3.608   6.400   7.093 -0.2999 -0.3573  0.1498
   52CHL1    H3 3776   3.509   6.431   7.131 -0.4597 -0.9037  0.1811
   52CHL1    O3 3777   3.612   6.379   6.955  0.5176 -0.6802  0.2299
   52CHL1   H3' 3778   3.701   6.382   6.920  0.4418 -0.1122  0.0633
   52CHL1    C4 3779   3.700   6.520   7.119  0.2191  0.4057  0.9049
   52CHL1   H4A 3780   3.798   6.488   7.078 -0.5073 -0.1572 -0.4400
   52CHL1   H4B 3781   3.673   6.607   7.055  0.9296 -1.9068 -2.8220
   52CHL1    C5 3782   3.714   6.548   7.267 -0.3448 -0.0501 -0.1343
   52CHL1    C6 3783   3.662   6.659   7.317  0.3659  0.4431 -0.1811
   52CHL1    H6 3784   3.613   6.731   7.249 -1.3594  0.6885  1.2497
   52CHL1    C7 3785   3.674   6.692   7.465  0.0037 -0.8304 -0.6005
   52CHL1   H7A 3786   3.715   6.795   7.468  0.1082 -0.8989  0.9122
   52CHL1   H7B 3787   3.575   6.683   7.515 -0.4713 -0.0327 -1.3638
   52CHL1    C8 3788   3.768   6.596   7.535  0.0765 -0.5524 -1.1895
   52CHL1    H8 3789   3.870   6.622   7.502  0.0352  0.6794 -0.4043
   52CHL1   C14 3790   3.743   6.607   7.691 -0.5253 -0.7958  0.0714
   52CHL1   H14 3791   3.636   6.583   7.712  0.1268 -0.7788  4.2080
   52CHL1   C15 3792   3.741   6.746   7.755 -0.0753 -1.1542 -0.5216
   52CHL1  H15A 3793   3.820   6.799   7.698 -0.1400 -0.5522 -0.0667
   52CHL1  H15B 3794   3.642   6.795   7.744  0.0269 -1.0359 -0.9716
   52CHL1   C16 3795   3.774   6.713   7.905  0.0183 -0.0034 -0.1033
   52CHL1  H16A 3796   3.871   6.764   7.925 -0.4953  0.9243  0.0746
   52CHL1  H16B 3797   3.694   6.754   7.970  2.0755  3.7339  0.3487
   52CHL1   C17 3798   3.801   6.563   7.919  0.7212  0.6212  1.0217
   52CHL1   H17 3799   3.701   6.517   7.938  0.0506  0.8501 -1.5402
   52CHL1   C13 3800   3.826   6.514   7.773  0.4609 -0.7448 -0.2935
   52CHL1   C18 3801   3.983   6.544   7.746  0.8360  0.5539  0.2043
   52CHL1  H18A 3802   4.052   6.484   7.809 -0.3169  1.3183  2.2949
   52CHL1  H18B 3803   4.005   6.524   7.639  1.2731 -0.4948  0.4751
   52CHL1  H18C 3804   3.997   6.654   7.756 -0.4397  0.7101  0.4475
   52CHL1   C12 3805   3.790   6.373   7.733  0.5154 -0.3989  0.6899
   52CHL1  H12A 3806   3.854   6.293   7.776  3.2267 -0.0120 -2.3100
   52CHL1  H12B 3807   3.689   6.357   7.779  1.3393 -0.8119  2.4611
   52CHL1   C11 3808   3.811   6.348   7.580  0.1896 -0.1041  0.3066
   52CHL1  H11A 3809   3.920   6.338   7.560  0.1824 -0.5134  0.4560
   52CHL1  H11B 3810   3.753   6.256   7.559  1.3159 -0.9002  0.5690
   52CHL1    C9 3811   3.734   6.457   7.494 -0.4379  0.1548  0.6296
   52CHL1    H9 3812   3.625   6.443   7.513 -0.4041 -0.7617  0.1991
   52CHL1   C10 3813   3.762   6.430   7.343 -0.2855 -0.0723 -0.0699
   52CHL1   C19 3814   3.907   6.406   7.309 -0.4705 -0.0259 -0.1380
   52CHL1  H19A 3815   3.936   6.307   7.350 -0.9380  0.3692  1.1886
   52CHL1  H19B 3816   3.925   6.395   7.200 -0.2876  0.1985 -0.1339
   52CHL1  H19C 3817   3.969   6.491   7.347 -0.9219 -0.4947  1.7624
   52CHL1    C1 3818   3.680   6.305   7.309 -0.2441 -0.7257 -0.7714
   52CHL1   H1A 3819   3.736   6.222   7.357  1.5702  0.4139 -0.7933
   52CHL1   H1B 3820   3.580   6.308   7.357 -0.6057  0.0578 -1.5357
   52CHL1    C2 3821   3.657   6.276   7.163  0.3819 -0.0392  0.4123
   52CHL1   H2A 3822   3.570   6.208   7.153 -0.3065  0.8614  0.1782
   52CHL1   H2B 3823   3.751   6.234   7.121 -0.5544  0.2467 -2.1409
   52CHL1   C20 3824   3.899   6.529   8.037  0.3796  0.0469 -0.1638
   52CHL1   H20 3825   4.000   6.574   8.022  1.2063 -1.8819 -0.7129
   52CHL1   C21 3826   3.898   6.370   8.045 -0.9855 -0.0783  0.7073
   52CHL1  H21A 3827   3.942   6.333   7.951  2.2402  1.0088  1.6687
   52CHL1  H21B 3828   3.798   6.330   8.073 -1.1326 -3.4684 -3.6335
   52CHL1  H21C 3829   3.967   6.330   8.122  1.6027  2.4216 -0.1480
   52CHL1   C22 3830   3.848   6.592   8.162 -0.5009  0.1550 -0.1141
   52CHL1  H22A 3831   3.832   6.702   8.159  2.2935  0.6527  0.3913
   52CHL1  H22B 3832   3.750   6.546   8.183 -1.1616  2.5850  2.9034
   52CHL1   C23 3833   3.938   6.576   8.292  0.2694  0.0223  0.1643
   52CHL1  H23A 3834   3.961   6.468   8.301  1.1639  0.1381 -0.5882
   52CHL1  H23B 3835   4.031   6.634   8.274  0.8925 -0.2943  2.1940
   52CHL1   C24 3836   3.869   6.627   8.418 -0.2706 -0.7457 -0.4063
   52CHL1  H24A 3837   3.846   6.734   8.398 -5.0066 -0.8896  2.6706
   52CHL1  H24B 3838   3.767   6.585   8.433 -0.5082 -0.0562 -0.0386
   52CHL1   C25 3839   3.961   6.611   8.541 -0.7678  0.0581 -0.1535
   52CHL1   H25 3840   4.060   6.659   8.523 -1.9028  2.2087 -1.0413
   52CHL1   C26 3841   3.902   6.667   8.664 -0.6748 -0.6320 -0.5030
   52CHL1  H26A 3842   3.960   6.656   8.758 -1.6297  0.3379  0.2345
   52CHL1  H26B 3843   3.878   6.774   8.647  0.4768 -0.5648 -1.9273
   52CHL1  H26C 3844   3.807   6.614   8.689 -0.7108  0.5989  2.3526
   52CHL1   C27 3845   3.984   6.463   8.561  0.3149 -0.9372 -0.9115
   52CHL1  H27A 3846   4.019   6.459   8.666 -0.0754  0.1415 -0.7244
   52CHL1  H27B 3847   3.885   6.415   8.549 -0.1946 -0.0782 -0.2443
   52CHL1  H27C 3848   4.060   6.428   8.487  1.0947 -2.4115  0.5316
   53CHL1    C3 3849   3.248   2.845   6.922 -0.0334 -0.9266 -0.0848
   53CHL1    H3 3850   3.345   2.899   6.930  0.1203 -1.3560  1.2845
   53CHL1    O3 3851   3.200   2.857   6.790  1.0652  0.1820  0.4157
   53CHL1   H3' 3852   3.185   2.949   6.768  1.9656  0.5934  1.4047
   53CHL1    C4 3853   3.265   2.697   6.966 -0.4523  0.2899 -0.2672
   53CHL1   H4A 3854   3.162   2.655   6.959 -0.4444  0.0876  0.6931
   53CHL1   H4B 3855   3.321   2.645   6.886 -1.7844 -0.0771 -0.9855
   53CHL1    C5 3856   3.320   2.695   7.108 -0.8276  0.3729 -0.0018
   53CHL1    C6 3857   3.441   2.645   7.133 -0.4220 -0.2927  0.0365
   53CHL1    H6 3858   3.505   2.621   7.047 -0.8031  0.3978 -0.4477
   53CHL1    C7 3859   3.502   2.636   7.271  0.8905  0.0808 -0.1546
   53CHL1   H7A 3860   3.547   2.535   7.285  1.2823 -0.1828 -2.9216
   53CHL1   H7B 3861   3.578   2.716   7.278 -1.0627  2.1157 -1.0573
   53CHL1    C8 3862   3.401   2.651   7.390 -0.1323 -0.1729 -0.4430
   53CHL1    H8 3863   3.334   2.562   7.396 -0.2973  0.0292  0.9882
   53CHL1   C14 3864   3.478   2.696   7.513 -0.0572  0.5050  0.2913
   53CHL1   H14 3865   3.513   2.795   7.477  0.4374 -0.5192 -2.2416
   53CHL1   C15 3866   3.591   2.604   7.559  0.3914  0.3051  0.0211
   53CHL1  H15A 3867   3.559   2.498   7.550  1.0477 -0.0861  1.8126
   53CHL1  H15B 3868   3.683   2.625   7.500  0.0722 -1.6136 -1.2487
   53CHL1   C16 3869   3.604   2.634   7.713  0.4729 -0.0562  0.4868
   53CHL1  H16A 3870   3.581   2.539   7.766  0.8595 -0.1585  0.4735
   53CHL1  H16B 3871   3.709   2.661   7.737 -0.5101  2.5294  2.3958
   53CHL1   C17 3872   3.488   2.729   7.746  0.5605 -0.4744 -0.2301
   53CHL1   H17 3873   3.521   2.831   7.715  1.3029 -1.5287 -3.3307
   53CHL1   C13 3874   3.385   2.700   7.638  0.2109  0.6769  0.8836
   53CHL1   C18 3875   3.314   2.556   7.651 -0.2327  0.5796 -0.4683
   53CHL1  H18A 3876   3.254   2.522   7.563 -0.4550 -0.7158  0.1647
   53CHL1  H18B 3877   3.382   2.469   7.660 -0.3901  0.3011 -1.7318
   53CHL1  H18C 3878   3.244   2.538   7.735  0.5373  1.6196  0.4113
   53CHL1   C12 3879   3.276   2.810   7.612 -0.2036 -0.2345  0.2141
   53CHL1  H12A 3880   3.198   2.797   7.690 -0.3165 -2.4074 -0.1922
   53CHL1  H12B 3881   3.324   2.910   7.615 -3.6195  1.6288 -1.6543
   53CHL1   C11 3882   3.211   2.795   7.476 -0.4291  0.8045 -0.3455
   53CHL1  H11A 3883   3.142   2.710   7.495  0.1807  0.1643 -0.9434
   53CHL1  H11B 3884   3.145   2.881   7.451  1.5539  2.2213 -0.9371
   53CHL1    C9 3885   3.306   2.771   7.353 -0.2895  0.2631 -0.2230
   53CHL1    H9 3886   3.369   2.863   7.350  3.4087 -2.0597  0.2451
   53CHL1   C10 3887   3.231   2.757   7.216  0.0778  0.8889  0.7775
   53CHL1   C19 3888   3.105   2.672   7.239 -0.2796  0.2477  0.3680
   53CHL1  H19A 3889   3.018   2.707   7.298 -1.9866 -1.2746 -1.1282
   53CHL1  H19B 3890   3.073   2.633   7.140 -0.4017  1.2641 -0.0029
   53CHL1  H19C 3891   3.137   2.582   7.296 -1.8264 -0.5294  0.0509
   53CHL1    C1 3892   3.190   2.894   7.173  0.1474 -0.1258  0.0856
   53CHL1   H1A 3893   3.115   2.928   7.247 -0.3724 -0.4195 -0.3022
   53CHL1   H1B 3894   3.279   2.960   7.183 -0.4335  0.7535 -0.4061
   53CHL1    C2 3895   3.143   2.906   7.022  0.1304 -0.4503 -0.1414
   53CHL1   H2A 3896   3.122   3.014   7.005 -0.7044 -0.7255 -0.9450
   53CHL1   H2B 3897   3.047   2.852   7.003  0.3450 -1.2528  0.9619
   53CHL1   C20 3898   3.457   2.732   7.896  0.6591  0.0417 -0.4782
   53CHL1   H20 3899   3.364   2.791   7.908  0.2988 -0.8143  1.2202
   53CHL1   C21 3900   3.566   2.825   7.959 -0.6804  0.5230  0.3679
   53CHL1  H21A 3901   3.660   2.767   7.945 -1.3473  0.0038 -2.4042
   53CHL1  H21B 3902   3.529   2.836   8.063 -2.1112  1.7299 -0.2380
   53CHL1  H21C 3903   3.581   2.918   7.900 -0.1086  0.2109  0.0087
   53CHL1   C22 3904   3.439   2.601   7.974 -0.0887  0.6288  0.2400
   53CHL1  H22A 3905   3.369   2.539   7.914 -0.3223  2.8643 -1.9574
   53CHL1  H22B 3906   3.540   2.556   7.979  0.2738  1.0365 -2.2216
   53CHL1   C23 3907   3.379   2.615   8.123 -0.0375  0.8020  0.6631
   53CHL1  H23A 3908   3.446   2.673   8.190  0.3536 -1.6786  2.5508
   53CHL1  H23B 3909   3.281   2.666   8.110 -0.5131  0.0141  1.1046
   53CHL1   C24 3910   3.365   2.481   8.190 -0.3587  0.6977 -0.4927
   53CHL1  H24A 3911   3.292   2.415   8.138 -1.0583 -0.1796  1.5186
   53CHL1  H24B 3912   3.465   2.432   8.185 -1.2253 -1.3195  0.7898
   53CHL1   C25 3913   3.308   2.491   8.331  0.3633  0.2391 -0.2422
   53CHL1   H25 3914   3.218   2.555   8.325 -0.4593 -0.6735  1.8149
   53CHL1   C26 3915   3.254   2.359   8.385 -0.5175  0.0540  0.7756
   53CHL1  H26A 3916   3.212   2.371   8.487 -1.9078  1.4698  0.0695
   53CHL1  H26B 3917   3.172   2.311   8.328 -1.0157 -0.7470  2.1430
   53CHL1  H26C 3918   3.337   2.286   8.399  1.0218  1.9288  1.8837
   53CHL1   C27 3919   3.411   2.544   8.427  0.1762 -0.5390 -0.0262
   53CHL1  H27A 3920   3.507   2.489   8.435  0.6089  0.4424  2.6866
   53CHL1  H27B 3921   3.442   2.647   8.400  0.6878 -0.1462  1.9163
   53CHL1  H27C 3922   3.365   2.556   8.527  1.7315  1.8901  0.4936
   54CHL1    C3 3923   0.025   5.495   6.886 -0.6956  0.2198  0.1164
   54CHL1    H3 3924   0.135   5.484   6.877 -0.6188  0.3223  0.8434
   54CHL1    O3 3925  -0.034   5.524   6.768  0.1058  0.8303  0.7014
   54CHL1   H3' 3926  -0.124   5.490   6.763  1.4475 -3.1153  0.0578
   54CHL1    C4 3927  -0.026   5.365   6.944  0.6634 -0.6946  0.4959
   54CHL1   H4A 3928  -0.137   5.364   6.934  0.7534  0.3120 -0.8712
   54CHL1   H4B 3929   0.008   5.283   6.878  1.0831  0.3410 -0.6088
   54CHL1    C5 3930   0.019   5.345   7.088 -0.5783  0.7262  0.3699
   54CHL1    C6 3931   0.080   5.228   7.121 -0.3232  0.1572 -0.0515
   54CHL1    H6 3932   0.082   5.146   7.048 -1.7410 -1.6664  1.8447
   54CHL1    C7 3933   0.126   5.192   7.258 -0.7911 -0.4851  0.3826
   54CHL1   H7A 3934   0.093   5.089   7.286 -3.9618  0.1393 -0.6693
   54CHL1   H7B 3935   0.237   5.187   7.269 -0.7626  0.3798  0.5911
   54CHL1    C8 3936   0.072   5.295   7.365 -0.0500  0.6969  0.2650
   54CHL1    H8 3937  -0.033   5.259   7.374 -0.5739  2.0488 -0.2967
   54CHL1   C14 3938   0.141   5.283   7.499  0.2622 -0.7128 -0.2427
   54CHL1   H14 3939   0.242   5.323   7.476 -1.0996  2.8258 -0.7368
   54CHL1   C15 3940   0.144   5.135   7.550 -0.3096  0.4310 -0.5868
   54CHL1  H15A 3941   0.061   5.073   7.511  0.2076 -0.3416 -0.4852
   54CHL1  H15B 3942   0.239   5.093   7.511  0.4010  0.9465  0.5258
   54CHL1   C16 3943   0.145   5.149   7.705  0.0387  0.2547 -0.7141
   54CHL1  H16A 3944   0.054   5.098   7.743  0.4099 -0.2517 -0.4967
   54CHL1  H16B 3945   0.238   5.105   7.747  0.0344  0.4921 -0.4459
   54CHL1   C17 3946   0.138   5.304   7.737 -0.2688 -0.0374  0.6374
   54CHL1   H17 3947   0.240   5.348   7.741  0.3937 -1.4506  0.1087
   54CHL1   C13 3948   0.075   5.367   7.614  0.0532 -0.1385  0.1198
   54CHL1   C18 3949  -0.076   5.341   7.627  1.2151 -0.4619  0.2374
   54CHL1  H18A 3950  -0.102   5.250   7.686 -0.8637  0.2858  0.5781
   54CHL1  H18B 3951  -0.118   5.425   7.688  1.9215  0.1480 -0.1016
   54CHL1  H18C 3952  -0.134   5.340   7.533 -1.6857 -1.9390  1.8823
   54CHL1   C12 3953   0.100   5.511   7.575  0.2340  0.7499 -0.5190
   54CHL1  H12A 3954   0.050   5.586   7.639 -3.5242 -2.1243  0.2554
   54CHL1  H12B 3955   0.208   5.536   7.578  0.0617  1.4884 -0.2506
   54CHL1   C11 3956   0.055   5.542   7.430 -0.0839 -0.1116  0.0150
   54CHL1  H11A 3957  -0.053   5.570   7.436 -0.4805 -0.8587 -2.3423
   54CHL1  H11B 3958   0.096   5.642   7.404 -0.7287  0.6383  1.7569
   54CHL1    C9 3959   0.072   5.440   7.317  0.2458  0.1288 -0.5331
   54CHL1    H9 3960   0.181   5.448   7.295  0.0202  0.7902 -1.4334
   54CHL1   C10 3961   0.001   5.461   7.190  0.2796 -0.1592 -0.2863
   54CHL1   C19 3962  -0.155   5.482   7.217 -0.2813 -0.0848 -0.0671
   54CHL1  H19A 3963  -0.217   5.474   7.125 -1.2700  0.1961  0.5555
   54CHL1  H19B 3964  -0.195   5.405   7.286 -1.0940  1.5036  1.3201
   54CHL1  H19C 3965  -0.180   5.582   7.260  2.3874  1.3174 -1.4994
   54CHL1    C1 3966   0.061   5.585   7.117  0.2798 -0.0197 -0.1451
   54CHL1   H1A 3967   0.037   5.669   7.185 -2.9304 -2.1353  1.5879
   54CHL1   H1B 3968   0.171   5.573   7.101 -0.0171  0.6757 -3.6470
   54CHL1    C2 3969   0.000   5.610   6.975  0.0121  0.3035  0.0725
   54CHL1   H2A 3970   0.061   5.692   6.930 -0.4395  0.5444 -0.1142
   54CHL1   H2B 3971  -0.105   5.646   6.981 -0.9853 -1.7631 -2.5816
   54CHL1   C20 3972   0.079   5.345   7.875  0.1350  0.5712 -0.3825
   54CHL1   H20 3973  -0.027   5.313   7.867  0.2376  0.5354 -1.7274
   54CHL1   C21 3974   0.089   5.496   7.901  0.0473 -0.0589 -1.0413
   54CHL1  H21A 3975   0.184   5.545   7.870 -0.0437 -0.5179 -2.0976
   54CHL1  H21B 3976   0.069   5.509   8.009 -2.7892  0.7729 -1.5825
   54CHL1  H21C 3977   0.001   5.540   7.850 -1.2707  1.3254  2.1639
   54CHL1   C22 3978   0.149   5.267   7.996 -0.5377  0.5826  0.1018
   54CHL1  H22A 3979   0.196   5.175   7.956 -0.9700  1.1656 -1.8745
   54CHL1  H22B 3980   0.233   5.331   8.030  0.5802  0.0757 -1.5999
   54CHL1   C23 3981   0.059   5.242   8.113 -0.7937  0.2432  0.3641
   54CHL1  H23A 3982  -0.011   5.325   8.135 -0.9121  0.3581 -0.3977
   54CHL1  H23B 3983  -0.013   5.165   8.079 -1.0115  0.4710  0.3044
   54CHL1   C24 3984   0.137   5.195   8.230 -0.3799  0.1183  0.1394
   54CHL1  H24A 3985   0.164   5.090   8.203 -1.0671  0.7740 -3.5941
   54CHL1  H24B 3986   0.228   5.259   8.229  0.0850 -0.5294 -0.7220
   54CHL1   C25 3987   0.050   5.191   8.354  0.5351 -0.0686  0.6581
   54CHL1   H25 3988  -0.046   5.142   8.327  0.6776  1.5337 -3.4007
   54CHL1   C26 3989   0.114   5.104   8.454 -0.3922 -0.3424  0.3684
   54CHL1  H26A 3990   0.048   5.100   8.543 -2.2595  1.9359 -0.7986
   54CHL1  H26B 3991   0.120   5.007   8.401  0.2778 -0.5854  0.8664
   54CHL1  H26C 3992   0.214   5.135   8.493 -0.5263 -0.1329  0.5505
   54CHL1   C27 3993   0.055   5.333   8.406  0.7524 -0.0082  0.1851
   54CHL1  H27A 3994  -0.005   5.355   8.496  0.2386  2.3125 -0.6557
   54CHL1  H27B 3995   0.163   5.351   8.427  0.8149  0.1118 -0.2291
   54CHL1  H27C 3996   0.018   5.404   8.329  0.8861 -1.1728 -0.9806
   55CHL1    C3 3997   4.319   1.250   6.961 -0.3659 -0.1887  0.8177
   55CHL1    H3 3998   4.310   1.140   6.975 -1.7952 -0.3824 -1.2326
   55CHL1    O3 3999   4.327   1.276   6.820  0.1109  0.1057 -0.2044
   55CHL1   H3' 4000   4.373   1.359   6.804 -3.3800  2.0221 -1.5449
   55CHL1    C4 4001   4.194   1.331   7.010 -0.2519 -0.0540  0.1235
   55CHL1   H4A 4002   4.197   1.438   6.978 -4.3995  0.1001 -0.2120
   55CHL1   H4B 4003   4.125   1.270   6.948  1.6448  0.1155 -2.3061
   55CHL1    C5 4004   4.175   1.333   7.154 -0.1160  0.2251 -0.4681
   55CHL1    C6 4005   4.073   1.277   7.213 -0.0396  0.3555 -0.1302
   55CHL1    H6 4006   3.991   1.238   7.151 -0.4565 -1.8303  1.6916
   55CHL1    C7 4007   4.048   1.293   7.362 -0.8592 -0.1616  0.1906
   55CHL1   H7A 4008   3.951   1.343   7.384 -1.1889 -0.1152 -1.2587
   55CHL1   H7B 4009   4.061   1.201   7.422  1.9023  0.0690  0.1040
   55CHL1    C8 4010   4.150   1.386   7.432  0.4224 -0.2520 -0.0382
   55CHL1    H8 4011   4.121   1.492   7.415  1.6187  0.2903  1.0924
   55CHL1   C14 4012   4.140   1.361   7.574 -0.1865  0.1619 -0.1178
   55CHL1   H14 4013   4.181   1.258   7.584 -0.0237 -0.0070 -2.1930
   55CHL1   C15 4014   4.004   1.348   7.639  0.0879  0.1391 -0.2891
   55CHL1  H15A 4015   3.946   1.438   7.611  0.2944  0.7942  1.2675
   55CHL1  H15B 4016   3.941   1.262   7.608 -2.3773  1.9144 -0.4914
   55CHL1   C16 4017   4.025   1.361   7.789  0.3174  0.2186 -0.2167
   55CHL1  H16A 4018   3.965   1.442   7.836  1.4006  0.4957  0.7558
   55CHL1  H16B 4019   4.004   1.262   7.834 -2.4137  0.0453 -1.6898
   55CHL1   C17 4020   4.183   1.391   7.810 -0.7243  0.5834  0.3036
   55CHL1   H17 4021   4.221   1.287   7.823 -0.0426  0.5530 -1.5094
   55CHL1   C13 4022   4.228   1.448   7.665  0.3024 -0.9154  0.5169
   55CHL1   C18 4023   4.183   1.593   7.645 -1.1185 -0.9672 -0.0845
   55CHL1  H18A 4024   4.085   1.614   7.693 -1.0080  0.3009 -0.3684
   55CHL1  H18B 4025   4.246   1.665   7.701  0.5642 -1.5423 -1.1680
   55CHL1  H18C 4026   4.192   1.642   7.545  0.9351 -1.0013  0.0361
   55CHL1   C12 4027   4.375   1.431   7.620 -0.7501  0.6956  0.1419
   55CHL1  H12A 4028   4.433   1.505   7.680  0.9735  1.1446 -1.9662
   55CHL1  H12B 4029   4.399   1.327   7.651  1.1674  0.6323 -1.4309
   55CHL1   C11 4030   4.399   1.456   7.472 -0.3655  0.1012  0.0843
   55CHL1  H11A 4031   4.383   1.565   7.456  0.3987  0.2345  0.1966
   55CHL1  H11B 4032   4.500   1.420   7.443 -0.7422 -1.3881  0.5676
   55CHL1    C9 4033   4.293   1.378   7.385  0.1667  0.4056  0.5705
   55CHL1    H9 4034   4.314   1.271   7.409 -2.8176 -0.1791  0.9536
   55CHL1   C10 4035   4.305   1.389   7.227  0.0182  0.4013 -0.1410
   55CHL1   C19 4036   4.321   1.540   7.215 -0.9177  0.0930  0.8613
   55CHL1  H19A 4037   4.422   1.567   7.251 -1.1147  0.3656  1.2198
   55CHL1  H19B 4038   4.314   1.568   7.108  3.1082 -0.3064  0.3389
   55CHL1  H19C 4039   4.252   1.602   7.277 -0.5932 -0.7448  2.0987
   55CHL1    C1 4040   4.429   1.312   7.179  0.4781 -0.0774  0.2973
   55CHL1   H1A 4041   4.523   1.354   7.221 -0.0172  0.1369  1.2271
   55CHL1   H1B 4042   4.405   1.205   7.201  1.8699 -1.1458 -2.8221
   55CHL1    C2 4043   4.441   1.319   7.028  0.5729  0.4521  0.1726
   55CHL1   H2A 4044   4.538   1.282   6.990 -1.0952 -2.8298 -1.3077
   55CHL1   H2B 4045   4.440   1.425   6.993  2.5167  0.1570 -0.8659
   55CHL1   C20 4046   4.214   1.473   7.938 -0.1791  0.6309 -0.9393
   55CHL1   H20 4047   4.166   1.573   7.931 -1.6551  0.1961  1.7532
   55CHL1   C21 4048   4.367   1.497   7.958 -1.3379 -0.4740 -0.1189
   55CHL1  H21A 4049   4.419   1.400   7.963 -0.7610 -0.1161  2.5897
   55CHL1  H21B 4050   4.396   1.551   8.051  0.9588 -1.9354  0.0845
   55CHL1  H21C 4051   4.404   1.568   7.880 -1.6869 -0.1929 -0.0326
   55CHL1   C22 4052   4.146   1.401   8.068  0.2889 -0.1672 -0.0452
   55CHL1  H22A 4053   4.036   1.408   8.059  0.2835  0.5737  0.5186
   55CHL1  H22B 4054   4.170   1.293   8.074 -1.3297 -0.4844  1.5364
   55CHL1   C23 4055   4.181   1.473   8.196 -0.5350  0.2436 -0.0319
   55CHL1  H23A 4056   4.273   1.427   8.240 -1.1557 -1.2207 -0.1945
   55CHL1  H23B 4057   4.196   1.581   8.178 -1.2014  0.1494 -1.2262
   55CHL1   C24 4058   4.078   1.426   8.299 -0.0661 -0.4793 -0.0776
   55CHL1  H24A 4059   3.983   1.476   8.269  0.1249  1.9421  2.9339
   55CHL1  H24B 4060   4.066   1.316   8.305 -0.4355 -0.5041 -1.0290
   55CHL1   C25 4061   4.097   1.484   8.439  0.4189 -0.1838  0.0302
   55CHL1   H25 4062   4.091   1.594   8.438  1.6109 -0.0976  0.0776
   55CHL1   C26 4063   3.970   1.458   8.526 -0.1789 -0.0302  0.3413
   55CHL1  H26A 4064   3.889   1.524   8.487 -0.9684 -0.2940  1.4815
   55CHL1  H26B 4065   3.932   1.354   8.535  0.2689 -0.4523 -2.0043
   55CHL1  H26C 4066   3.995   1.504   8.624 -1.0562  1.6892 -0.1884
   55CHL1   C27 4067   4.229   1.447   8.502 -0.6840  0.2994 -0.1051
   55CHL1  H27A 4068   4.312   1.471   8.432 -0.8030  1.9046  0.2756
   55CHL1  H27B 4069   4.244   1.517   8.587  0.3839  1.1132 -0.9295
   55CHL1  H27C 4070   4.229   1.337   8.520  0.5915  0.4197  0.7556
   56CHL1    C3 4071   4.632   0.129   6.936 -0.2871  0.1304 -0.1807
   56CHL1    H3 4072   4.541   0.187   6.961  0.2603  0.4603  1.1295
   56CHL1    O3 4073   4.639   0.095   6.797  0.0777 -0.3271  0.0158
   56CHL1   H3' 4074   4.727   0.057   6.791 -0.4491 -1.6508  0.2819
   56CHL1    C4 4075   4.757   0.214   6.969  0.1162 -0.2277 -0.4733
   56CHL1   H4A 4076   4.855   0.167   6.944  0.2129  0.2908 -1.0887
   56CHL1   H4B 4077   4.746   0.296   6.895 -2.1636  1.5391  1.6524
   56CHL1    C5 4078   4.751   0.258   7.119 -0.6279 -0.3396  0.6364
   56CHL1    C6 4079   4.756   0.390   7.142 -0.0356 -0.0636  0.4969
   56CHL1    H6 4080   4.766   0.457   7.054 -0.4315 -0.1987  0.3462
   56CHL1    C7 4081   4.774   0.445   7.282  0.1228  0.2715 -1.0393
   56CHL1   H7A 4082   4.856   0.518   7.295  0.1106  0.1900 -0.4337
   56CHL1   H7B 4083   4.678   0.494   7.309  1.2447  2.3635 -0.6874
   56CHL1    C8 4084   4.790   0.332   7.390 -0.4432  0.3059  0.2842
   56CHL1    H8 4085   4.897   0.305   7.382  0.1947  2.0959  1.9463
   56CHL1   C14 4086   4.766   0.392   7.530 -0.3595  0.2912 -0.2446
   56CHL1   H14 4087   4.660   0.421   7.537 -0.7300 -1.1963  0.9781
   56CHL1   C15 4088   4.852   0.522   7.571  0.0305 -0.7007  0.0584
   56CHL1  H15A 4089   4.953   0.512   7.526  0.4928 -0.0798  0.9242
   56CHL1  H15B 4090   4.802   0.614   7.534  0.3319 -0.6751 -0.2871
   56CHL1   C16 4091   4.857   0.508   7.722 -0.5446 -0.3005  0.4659
   56CHL1  H16A 4092   4.964   0.514   7.752 -0.4010 -0.5050  0.0026
   56CHL1  H16B 4093   4.800   0.592   7.768 -2.3230 -1.8365  1.2088
   56CHL1   C17 4094   4.785   0.374   7.760  0.2295 -0.8355  0.1858
   56CHL1   H17 4095   4.676   0.397   7.769  0.1555  0.0774 -2.2212
   56CHL1   C13 4096   4.794   0.282   7.636  0.7151 -0.3281 -0.2476
   56CHL1   C18 4097   4.937   0.233   7.637 -0.4653 -0.0524  0.5359
   56CHL1  H18A 4098   4.942   0.173   7.544 -2.0609  0.2510  0.2334
   56CHL1  H18B 4099   5.008   0.317   7.626  0.0666 -0.7428 -1.9918
   56CHL1  H18C 4100   4.965   0.165   7.721 -1.3389 -1.8281 -0.5509
   56CHL1   C12 4101   4.684   0.170   7.617  1.1347  0.1191  0.6819
   56CHL1  H12A 4102   4.692   0.083   7.685 -0.2397 -0.6518 -0.0984
   56CHL1  H12B 4103   4.582   0.214   7.608  1.1658 -0.2496 -2.9632
   56CHL1   C11 4104   4.701   0.115   7.474  0.1243  0.8093 -0.6911
   56CHL1  H11A 4105   4.787   0.045   7.473 -2.3661 -2.5128  0.9140
   56CHL1  H11B 4106   4.624   0.036   7.461  1.5019 -0.4379 -1.6223
   56CHL1    C9 4107   4.703   0.212   7.359 -0.1551 -0.3958 -0.4811
   56CHL1    H9 4108   4.599   0.245   7.339 -0.1671 -1.0802 -1.6485
   56CHL1   C10 4109   4.744   0.144   7.220 -0.7808  0.1705  0.4101
   56CHL1   C19 4110   4.885   0.083   7.233 -0.5337  0.5619 -0.8401
   56CHL1  H19A 4111   4.908   0.023   7.142 -0.6886 -0.3856 -0.2651
   56CHL1  H19B 4112   4.970   0.154   7.235  0.9635 -1.1483 -1.2510
   56CHL1  H19C 4113   4.894   0.019   7.323  0.4801  1.5336 -0.2291
   56CHL1    C1 4114   4.634   0.042   7.181 -0.1740 -0.7465  0.2107
   56CHL1   H1A 4115   4.649  -0.051   7.240  2.8693 -0.9632 -0.7777
   56CHL1   H1B 4116   4.535   0.091   7.199 -0.2877 -1.2929  1.1131
   56CHL1    C2 4117   4.626   0.006   7.029  0.0880  0.1962  0.5407
   56CHL1   H2A 4118   4.528  -0.038   7.002 -0.6355  1.4883  0.9994
   56CHL1   H2B 4119   4.710  -0.066   7.017 -0.4304 -0.3497  0.1276
   56CHL1   C20 4120   4.833   0.328   7.901 -0.1178  0.4965  0.3085
   56CHL1   H20 4121   4.943   0.312   7.902 -0.1467 -0.2114 -2.1386
   56CHL1   C21 4122   4.780   0.185   7.942 -0.5479 -0.3011 -0.4685
   56CHL1  H21A 4123   4.798   0.169   8.051 -1.2362  0.5877 -0.2130
   56CHL1  H21B 4124   4.835   0.111   7.880  1.1836  1.0094 -0.5761
   56CHL1  H21C 4125   4.670   0.184   7.925 -1.0291  0.8635  1.9949
   56CHL1   C22 4126   4.798   0.426   8.023  0.2201  0.1924 -0.3295
   56CHL1  H22A 4127   4.802   0.533   7.992 -0.3396  0.1065 -0.7178
   56CHL1  H22B 4128   4.691   0.398   8.025 -0.0091  1.0794  0.5204
   56CHL1   C23 4129   4.856   0.399   8.163 -0.3682  0.4017  0.1959
   56CHL1  H23A 4130   4.869   0.292   8.193  1.0452  0.8024  1.1210
   56CHL1  H23B 4131   4.958   0.442   8.158 -0.8500  1.4650 -1.6541
   56CHL1   C24 4132   4.779   0.472   8.268 -0.2031  0.4285  0.1634
   56CHL1  H24A 4133   4.781   0.582   8.253 -0.8945  0.7853  2.4215
   56CHL1  H24B 4134   4.675   0.433   8.275  0.0814 -0.4893 -0.4949
   56CHL1   C25 4135   4.843   0.451   8.407  0.5033  0.2949 -1.0232
   56CHL1   H25 4136   4.803   0.532   8.472 -0.7394  0.1288 -1.5484
   56CHL1   C26 4137   4.790   0.323   8.470 -0.4558 -0.4766  0.5852
   56CHL1  H26A 4138   4.680   0.326   8.460 -0.4192 -0.9344 -0.0435
   56CHL1  H26B 4139   4.829   0.313   8.574  2.8617 -2.4625 -0.6591
   56CHL1  H26C 4140   4.801   0.228   8.413 -1.1003 -0.4208  0.3682
   56CHL1   C27 4141   4.999   0.455   8.417 -0.1794  0.3888 -0.8402
   56CHL1  H27A 4142   5.045   0.543   8.369  1.3627  0.5435  0.8025
   56CHL1  H27B 4143   5.027   0.450   8.525  1.1891  2.2811 -1.0797
   56CHL1  H27C 4144   5.050   0.367   8.372  0.3607 -0.6434  1.5807
   57SAPC     N 4145   2.319   5.768  10.987  0.1456  0.0067 -0.2805
   57SAPC   C12 4146   2.247   5.738  10.856 -0.0204  1.3409 -0.0030
   57SAPC  H12A 4147   2.312   5.755  10.771 -1.0446 -3.8806 -2.2336
   57SAPC  H12B 4148   2.162   5.803  10.846 -0.4632  0.9194  0.8990
   57SAPC   C13 4149   2.247   5.708  11.097  0.2291 -0.0208  0.7736
   57SAPC  H13A 4150   2.318   5.709  11.178  0.4602 -0.5592  0.5767
   57SAPC  H13B 4151   2.153   5.759  11.112  0.8723  0.5927  3.1047
   57SAPC  H13C 4152   2.226   5.605  11.074  1.6772 -0.5134  1.5192
   57SAPC   C14 4153   2.457   5.715  10.993  0.3005  0.2342 -0.1166
   57SAPC  H14A 4154   2.512   5.748  10.906  0.7375  1.4462  0.5918
   57SAPC  H14B 4155   2.513   5.742  11.082  0.3685  1.4579 -0.5053
   57SAPC  H14C 4156   2.444   5.608  10.992 -0.6046  0.3347 -1.2365
   57SAPC   C15 4157   2.327   5.911  10.990  0.1177 -0.9709  0.0391
   57SAPC  H15A 4158   2.233   5.965  10.990  0.8397  0.4205  2.0058
   57SAPC  H15B 4159   2.366   5.958  11.079 -1.9244  3.1443 -0.9806
   57SAPC  H15C 4160   2.388   5.950  10.910 -2.5285  1.5156 -0.9530
   57SAPC   C11 4161   2.199   5.592  10.833 -0.0696  0.4798 -0.1280
   57SAPC  H11A 4162   2.162   5.591  10.728  0.8894  1.4605 -0.5027
   57SAPC  H11B 4163   2.110   5.566  10.894  1.5730 -1.5089  1.5541
   57SAPC     P 4164   2.422   5.465  10.743 -0.0164  0.2501  0.2573
   57SAPC   O13 4165   2.545   5.461  10.827 -0.1355 -0.1498 -0.1040
   57SAPC   O14 4166   2.383   5.333  10.675  0.3398 -0.1329  0.4414
   57SAPC   O12 4167   2.305   5.492  10.842  0.4800 -0.1165 -0.2475
   57SAPC   O11 4168   2.436   5.580  10.641 -0.1316  0.2237 -0.2691
   57SAPC    C1 4169   2.560   5.620  10.584  0.6776  0.3226  0.0587
   57SAPC    HA 4170   2.615   5.683  10.657  1.4891 -1.1114  0.7290
   57SAPC    HB 4171   2.634   5.541  10.558 -0.5455 -0.7566 -0.2738
   57SAPC    C2 4172   2.543   5.693  10.449 -0.8098  0.1351  0.0623
   57SAPC    HS 4173   2.453   5.759  10.452  0.0018  1.3201 -0.5363
   57SAPC   O21 4174   2.526   5.593  10.345  0.7483 -0.1715  0.0276
   57SAPC   C21 4175   2.411   5.588  10.285  0.5783 -0.3130  0.1199
   57SAPC   O22 4176   2.313   5.659  10.314  0.3392  0.2294  0.2460
   57SAPC   C22 4177   2.422   5.493  10.165  0.2290  0.2454  0.3770
   57SAPC   H2R 4178   2.512   5.427  10.170  0.8730  1.2045  2.2028
   57SAPC   H2S 4179   2.333   5.426  10.168  1.1145 -0.9799  0.2803
   57SAPC    C3 4180   2.658   5.788  10.413  0.8060  0.1663 -0.2304
   57SAPC    HX 4181   2.756   5.736  10.408  1.1051  0.6859 -5.1053
   57SAPC    HY 4182   2.659   5.864  10.494 -1.7449  0.8868 -0.7764
   57SAPC   O31 4183   2.632   5.849  10.286 -0.2480  0.0630 -0.5956
   57SAPC   C31 4184   2.728   5.898  10.221 -0.5192  0.3372  0.9531
   57SAPC   O32 4185   2.849   5.878  10.235  0.5769 -0.5937 -0.5559
   57SAPC   C32 4186   2.668   5.964  10.101 -0.0823  0.6718 -0.2555
   57SAPC   H2X 4187   2.589   6.031  10.141 -1.0511 -0.5519 -0.0410
   57SAPC   H2Y 4188   2.614   5.885  10.045  0.8981 -0.2822  0.1057
   57SAPC   C23 4189   2.429   5.563  10.031 -0.8948 -0.1289  0.5340
   57SAPC   H3R 4190   2.524   5.620  10.027 -2.1067  1.9883  0.3960
   57SAPC   H3S 4191   2.347   5.637  10.017  0.0706  0.6330 -1.3375
   57SAPC   C24 4192   2.430   5.454   9.915 -0.0990  0.4989 -0.4450
   57SAPC   H4R 4193   2.362   5.487   9.833 -0.8422 -0.3841 -0.1980
   57SAPC   H4S 4194   2.381   5.357   9.940 -0.7325  1.1743  1.0973
   57SAPC   C25 4195   2.564   5.432   9.855  0.2294  0.1430  0.0403
   57SAPC   H5R 4196   2.636   5.370   9.912 -0.1375  0.8319  1.2879
   57SAPC   C26 4197   2.620   5.486   9.749  0.2273 -0.1822  0.0617
   57SAPC   H6R 4198   2.720   5.455   9.714 -0.0414 -0.1283 -0.7735
   57SAPC   C27 4199   2.551   5.586   9.661  0.6620 -0.4187 -0.1654
   57SAPC   H7R 4200   2.450   5.602   9.706  1.0763 -2.4114  1.6356
   57SAPC   H7S 4201   2.532   5.544   9.560  0.5719  1.1599 -0.8437
   57SAPC   C28 4202   2.632   5.710   9.633 -0.3103  0.3837 -0.0946
   57SAPC   H8R 4203   2.653   5.773   9.720  0.7902  0.9222 -0.7348
   57SAPC   C29 4204   2.682   5.738   9.512  0.0187  0.4116 -0.6104
   57SAPC   H9R 4205   2.747   5.827   9.512 -0.1351  0.5417  0.5233
   57SAPC  C210 4206   2.671   5.655   9.387 -0.6798  0.4252  0.2708
   57SAPC  H10R 4207   2.690   5.549   9.411  0.4513  0.4254 -0.5579
   57SAPC  H10S 4208   2.767   5.677   9.337 -0.5491  0.8950  0.7186
   57SAPC  C211 4209   2.555   5.679   9.295  0.0399  0.2384 -0.3403
   57SAPC  H11R 4210   2.520   5.783   9.285 -1.3879 -0.3086 -1.3615
   57SAPC  C212 4211   2.468   5.590   9.244 -0.3300  0.3427  0.2472
   57SAPC  H12R 4212   2.393   5.624   9.172 -0.0171  0.9773  0.2129
   57SAPC  C213 4213   2.467   5.440   9.256  0.2118 -0.1907 -0.4444
   57SAPC  H13R 4214   2.363   5.401   9.253  0.0610 -0.0322  1.4528
   57SAPC  H13S 4215   2.504   5.407   9.355  1.1628  0.5297 -0.5494
   57SAPC  C214 4216   2.544   5.370   9.145  0.6273 -1.8405 -0.9788
   57SAPC  H14R 4217   2.653   5.380   9.154  0.3455  1.0241  0.4563
   57SAPC  C215 4218   2.493   5.323   9.026 -0.5818  0.3782  0.1373
   57SAPC  H15R 4219   2.561   5.276   8.953 -0.5923 -1.5933  1.3294
   57SAPC  C216 4220   2.357   5.325   8.983  0.2461  0.0858  0.0988
   57SAPC  H16R 4221   2.294   5.365   9.065  2.7346  2.0569  1.1751
   57SAPC  H16S 4222   2.327   5.218   8.975  1.0454 -0.0903 -0.7464
   57SAPC  C217 4223   2.348   5.387   8.839  0.1279 -0.6451  0.0847
   57SAPC  H17R 4224   2.247   5.389   8.793  0.2635  1.0903 -0.2129
   57SAPC  H17S 4225   2.395   5.330   8.756 -1.6841  1.0954 -2.2424
   57SAPC  C218 4226   2.392   5.534   8.829  0.1598 -0.2112  1.1515
   57SAPC  H18R 4227   2.500   5.533   8.853  0.4369  0.4812  0.0144
   57SAPC  H18S 4228   2.355   5.601   8.909 -0.8366  1.0840 -0.3364
   57SAPC  C219 4229   2.366   5.593   8.689  0.2008  0.7621 -0.3713
   57SAPC  H19R 4230   2.380   5.704   8.694 -0.7243  0.9572 -1.7999
   57SAPC  H19S 4231   2.264   5.574   8.651 -1.4067  2.6961  2.5791
   57SAPC  C220 4232   2.461   5.545   8.574 -0.2742 -0.3619 -0.0566
   57SAPC  H20R 4233   2.433   5.442   8.546 -1.1973 -0.2419  0.3979
   57SAPC  H20S 4234   2.564   5.557   8.616  0.6605  2.4856 -2.7545
   57SAPC  H20T 4235   2.454   5.612   8.485  1.3025  1.2061  0.9183
   57SAPC   C33 4236   2.764   6.051  10.006 -0.0545 -0.5981 -0.4135
   57SAPC   H3X 4237   2.834   6.120  10.058 -1.6017 -1.3631  2.9979
   57SAPC   H3Y 4238   2.698   6.121   9.950 -0.5695 -0.6280  0.1411
   57SAPC   C34 4239   2.855   5.955   9.927 -0.0896  0.0116  0.3489
   57SAPC   H4X 4240   2.805   5.871   9.875  0.9341  0.0642 -0.7643
   57SAPC   H4Y 4241   2.924   5.909  10.002  1.7009  1.3835 -0.3714
   57SAPC   C35 4242   2.930   6.038   9.822 -0.0358 -0.1890 -0.3582
   57SAPC   H5X 4243   3.034   6.005   9.798 -0.2135  0.6895 -2.5857
   57SAPC   H5Y 4244   2.941   6.133   9.879 -0.3389 -2.0403  3.0317
   57SAPC   C36 4245   2.856   6.039   9.689  0.4501  0.3062  0.7799
   57SAPC   H6X 4246   2.754   6.082   9.699  0.1513 -0.0006 -0.7105
   57SAPC   H6Y 4247   2.840   5.934   9.658 -0.3811  0.5785  0.2499
   57SAPC   C37 4248   2.929   6.112   9.581 -0.5118 -0.1856 -0.3519
   57SAPC   H7X 4249   3.027   6.061   9.564 -0.3546  0.2121 -0.6449
   57SAPC   H7Y 4250   2.944   6.219   9.606 -0.5319 -0.3836  0.5358
   57SAPC   C38 4251   2.863   6.114   9.446 -0.4244 -0.3356  0.2092
   57SAPC   H8X 4252   2.771   6.174   9.461 -0.9296 -1.5643  2.5309
   57SAPC   H8Y 4253   2.852   6.007   9.421 -0.1086 -0.3423  0.1011
   57SAPC   C39 4254   2.947   6.179   9.336 -0.2743 -0.6483 -0.3236
   57SAPC   H9X 4255   3.052   6.143   9.332 -0.1813 -0.3949 -0.1687
   57SAPC   H9Y 4256   2.958   6.288   9.356  1.5652 -0.8923  0.1656
   57SAPC  C310 4257   2.904   6.167   9.188 -0.3549  0.6106  0.2864
   57SAPC  H10X 4258   2.802   6.211   9.182 -1.3004 -1.5756 -0.7801
   57SAPC  H10Y 4259   2.887   6.065   9.147 -0.8954  0.1105  1.6757
   57SAPC  C311 4260   3.005   6.233   9.094  0.6414 -0.3788 -0.1304
   57SAPC  H11X 4261   3.093   6.167   9.085  0.9554  0.2330 -1.9233
   57SAPC  H11Y 4262   3.028   6.333   9.136 -2.9332  0.4795  0.1539
   57SAPC  C312 4263   2.952   6.245   8.950  0.8361 -0.3131  0.0401
   57SAPC  H12X 4264   2.861   6.307   8.965  0.7980 -0.5662  0.9699
   57SAPC  H12Y 4265   2.913   6.145   8.923 -3.0857  0.6885  1.3042
   57SAPC  C313 4266   3.041   6.309   8.853 -0.2207  0.0199 -0.8171
   57SAPC  H13X 4267   3.123   6.237   8.835 -0.5045 -0.4272 -0.3379
   57SAPC  H13Y 4268   3.081   6.404   8.894 -2.2123  1.1856 -1.4115
   57SAPC  C314 4269   2.968   6.341   8.725 -0.2785 -0.4608 -0.1225
   57SAPC  H14X 4270   2.887   6.416   8.736 -1.6460 -1.6732 -1.5310
   57SAPC  H14Y 4271   2.923   6.245   8.694  0.3445 -1.4396  1.8871
   57SAPC  C315 4272   3.055   6.389   8.606  0.2324 -0.5179 -0.1447
   57SAPC  H15X 4273   3.101   6.490   8.614 -2.5871  1.1748 -2.9008
   57SAPC  H15Y 4274   2.995   6.402   8.513 -0.8892 -3.1865  0.1032
   57SAPC  C316 4275   3.151   6.285   8.553 -0.2349  0.4345  0.8399
   57SAPC  H16X 4276   3.107   6.184   8.544  0.7132  0.0002  0.9285
   57SAPC  H16Y 4277   3.233   6.274   8.628 -0.5235  1.4865  1.3361
   57SAPC  C317 4278   3.203   6.321   8.420 -0.2533  0.5041  0.6667
   57SAPC  H17X 4279   3.117   6.332   8.350  1.0009  1.0889 -0.8622
   57SAPC  H17Y 4280   3.271   6.240   8.386 -0.0271  0.8510  0.2853
   57SAPC  C318 4281   3.296   6.437   8.418  0.0111 -0.8259 -0.0358
   57SAPC  H18X 4282   3.328   6.452   8.312  1.7162 -0.6451  0.4796
   57SAPC  H18Y 4283   3.394   6.415   8.465  0.1453  2.4453  1.4535
   57SAPC  H18Z 4284   3.247   6.530   8.454 -0.9732 -0.4807 -2.0696
   58SAPC     N 4285   3.131   5.237  10.869  0.0518  0.4400  0.3129
   58SAPC   C12 4286   3.040   5.118  10.912  0.3202 -0.3992  0.3360
   58SAPC  H12A 4287   2.939   5.153  10.902  0.6151  0.5469  0.5263
   58SAPC  H12B 4288   3.054   5.105  11.018 -0.9643 -0.1712  0.5489
   58SAPC   C13 4289   3.077   5.361  10.928  0.0707 -0.3600 -0.6342
   58SAPC  H13A 4290   3.117   5.449  10.879  2.0788 -2.5912 -3.3378
   58SAPC  H13B 4291   2.970   5.370  10.922 -0.1912 -1.6710  1.2067
   58SAPC  H13C 4292   3.100   5.366  11.033 -0.9561 -0.1344 -0.4099
   58SAPC   C14 4293   3.266   5.224  10.926 -0.1415 -0.3848 -0.4780
   58SAPC  H14A 4294   3.323   5.144  10.883 -1.0766 -1.3066 -0.0383
   58SAPC  H14B 4295   3.324   5.315  10.918 -0.5244 -0.2175 -1.4997
   58SAPC  H14C 4296   3.245   5.193  11.027  0.6408 -0.2917 -0.2793
   58SAPC   C15 4297   3.132   5.267  10.720  0.0748 -0.3289 -0.0445
   58SAPC  H15A 4298   3.026   5.276  10.700 -1.0354 -2.5023  3.8404
   58SAPC  H15B 4299   3.181   5.362  10.700 -1.2503  0.3684 -0.0737
   58SAPC  H15C 4300   3.174   5.187  10.661 -0.3503 -0.3795 -0.2766
   58SAPC   C11 4301   3.051   4.979  10.835 -0.2882 -0.9676 -0.3573
   58SAPC  H11A 4302   2.985   4.903  10.883 -1.5122  0.0735 -0.3408
   58SAPC  H11B 4303   3.152   4.935  10.848 -0.6154 -2.1374 -1.5690
   58SAPC     P 4304   2.863   4.983  10.663 -0.0106 -0.2644  0.1387
   58SAPC   O13 4305   2.817   4.842  10.668 -0.2591  0.2520  0.3858
   58SAPC   O14 4306   2.787   5.078  10.747  0.0799  0.0966 -0.1400
   58SAPC   O12 4307   3.024   4.990  10.698  0.2774 -0.1043  0.0111
   58SAPC   O11 4308   2.862   5.029  10.511 -0.5822  0.1481  0.0775
   58SAPC    C1 4309   2.844   5.160  10.461  0.2131 -0.1712  0.1744
   58SAPC    HA 4310   2.880   5.232  10.539 -0.5623 -1.5035  1.8368
   58SAPC    HB 4311   2.912   5.181  10.376 -0.8300 -3.6689 -1.7228
   58SAPC    C2 4312   2.703   5.185  10.408  0.3717 -0.8674 -0.7795
   58SAPC    HS 4313   2.637   5.185  10.498  1.8085  1.4914  0.3863
   58SAPC   O21 4314   2.663   5.082  10.317  0.8437 -0.1350  0.0421
   58SAPC   C21 4315   2.534   5.090  10.285  0.4442 -0.2728 -0.5489
   58SAPC   O22 4316   2.445   5.162  10.335 -0.3705 -0.3489  0.2872
   58SAPC   C22 4317   2.513   4.995  10.170  0.0983 -0.2072 -0.2045
   58SAPC   H2R 4318   2.609   4.968  10.121  0.5473  0.4281  0.3017
   58SAPC   H2S 4319   2.471   4.910  10.227  0.2536  0.7940  1.4558
   58SAPC    C3 4320   2.695   5.331  10.354 -0.0307 -0.5871  0.2022
   58SAPC    HX 4321   2.739   5.406  10.422 -0.0076 -0.3696 -0.0544
   58SAPC    HY 4322   2.586   5.355  10.357 -0.0437 -0.6053 -0.1108
   58SAPC   O31 4323   2.747   5.342  10.219 -0.6101  0.2733  0.0711
   58SAPC   C31 4324   2.851   5.437  10.204  0.1233  0.6383 -0.1947
   58SAPC   O32 4325   2.901   5.497  10.299 -0.1260 -0.4113 -0.2177
   58SAPC   C32 4326   2.888   5.458  10.055 -0.4923  0.3613  0.4746
   58SAPC   H2X 4327   2.797   5.488   9.998  0.1144 -0.1506 -0.8087
   58SAPC   H2Y 4328   2.921   5.363  10.007  0.5913  0.4118  1.0853
   58SAPC   C23 4329   2.407   5.039  10.068  0.2275 -0.5730  0.3653
   58SAPC   H3R 4330   2.445   5.129  10.015  0.9627  0.5082  2.6137
   58SAPC   H3S 4331   2.313   5.078  10.114 -0.3413  1.9107 -2.5567
   58SAPC   C24 4332   2.375   4.936   9.962 -0.5525  0.3496  0.0323
   58SAPC   H4R 4333   2.287   4.954   9.896  1.1555 -1.7120 -3.0541
   58SAPC   H4S 4334   2.352   4.839  10.010  2.4290 -1.5042 -2.0159
   58SAPC   C25 4335   2.490   4.912   9.875  0.5938  0.1939  0.2034
   58SAPC   H5R 4336   2.579   4.871   9.925  1.1537  1.1000 -0.0281
   58SAPC   C26 4337   2.507   4.968   9.753  0.0003 -0.0993 -0.3400
   58SAPC   H6R 4338   2.601   4.949   9.700  1.3027 -1.0390  2.1718
   58SAPC   C27 4339   2.402   5.056   9.697  0.2570  0.3715 -0.0593
   58SAPC   H7R 4340   2.356   5.116   9.778 -2.9480 -2.7538  0.6875
   58SAPC   H7S 4341   2.321   4.989   9.663 -0.5538  0.2692  1.9221
   58SAPC   C28 4342   2.458   5.156   9.602 -0.6996  0.7121 -0.6833
   58SAPC   H8R 4343   2.470   5.255   9.649  2.7042 -1.5743  4.1990
   58SAPC   C29 4344   2.495   5.135   9.474  0.1860  0.1084  0.2712
   58SAPC   H9R 4345   2.544   5.215   9.417  1.0877  0.3261  1.3262
   58SAPC  C210 4346   2.481   5.012   9.394 -0.9730 -0.8156 -0.1319
   58SAPC  H10R 4347   2.390   5.026   9.332 -1.8526  0.1453  1.3014
   58SAPC  H10S 4348   2.441   4.933   9.461 -2.0447 -0.7739 -0.7022
   58SAPC  C211 4349   2.602   4.972   9.309 -0.4553 -0.2174 -0.2348
   58SAPC  H11R 4350   2.694   4.952   9.366 -0.9520 -1.1071  0.2773
   58SAPC  C212 4351   2.604   4.953   9.175 -0.1604 -0.0735 -0.0518
   58SAPC  H12R 4352   2.699   4.931   9.125  0.5088  1.3374  0.5341
   58SAPC  C213 4353   2.490   4.974   9.081  0.1150  0.0524 -0.5282
   58SAPC  H13R 4354   2.521   5.048   9.004 -0.8942 -0.8161 -1.8258
   58SAPC  H13S 4355   2.391   4.991   9.128  1.0976 -1.3249  2.2616
   58SAPC  C214 4356   2.471   4.836   9.020 -0.7755 -1.0936 -0.2985
   58SAPC  H14R 4357   2.438   4.758   9.090 -0.2329 -1.9479 -0.9752
   58SAPC  C215 4358   2.493   4.806   8.891  0.5322 -0.0909  0.6353
   58SAPC  H15R 4359   2.471   4.704   8.856  1.6627  0.2840 -1.3143
   58SAPC  C216 4360   2.540   4.897   8.778 -0.1651  0.4501 -0.2213
   58SAPC  H16R 4361   2.650   4.882   8.779 -0.4494 -2.0422  0.3460
   58SAPC  H16S 4362   2.539   5.006   8.797 -0.1877  0.3926  0.1089
   58SAPC  C217 4363   2.484   4.858   8.636  0.1386  0.1850  0.4520
   58SAPC  H17R 4364   2.482   4.747   8.623  0.5194  0.3700 -1.3693
   58SAPC  H17S 4365   2.543   4.911   8.559  0.3226  0.6334  0.9000
   58SAPC  C218 4366   2.339   4.919   8.626 -0.2061  0.7240  0.0410
   58SAPC  H18R 4367   2.346   5.024   8.662  1.6411  0.4195  0.6910
   58SAPC  H18S 4368   2.279   4.871   8.707  1.3720 -0.7843  0.3645
   58SAPC  C219 4369   2.270   4.892   8.488  0.6273  0.1006  0.2118
   58SAPC  H19R 4370   2.192   4.814   8.504 -0.9347  1.6998  0.7309
   58SAPC  H19S 4371   2.344   4.846   8.420  0.5536  0.7887 -0.3419
   58SAPC  C220 4372   2.225   5.024   8.419 -0.6811 -0.5644 -0.3824
   58SAPC  H20R 4373   2.186   5.003   8.317 -1.8602  0.4642 -0.1623
   58SAPC  H20S 4374   2.312   5.092   8.406 -0.2754 -0.9690  0.1713
   58SAPC  H20T 4375   2.141   5.065   8.478 -0.4909 -0.0040 -0.4880
   58SAPC   C33 4376   2.985   5.575  10.039 -0.0301 -0.5899 -0.7875
   58SAPC   H3X 4377   3.053   5.580  10.127 -1.4547  1.0905  0.2973
   58SAPC   H3Y 4378   2.931   5.671  10.048 -2.8586 -2.1098 -0.4969
   58SAPC   C34 4379   3.058   5.580   9.901  0.8607  0.7556 -0.5953
   58SAPC   H4X 4380   3.132   5.497   9.898 -0.8020 -0.7688 -0.8925
   58SAPC   H4Y 4381   3.105   5.681   9.898  0.8425  0.8616  1.3945
   58SAPC   C35 4382   2.962   5.552   9.784  0.5548 -0.3196  0.3616
   58SAPC   H5X 4383   2.866   5.606   9.780  1.0437  0.5123 -0.3803
   58SAPC   H5Y 4384   2.939   5.443   9.789 -1.7381 -0.0419 -2.0291
   58SAPC   C36 4385   3.028   5.573   9.653  0.3459  0.1113  0.3205
   58SAPC   H6X 4386   2.964   5.535   9.571 -1.4459  0.4030  1.5199
   58SAPC   H6Y 4387   3.117   5.506   9.653 -2.0006 -3.2255 -0.4346
   58SAPC   C37 4388   3.063   5.720   9.615 -0.1390  0.2884 -0.4301
   58SAPC   H7X 4389   3.136   5.754   9.691 -1.2668  2.9832 -0.4251
   58SAPC   H7Y 4390   2.978   5.791   9.622 -0.6982 -0.5047  1.5051
   58SAPC   C38 4391   3.130   5.741   9.474 -0.3350  0.3824  0.2897
   58SAPC   H8X 4392   3.199   5.654   9.466 -2.6472 -1.6961  1.6283
   58SAPC   H8Y 4393   3.187   5.837   9.479 -0.3478  0.5259 -1.6252
   58SAPC   C39 4394   3.039   5.742   9.354  0.2654 -0.4579 -0.2536
   58SAPC   H9X 4395   2.940   5.782   9.385 -0.0035 -0.8009 -0.6432
   58SAPC   H9Y 4396   3.013   5.639   9.320 -0.7997 -0.7400  1.2822
   58SAPC  C310 4397   3.099   5.803   9.233  0.1772  0.2737  0.4791
   58SAPC  H10X 4398   3.199   5.762   9.208  1.0492  2.3205  0.4387
   58SAPC  H10Y 4399   3.136   5.904   9.261  2.0578  0.0669 -1.0688
   58SAPC  C311 4400   3.004   5.802   9.110  0.2117 -0.3943 -0.3406
   58SAPC  H11X 4401   2.907   5.852   9.133 -0.0854 -1.5703  1.1326
   58SAPC  H11Y 4402   2.983   5.695   9.088 -1.2861 -0.5321  1.5077
   58SAPC  C312 4403   3.069   5.867   8.981  0.7593  0.2968 -0.0619
   58SAPC  H12X 4404   3.170   5.821   8.972  0.5610 -0.2533  0.4393
   58SAPC  H12Y 4405   3.078   5.973   9.011  0.4297  0.3826 -0.2626
   58SAPC  C313 4406   2.973   5.840   8.859 -0.6720  0.3368 -0.4100
   58SAPC  H13X 4407   2.983   5.923   8.787  0.0431 -0.1760 -0.9093
   58SAPC  H13Y 4408   2.866   5.839   8.890 -0.7040 -0.0940 -0.5285
   58SAPC  C314 4409   3.002   5.709   8.784 -0.4764  0.1584 -0.1861
   58SAPC  H14X 4410   2.949   5.625   8.833  1.2916 -1.0762 -0.2858
   58SAPC  H14Y 4411   3.112   5.693   8.786 -0.4161  0.3285 -1.3798
   58SAPC  C315 4412   2.954   5.725   8.637 -0.7460 -0.6504  0.3817
   58SAPC  H15X 4413   2.993   5.637   8.581 -0.3233  1.1276 -2.3383
   58SAPC  H15Y 4414   2.994   5.813   8.583  0.9793 -2.3806 -1.3236
   58SAPC  C316 4415   2.798   5.730   8.628  0.8702 -0.8583  0.7668
   58SAPC  H16X 4416   2.766   5.793   8.714  1.2881 -1.2522  1.2190
   58SAPC  H16Y 4417   2.761   5.626   8.640 -0.5928 -0.7726 -2.1103
   58SAPC  C317 4418   2.757   5.791   8.496 -0.3983 -0.4981  1.4107
   58SAPC  H17X 4419   2.790   5.897   8.498 -2.0260  0.0422  1.2126
   58SAPC  H17Y 4420   2.647   5.799   8.480 -0.3519 -0.9987  0.7707
   58SAPC  C318 4421   2.814   5.715   8.373  0.1925  0.1242  0.3248
   58SAPC  H18X 4422   2.921   5.687   8.383 -0.3483 -1.2793  3.1251
   58SAPC  H18Y 4423   2.799   5.768   8.276  2.6076 -1.8643 -1.2376
   58SAPC  H18Z 4424   2.763   5.618   8.358 -0.4364  0.2120  1.7219
   59SAPC     N 4425   2.740   1.321  11.322  0.0876  0.2932 -0.0980
   59SAPC   C12 4426   2.665   1.245  11.212  0.1881 -1.3347 -0.3393
   59SAPC  H12A 4427   2.675   1.144  11.250 -1.2641 -1.0108  1.0495
   59SAPC  H12B 4428   2.715   1.252  11.117 -2.9427  1.7213 -1.9843
   59SAPC   C13 4429   2.659   1.331  11.446 -0.1787 -0.5077 -0.0811
   59SAPC  H13A 4430   2.653   1.232  11.490  1.7277 -0.0629  1.3330
   59SAPC  H13B 4431   2.708   1.401  11.513  1.6549 -0.7277 -1.1159
   59SAPC  H13C 4432   2.558   1.365  11.429 -0.5740 -1.4551  0.3193
   59SAPC   C14 4433   2.859   1.243  11.364 -0.2290 -0.1482 -1.0343
   59SAPC  H14A 4434   2.907   1.282  11.453 -1.4612  3.3090 -1.7463
   59SAPC  H14B 4435   2.839   1.139  11.385  2.0228 -0.3921  0.1981
   59SAPC  H14C 4436   2.926   1.231  11.280 -0.3274 -0.2961 -1.0941
   59SAPC   C15 4437   2.786   1.456  11.271  0.4994 -1.1769  0.2764
   59SAPC  H15A 4438   2.697   1.503  11.230  1.4244 -0.9441 -1.5940
   59SAPC  H15B 4439   2.822   1.524  11.346  0.6861  0.5389 -1.2812
   59SAPC  H15C 4440   2.865   1.448  11.197  1.8776  2.8687  1.0626
   59SAPC   C11 4441   2.528   1.299  11.177 -0.0358  0.1900 -0.5665
   59SAPC  H11A 4442   2.460   1.293  11.265  3.0275  0.6411  2.0251
   59SAPC  H11B 4443   2.490   1.238  11.092  0.0358  1.1345 -1.2844
   59SAPC     P 4444   2.483   1.479  10.987  0.0556 -0.2610  0.3696
   59SAPC   O13 4445   2.335   1.484  10.981  0.3494 -0.0944 -0.1936
   59SAPC   O14 4446   2.561   1.605  10.958 -0.3193  0.6147 -0.5223
   59SAPC   O12 4447   2.532   1.422  11.129  0.2176 -0.3243 -0.1901
   59SAPC   O11 4448   2.531   1.370  10.878 -0.0729  0.3619  0.4205
   59SAPC    C1 4449   2.669   1.344  10.845  1.0096 -0.9108 -0.4171
   59SAPC    HA 4450   2.743   1.368  10.925 -0.7203  1.5482  0.5719
   59SAPC    HB 4451   2.674   1.235  10.826  0.4443 -1.1023  0.4651
   59SAPC    C2 4452   2.701   1.426  10.721 -0.3682 -0.3257  0.1896
   59SAPC    HS 4453   2.714   1.530  10.756  0.1658 -0.1782 -0.4348
   59SAPC   O21 4454   2.604   1.395  10.616  0.0860 -0.0001  0.3835
   59SAPC   C21 4455   2.549   1.509  10.563 -0.2300  0.5383 -1.0553
   59SAPC   O22 4456   2.568   1.624  10.596  0.1929 -0.0761 -0.6292
   59SAPC   C22 4457   2.459   1.466  10.448 -0.5985  0.1765  0.6983
   59SAPC   H2R 4458   2.522   1.399  10.385  1.4635  0.8583  1.9337
   59SAPC   H2S 4459   2.372   1.409  10.488 -0.8116 -0.0207 -0.0242
   59SAPC    C3 4460   2.844   1.376  10.665  0.1097 -0.6168  1.0793
   59SAPC    HX 4461   2.866   1.269  10.682 -0.4494 -0.7709  0.8562
   59SAPC    HY 4462   2.925   1.414  10.732  1.6199 -0.9964 -0.4748
   59SAPC   O31 4463   2.873   1.422  10.531 -0.0059  0.0877 -0.0296
   59SAPC   C31 4464   2.905   1.552  10.532  0.2296  0.4221 -0.2935
   59SAPC   O32 4465   2.904   1.626  10.628 -0.4634 -0.0707 -0.3193
   59SAPC   C32 4466   2.959   1.590  10.396 -0.0744  0.1962  0.0402
   59SAPC   H2X 4467   2.933   1.516  10.317  0.1734  2.1191 -1.9707
   59SAPC   H2Y 4468   3.070   1.585  10.399  0.0771  2.4394 -0.0009
   59SAPC   C23 4469   2.405   1.588  10.360 -0.0772 -0.3308  0.1183
   59SAPC   H3R 4470   2.485   1.663  10.342  1.3344 -1.5584  1.0354
   59SAPC   H3S 4471   2.327   1.632  10.425 -1.2753 -0.6179 -1.0766
   59SAPC   C24 4472   2.332   1.539  10.228  0.0186  0.4738  0.5535
   59SAPC   H4R 4473   2.272   1.446  10.240  0.3967 -0.0255 -1.1558
   59SAPC   H4S 4474   2.413   1.509  10.159  0.3000  2.3335  0.0254
   59SAPC   C25 4475   2.250   1.648  10.172  0.5128  0.0608  0.3744
   59SAPC   H5R 4476   2.188   1.708  10.240 -0.5959  0.0476 -0.5960
   59SAPC   C26 4477   2.251   1.686  10.039  0.3323  0.5467  0.1271
   59SAPC   H6R 4478   2.187   1.771  10.012  0.4431  0.7305  0.4518
   59SAPC   C27 4479   2.319   1.615   9.920  0.0313 -0.1335 -0.8501
   59SAPC   H7R 4480   2.244   1.571   9.851  0.3468 -0.3367 -1.0693
   59SAPC   H7S 4481   2.391   1.535   9.949  0.0829 -0.0808 -0.8327
   59SAPC   C28 4482   2.415   1.700   9.848 -0.1307 -0.1654 -0.2547
   59SAPC   H8R 4483   2.460   1.784   9.904 -3.1551  0.7662  0.9563
   59SAPC   C29 4484   2.465   1.656   9.727 -0.1547  0.3033 -1.2314
   59SAPC   H9R 4485   2.518   1.731   9.667  3.1419 -2.1391 -1.6242
   59SAPC  C210 4486   2.421   1.525   9.659  0.3334  0.7054  0.3501
   59SAPC  H10R 4487   2.311   1.540   9.657  0.2805  0.6391  1.6363
   59SAPC  H10S 4488   2.440   1.429   9.710  1.1994  0.4318 -0.4708
   59SAPC  C211 4489   2.474   1.507   9.520  0.1499 -0.2051 -0.3760
   59SAPC  H11R 4490   2.566   1.446   9.519  1.1090  1.1693 -1.8002
   59SAPC  C212 4491   2.433   1.575   9.403  0.5098  0.5240  0.5862
   59SAPC  H12R 4492   2.485   1.551   9.309  0.6291  0.4313  0.6768
   59SAPC  C213 4493   2.331   1.686   9.396  0.2008 -0.6102  0.0854
   59SAPC  H13R 4494   2.369   1.759   9.321  0.2068 -1.5359 -0.8294
   59SAPC  H13S 4495   2.336   1.750   9.487  0.0945 -1.2393  0.5320
   59SAPC  C214 4496   2.191   1.636   9.371 -0.1044 -0.7332  0.4164
   59SAPC  H14R 4497   2.122   1.649   9.455  0.6736  0.6649  0.8726
   59SAPC  C215 4498   2.143   1.587   9.254  0.0182  1.0953 -0.4653
   59SAPC  H15R 4499   2.038   1.554   9.252  0.2426  0.3704 -0.3987
   59SAPC  C216 4500   2.223   1.578   9.122 -0.2278 -0.4501 -0.2922
   59SAPC  H16R 4501   2.223   1.477   9.075  2.0872 -0.9035  0.5840
   59SAPC  H16S 4502   2.328   1.610   9.136 -0.6343  0.0604  2.0183
   59SAPC  C217 4503   2.170   1.678   9.012 -0.1996 -0.2857 -0.1947
   59SAPC  H17R 4504   2.234   1.692   8.922  1.9430  2.7574  1.6268
   59SAPC  H17S 4505   2.183   1.783   9.045  0.0578  0.0032 -1.1897
   59SAPC  C218 4506   2.020   1.658   8.986 -0.1540 -0.6254 -0.4513
   59SAPC  H18R 4507   1.957   1.703   9.065 -0.4954 -0.0641 -1.0262
   59SAPC  H18S 4508   2.006   1.550   9.005  2.0503 -0.3218  4.1349
   59SAPC  C219 4509   1.982   1.680   8.846 -0.3093  0.1686 -0.0568
   59SAPC  H19R 4510   2.040   1.607   8.786 -1.8841 -0.2711 -1.1097
   59SAPC  H19S 4511   2.010   1.779   8.803 -1.9390 -0.0375 -1.7114
   59SAPC  C220 4512   1.839   1.655   8.813 -0.1126 -0.1666 -0.2609
   59SAPC  H20R 4513   1.807   1.567   8.873  1.7522 -0.5550  0.2379
   59SAPC  H20S 4514   1.837   1.626   8.706  1.7033  1.6929 -0.8618
   59SAPC  H20T 4515   1.777   1.747   8.820  1.1691  0.6740  0.6525
   59SAPC   C33 4516   2.907   1.722  10.346 -0.7035 -0.0295  0.3513
   59SAPC   H3X 4517   2.970   1.805  10.385 -0.0833  0.6396 -1.9232
   59SAPC   H3Y 4518   2.804   1.734  10.386 -0.8176 -0.8634  0.3292
   59SAPC   C34 4519   2.904   1.730  10.191 -0.2649 -0.2625 -0.3168
   59SAPC   H4X 4520   3.000   1.690  10.150 -0.0309 -1.1158  1.0152
   59SAPC   H4Y 4521   2.909   1.838  10.168 -0.5102 -0.0593  0.5797
   59SAPC   C35 4522   2.788   1.658  10.129 -0.3775 -0.1093 -0.2880
   59SAPC   H5X 4523   2.701   1.658  10.198 -1.4401  1.3464 -1.5506
   59SAPC   H5Y 4524   2.809   1.549  10.126 -2.6600 -0.6146  0.1702
   59SAPC   C36 4525   2.755   1.691   9.987  0.1193 -0.3675  0.0941
   59SAPC   H6X 4526   2.743   1.800   9.976  0.9934 -0.3948 -1.4889
   59SAPC   H6Y 4527   2.664   1.632   9.964 -1.1217  0.7245  1.9954
   59SAPC   C37 4528   2.872   1.651   9.889 -0.1945  0.3735 -0.2788
   59SAPC   H7X 4529   2.888   1.541   9.897  1.8844  0.7590  1.6795
   59SAPC   H7Y 4530   2.970   1.692   9.920 -0.4510 -0.6080  1.9911
   59SAPC   C38 4531   2.834   1.706   9.749  0.2793 -0.5213  0.2721
   59SAPC   H8X 4532   2.786   1.805   9.762  1.3236  0.0729 -0.2855
   59SAPC   H8Y 4533   2.766   1.632   9.702  0.8648 -0.4091 -0.7635
   59SAPC   C39 4534   2.961   1.715   9.664 -0.7012 -0.7276 -0.1142
   59SAPC   H9X 4535   3.009   1.615   9.658  0.1373 -0.2829 -1.3121
   59SAPC   H9Y 4536   3.027   1.786   9.718 -0.7275  0.0652 -1.0727
   59SAPC  C310 4537   2.941   1.783   9.524  0.0765  0.4410 -0.2866
   59SAPC  H10X 4538   2.914   1.888   9.548 -0.6918 -0.2242  2.0404
   59SAPC  H10Y 4539   2.854   1.737   9.472 -0.4040  0.4423  0.4988
   59SAPC  C311 4540   3.061   1.783   9.433  0.6445 -0.4109 -0.1283
   59SAPC  H11X 4541   3.103   1.680   9.426  1.1192 -0.1760 -0.8324
   59SAPC  H11Y 4542   3.145   1.841   9.477 -0.5804  1.1526  0.2469
   59SAPC  C312 4543   3.030   1.834   9.289 -0.0016  0.4589 -0.8817
   59SAPC  H12X 4544   3.021   1.943   9.271 -1.4311  0.8566  1.7562
   59SAPC  H12Y 4545   2.928   1.796   9.267 -0.0278 -1.0450  1.4946
   59SAPC  C313 4546   3.134   1.782   9.187 -0.2014 -0.3366  0.1542
   59SAPC  H13X 4547   3.158   1.675   9.206  1.3569 -0.0029  0.2079
   59SAPC  H13Y 4548   3.226   1.840   9.210 -0.1122 -1.2005  2.1883
   59SAPC  C314 4549   3.100   1.805   9.039 -0.4277  0.2113 -0.2574
   59SAPC  H14X 4550   3.084   1.914   9.027  0.8486  0.1582 -3.2451
   59SAPC  H14Y 4551   3.005   1.763   9.000  1.1133 -2.0764 -1.7907
   59SAPC  C315 4552   3.206   1.748   8.948 -0.6497  0.2875  0.1043
   59SAPC  H15X 4553   3.219   1.641   8.971  0.5958  0.8454  2.2690
   59SAPC  H15Y 4554   3.306   1.792   8.970 -0.4583 -0.1466  0.1137
   59SAPC  C316 4555   3.174   1.765   8.799  0.1164 -0.6592 -0.0578
   59SAPC  H16X 4556   3.156   1.873   8.786  0.3597  0.0825  4.1571
   59SAPC  H16Y 4557   3.074   1.722   8.779 -0.5921  1.3822 -1.2109
   59SAPC  C317 4558   3.284   1.724   8.704  0.5916 -0.3250 -0.0857
   59SAPC  H17X 4559   3.294   1.614   8.714 -3.2142 -0.7657  0.6013
   59SAPC  H17Y 4560   3.389   1.753   8.726  0.4133  0.5024 -0.3079
   59SAPC  C318 4561   3.253   1.767   8.558 -0.2883  0.6059 -0.2104
   59SAPC  H18X 4562   3.166   1.709   8.520 -1.6056  2.8292 -0.7243
   59SAPC  H18Y 4563   3.342   1.750   8.494 -1.7454 -1.7108 -1.7662
   59SAPC  H18Z 4564   3.218   1.872   8.553 -1.3755  0.3033  0.5633
   60SAPC     N 4565   0.380   4.295  10.994  0.5537  0.1279 -0.1267
   60SAPC   C12 4566   0.366   4.267  10.846 -0.3808  0.3698 -0.5092
   60SAPC  H12A 4567   0.310   4.348  10.803 -2.3179  0.9108  2.6508
   60SAPC  H12B 4568   0.306   4.177  10.840  0.0369 -0.3360  3.1831
   60SAPC   C13 4569   0.424   4.171  11.071 -0.3362  0.1344  0.3698
   60SAPC  H13A 4570   0.516   4.125  11.037 -1.4415 -2.0753  0.1800
   60SAPC  H13B 4571   0.439   4.194  11.175 -1.7831  0.8080  0.4505
   60SAPC  H13C 4572   0.351   4.092  11.065 -2.1814  1.8505 -1.2507
   60SAPC   C14 4573   0.475   4.405  11.015 -0.3730 -0.0230 -0.8790
   60SAPC  H14A 4574   0.463   4.495  10.955  1.2646  0.4557 -0.5533
   60SAPC  H14B 4575   0.494   4.437  11.116  4.9500 -2.1252 -0.8808
   60SAPC  H14C 4576   0.574   4.369  10.991 -0.5885 -0.7941 -0.6293
   60SAPC   C15 4577   0.244   4.329  11.045 -0.6962 -0.2793 -0.3085
   60SAPC  H15A 4578   0.170   4.254  11.024 -1.6712  0.5836 -0.0216
   60SAPC  H15B 4579   0.244   4.351  11.151 -2.2334  0.2130 -0.3909
   60SAPC  H15C 4580   0.215   4.416  10.987  0.4019  0.8712  0.7982
   60SAPC   C11 4581   0.495   4.231  10.775  0.3169  0.4594 -0.1383
   60SAPC  H11A 4582   0.573   4.298  10.817  0.1261  0.7667 -0.2683
   60SAPC  H11B 4583   0.497   4.254  10.666 -0.4668 -0.4453 -0.3539
   60SAPC     P 4584   0.503   3.977  10.712  0.0914  0.2430  0.0517
   60SAPC   O13 4585   0.607   3.982  10.605  0.4307 -0.5086  0.0974
   60SAPC   O14 4586   0.487   3.857  10.797 -0.4157  0.1900 -0.5258
   60SAPC   O12 4587   0.531   4.098  10.807  0.8974  0.4285  0.0772
   60SAPC   O11 4588   0.362   4.024  10.658 -0.1831 -0.3652 -0.0563
   60SAPC    C1 4589   0.285   3.932  10.587  0.1385 -0.2924  0.1101
   60SAPC    HA 4590   0.306   3.827  10.616 -2.1058 -0.9096 -0.3263
   60SAPC    HB 4591   0.179   3.945  10.616  0.1354 -2.0446  1.0264
   60SAPC    C2 4592   0.303   3.947  10.435  0.8454  0.8239  0.2130
   60SAPC    HS 4593   0.395   3.887  10.415  0.5896  1.1024 -2.0324
   60SAPC   O21 4594   0.311   4.086  10.407 -0.0260 -0.0543  0.0724
   60SAPC   C21 4595   0.395   4.113  10.310 -0.7815  0.0952  0.2106
   60SAPC   O22 4596   0.455   4.030  10.243 -0.2714 -0.3283 -0.2652
   60SAPC   C22 4597   0.406   4.267  10.288  0.6630  0.1445 -0.4856
   60SAPC   H2R 4598   0.458   4.320  10.371  0.4220  3.4801 -2.2945
   60SAPC   H2S 4599   0.460   4.283  10.192 -0.4568  2.6374 -0.7786
   60SAPC    C3 4600   0.177   3.880  10.370 -0.5562  0.2184 -0.5273
   60SAPC    HX 4601   0.093   3.953  10.374 -1.2388 -0.5175 -1.0606
   60SAPC    HY 4602   0.141   3.808  10.447  0.4250  0.5343  0.2485
   60SAPC   O31 4603   0.197   3.837  10.238 -0.0021 -0.4716 -0.3600
   60SAPC   C31 4604   0.259   3.727  10.235 -0.4230 -0.2113  0.5029
   60SAPC   O32 4605   0.288   3.655  10.326  0.2912 -0.2749 -0.1436
   60SAPC   C32 4606   0.305   3.701  10.099 -0.0180 -0.4185 -0.7329
   60SAPC   H2X 4607   0.268   3.770  10.020  2.4449  0.9509 -0.8120
   60SAPC   H2Y 4608   0.279   3.595  10.081  0.8760 -0.7196 -0.3079
   60SAPC   C23 4609   0.271   4.336  10.273 -0.0156 -0.7616  0.0565
   60SAPC   H3R 4610   0.224   4.337  10.374  3.0418  1.3645  1.5939
   60SAPC   H3S 4611   0.197   4.283  10.209 -0.6650  2.0644 -1.7105
   60SAPC   C24 4612   0.295   4.479  10.224 -0.1034 -0.8059  1.0491
   60SAPC   H4R 4613   0.372   4.517  10.294  1.0177  2.0550 -1.4968
   60SAPC   H4S 4614   0.199   4.529  10.250 -0.3867 -0.1489 -0.9967
   60SAPC   C25 4615   0.345   4.486  10.078 -0.7574  0.0113  0.1434
   60SAPC   H5R 4616   0.451   4.456  10.069  0.1404  2.1856  2.2496
   60SAPC   C26 4617   0.276   4.523   9.974  0.0041  0.1799  0.2439
   60SAPC   H6R 4618   0.324   4.525   9.875 -0.3962  0.0534  0.0444
   60SAPC   C27 4619   0.132   4.572   9.982  0.3465 -0.2375 -0.1456
   60SAPC   H7R 4620   0.146   4.680   9.958 -3.2570  0.3097 -0.3790
   60SAPC   H7S 4621   0.082   4.575  10.082 -0.1426  0.3225 -0.3988
   60SAPC   C28 4622   0.048   4.512   9.876  0.9643  0.5137  0.1739
   60SAPC   H8R 4623   0.005   4.415   9.904  0.0460  0.1227 -2.2791
   60SAPC   C29 4624   0.028   4.551   9.749 -0.7971 -0.3804 -0.5636
   60SAPC   H9R 4625  -0.050   4.507   9.686 -0.8554  0.6627 -1.2497
   60SAPC  C210 4626   0.080   4.681   9.686  0.0367  0.1376 -0.1744
   60SAPC  H10R 4627   0.107   4.748   9.770  0.0140 -0.3790  0.2501
   60SAPC  H10S 4628   0.001   4.732   9.627  0.6241 -1.1733 -2.2024
   60SAPC  C211 4629   0.205   4.657   9.602  0.0391  0.3918  0.0585
   60SAPC  H11R 4630   0.223   4.555   9.564 -0.5107 -0.9219  3.0258
   60SAPC  C212 4631   0.303   4.748   9.560  0.0009  0.8377  0.6539
   60SAPC  H12R 4632   0.373   4.700   9.490  0.7721 -1.7138  2.9637
   60SAPC  C213 4633   0.325   4.889   9.580  0.2359 -0.3188  0.4377
   60SAPC  H13R 4634   0.242   4.942   9.632  2.1799  3.2395  0.2585
   60SAPC  H13S 4635   0.321   4.944   9.484  0.3877 -0.0147  0.6029
   60SAPC  C214 4636   0.466   4.926   9.634 -0.2421  0.8831  0.4853
   60SAPC  H14R 4637   0.549   4.937   9.563 -0.3297  2.2821  0.5691
   60SAPC  C215 4638   0.483   4.969   9.763 -0.0614  0.5141 -0.6798
   60SAPC  H15R 4639   0.581   4.987   9.809  0.4838  0.2696 -1.7268
   60SAPC  C216 4640   0.377   4.982   9.871  0.1781 -0.2060  0.4544
   60SAPC  H16R 4641   0.337   4.885   9.905 -0.5275  0.6425  2.1949
   60SAPC  H16S 4642   0.293   5.038   9.824 -0.9793 -3.0798 -1.1384
   60SAPC  C217 4643   0.436   5.067   9.988 -0.0692  0.1790 -0.0731
   60SAPC  H17R 4644   0.535   5.023  10.015  0.0998 -0.1520 -1.1687
   60SAPC  H17S 4645   0.370   5.060  10.077 -1.9088  1.3537 -1.2703
   60SAPC  C218 4646   0.459   5.210   9.955  0.5271  0.1730  0.2003
   60SAPC  H18R 4647   0.374   5.258   9.903  1.7871  1.4630 -0.7675
   60SAPC  H18S 4648   0.538   5.211   9.877  0.0309 -1.5129 -0.3550
   60SAPC  C219 4649   0.524   5.299  10.060  0.1040 -0.5652 -0.3054
   60SAPC  H19R 4650   0.595   5.374  10.018 -0.5849  0.5035  0.3968
   60SAPC  H19S 4651   0.588   5.230  10.119  1.2424  0.1680 -0.6485
   60SAPC  C220 4652   0.436   5.363  10.162  0.7191  0.6754 -0.8076
   60SAPC  H20R 4653   0.371   5.445  10.126 -0.2752  0.3546  0.2310
   60SAPC  H20S 4654   0.497   5.398  10.248  1.1644 -0.1221 -0.7925
   60SAPC  H20T 4655   0.367   5.293  10.212  1.0649  0.9032 -0.0026
   60SAPC   C33 4656   0.461   3.709  10.094 -0.6791 -0.0778  0.2454
   60SAPC   H3X 4657   0.510   3.661  10.182  2.5398  0.2169 -1.2243
   60SAPC   H3Y 4658   0.497   3.814  10.096 -1.8332  0.4447 -2.3808
   60SAPC   C34 4659   0.532   3.631   9.976  0.0448 -0.8090  0.5361
   60SAPC   H4X 4660   0.514   3.522   9.977  2.1978 -1.2170  0.5911
   60SAPC   H4Y 4661   0.642   3.639   9.991  0.0592  0.8495 -0.2059
   60SAPC   C35 4662   0.485   3.702   9.845  0.5023  0.1312  0.6208
   60SAPC   H5X 4663   0.479   3.813   9.853 -2.0008  0.2439 -1.3092
   60SAPC   H5Y 4664   0.378   3.674   9.831  0.9866 -1.2495 -0.5835
   60SAPC   C36 4665   0.558   3.658   9.718  0.4003 -0.0185  0.3321
   60SAPC   H6X 4666   0.547   3.548   9.708  0.0039  0.1760 -1.7707
   60SAPC   H6Y 4667   0.666   3.681   9.732  0.4821 -1.0164  1.5220
   60SAPC   C37 4668   0.500   3.724   9.589 -0.0303  0.3103 -0.4362
   60SAPC   H7X 4669   0.511   3.834   9.604  0.2561 -0.0065  2.0184
   60SAPC   H7Y 4670   0.393   3.702   9.568  0.4453 -1.6356 -1.0229
   60SAPC   C38 4671   0.576   3.678   9.461  0.8617  0.2184 -0.5646
   60SAPC   H8X 4672   0.530   3.581   9.433  0.4496 -0.0315  0.8734
   60SAPC   H8Y 4673   0.686   3.661   9.473  0.6144 -0.1160  1.7196
   60SAPC   C39 4674   0.547   3.762   9.344  0.0839 -0.6626  0.0394
   60SAPC   H9X 4675   0.606   3.856   9.353 -0.9015 -0.1045  0.9159
   60SAPC   H9Y 4676   0.443   3.799   9.331  0.7914  0.9197 -1.6360
   60SAPC  C310 4677   0.584   3.708   9.197 -1.0747 -0.1071  0.2692
   60SAPC  H10X 4678   0.514   3.625   9.173  0.1037 -1.1039  0.1223
   60SAPC  H10Y 4679   0.683   3.657   9.198 -1.0342 -0.0253  1.2157
   60SAPC  C311 4680   0.573   3.813   9.094 -0.2323 -0.2215  0.6545
   60SAPC  H11X 4681   0.637   3.899   9.121 -1.9833  1.0706  0.8873
   60SAPC  H11Y 4682   0.467   3.848   9.091  0.4102  1.8414 -2.0263
   60SAPC  C312 4683   0.616   3.773   8.956  0.1662  0.1915 -0.6813
   60SAPC  H12X 4684   0.556   3.692   8.909 -1.2434 -0.3442  1.8719
   60SAPC  H12Y 4685   0.723   3.746   8.957 -0.3667 -2.1719 -1.3157
   60SAPC  C313 4686   0.592   3.891   8.857 -0.4482 -0.8520 -0.0554
   60SAPC  H13X 4687   0.648   3.975   8.903  0.7574 -1.9278  0.5272
   60SAPC  H13Y 4688   0.482   3.911   8.861 -0.5133 -1.3002  0.4900
   60SAPC  C314 4689   0.646   3.855   8.714  0.2370  0.1541  0.3017
   60SAPC  H14X 4690   0.754   3.838   8.732  0.6009  1.7361 -0.2306
   60SAPC  H14Y 4691   0.644   3.946   8.650 -2.3304  0.0491  0.1447
   60SAPC  C315 4692   0.587   3.730   8.638  0.1450  0.4125  0.2962
   60SAPC  H15X 4693   0.476   3.730   8.637  0.1352  1.5183 -0.0508
   60SAPC  H15Y 4694   0.620   3.641   8.695  0.1124 -0.9277 -1.6868
   60SAPC  C316 4695   0.639   3.703   8.498  0.3702  0.5426 -0.1483
   60SAPC  H16X 4696   0.744   3.668   8.506 -0.4453 -1.6429  2.7122
   60SAPC  H16Y 4697   0.623   3.799   8.444 -2.2175  0.3464  0.1465
   60SAPC  C317 4698   0.562   3.589   8.430  0.0676 -0.4781  0.2221
   60SAPC  H17X 4699   0.452   3.606   8.423 -0.1082 -2.2465 -3.1549
   60SAPC  H17Y 4700   0.585   3.494   8.481 -0.0190 -0.9582 -0.6197
   60SAPC  C318 4701   0.603   3.577   8.284  0.7236  0.7497 -0.5802
   60SAPC  H18X 4702   0.534   3.502   8.239  2.3088 -1.4491  0.4573
   60SAPC  H18Y 4703   0.707   3.540   8.271 -0.5402 -2.9968 -1.1498
   60SAPC  H18Z 4704   0.594   3.674   8.230  0.5928  1.5101  0.7607
   61SAPC     N 4705   3.501   4.710  10.967  0.8797 -0.8767 -0.2696
   61SAPC   C12 4706   3.427   4.582  10.932  0.0171  0.4195 -0.6642
   61SAPC  H12A 4707   3.324   4.585  10.965  0.6637 -1.3095  1.8431
   61SAPC  H12B 4708   3.469   4.510  11.002  0.8717  2.2788  0.8333
   61SAPC   C13 4709   3.656   4.685  10.953  0.6006  0.4865  0.2409
   61SAPC  H13A 4710   3.670   4.641  10.856 -2.8151 -0.2274 -0.0482
   61SAPC  H13B 4711   3.710   4.777  10.968 -1.5899  1.6844  1.3618
   61SAPC  H13C 4712   3.685   4.607  11.021 -2.8340 -2.6781 -1.5368
   61SAPC   C14 4713   3.463   4.815  10.868  0.2327  0.0710  0.7273
   61SAPC  H14A 4714   3.360   4.847  10.881 -0.1874  0.2693 -2.3017
   61SAPC  H14B 4715   3.524   4.902  10.883 -0.3421  0.7485 -0.6776
   61SAPC  H14C 4716   3.477   4.772  10.770  0.0016 -0.7227  1.0330
   61SAPC   C15 4717   3.476   4.764  11.103  0.3505 -0.3166 -0.2980
   61SAPC  H15A 4718   3.472   4.683  11.174 -2.1589 -1.3824 -1.5225
   61SAPC  H15B 4719   3.550   4.836  11.132 -0.7867 -0.0175  2.1135
   61SAPC  H15C 4720   3.381   4.814  11.111  1.5246  1.8893  0.6058
   61SAPC   C11 4721   3.450   4.506  10.799  0.0624 -0.6135  0.1147
   61SAPC  H11A 4722   3.427   4.586  10.725  0.6050  0.3796  1.0097
   61SAPC  H11B 4723   3.379   4.420  10.792  1.4117 -1.6252 -3.3354
   61SAPC     P 4724   3.639   4.331  10.845  0.3522 -0.4998 -0.2076
   61SAPC   O13 4725   3.791   4.340  10.841 -0.0761  0.0505  1.0173
   61SAPC   O14 4726   3.587   4.311  10.980 -0.1502  0.3652  0.3584
   61SAPC   O12 4727   3.584   4.465  10.784  0.7418  0.5273  0.3070
   61SAPC   O11 4728   3.588   4.209  10.761 -0.1088  0.2152  0.4548
   61SAPC    C1 4729   3.558   4.230  10.621  0.2380 -0.3065 -0.1486
   61SAPC    HA 4730   3.481   4.151  10.604 -2.6265  1.8773  1.6837
   61SAPC    HB 4731   3.503   4.324  10.600  2.5129  0.8493 -1.1571
   61SAPC    C2 4732   3.671   4.198  10.531  0.0070 -0.2795 -0.1143
   61SAPC    HS 4733   3.718   4.104  10.565  0.2925 -0.0418  0.1507
   61SAPC   O21 4734   3.769   4.309  10.529  0.0427  0.1407  0.2791
   61SAPC   C21 4735   3.890   4.276  10.491  0.8749  0.3436 -0.3535
   61SAPC   O22 4736   3.927   4.159  10.459 -0.0814 -0.5399  0.1798
   61SAPC   C22 4737   3.981   4.398  10.497 -0.6048 -0.6823 -0.4233
   61SAPC   H2R 4738   3.955   4.458  10.587 -1.6555 -0.9594 -0.5367
   61SAPC   H2S 4739   4.082   4.364  10.531 -1.2456 -2.3569 -0.1025
   61SAPC    C3 4740   3.612   4.169  10.395 -0.1398  0.4772  0.3627
   61SAPC    HX 4741   3.566   4.264  10.363 -1.7522 -0.9638 -1.9181
   61SAPC    HY 4742   3.535   4.091  10.412  0.4130  0.2950  2.1889
   61SAPC   O31 4743   3.702   4.118  10.292  0.0602  0.7755 -0.1865
   61SAPC   C31 4744   3.738   3.991  10.314 -0.6370 -0.2302  0.1443
   61SAPC   O32 4745   3.694   3.912  10.393  0.1225  0.0359 -0.4089
   61SAPC   C32 4746   3.832   3.956  10.200 -0.6385  0.0033  0.3609
   61SAPC   H2X 4747   3.900   3.874  10.231 -2.2418 -1.4532  0.1908
   61SAPC   H2Y 4748   3.886   4.042  10.154 -1.0964 -0.3371 -0.8461
   61SAPC   C23 4749   3.989   4.471  10.363  0.1334  0.0777  0.4627
   61SAPC   H3R 4750   4.037   4.570  10.378  0.5097 -0.3550  2.3784
   61SAPC   H3S 4751   3.891   4.489  10.315  0.2423  0.6914  0.4679
   61SAPC   C24 4752   4.092   4.401  10.262  0.6794 -0.6396 -0.5950
   61SAPC   H4R 4753   4.059   4.298  10.233 -0.1547  0.0802 -2.3275
   61SAPC   H4S 4754   4.187   4.395  10.319  0.1772 -0.9718  0.2358
   61SAPC   C25 4755   4.108   4.490  10.138 -0.0415  0.3543  0.2953
   61SAPC   H5R 4756   4.171   4.580  10.145 -0.6846  0.8569 -0.3882
   61SAPC   C26 4757   4.048   4.470  10.015  0.1652  0.5496 -0.3613
   61SAPC   H6R 4758   4.075   4.534   9.930  0.4822 -0.5622 -1.1166
   61SAPC   C27 4759   3.958   4.350   9.976 -0.8275  0.0658 -0.0893
   61SAPC   H7R 4760   4.000   4.256  10.017  0.5424  0.5572 -0.3174
   61SAPC   H7S 4761   3.968   4.336   9.866  0.6445  1.9489 -0.2467
   61SAPC   C28 4762   3.819   4.363  10.034  0.0995 -0.2783  0.3475
   61SAPC   H8R 4763   3.808   4.431  10.120  0.1644 -0.8535  0.8170
   61SAPC   C29 4764   3.705   4.327   9.978 -0.0136 -0.1603  0.1106
   61SAPC   H9R 4765   3.614   4.343  10.037  0.1746  1.7046 -0.0353
   61SAPC  C210 4766   3.702   4.246   9.849 -0.1593 -0.2384 -0.8253
   61SAPC  H10R 4767   3.776   4.165   9.869  1.4758  1.4027  0.0596
   61SAPC  H10S 4768   3.719   4.306   9.757 -0.2819  1.3048  0.1198
   61SAPC  C211 4769   3.566   4.179   9.845  0.5608  0.8174  0.0241
   61SAPC  H11R 4770   3.503   4.188   9.934 -0.4971 -1.8591 -0.3455
   61SAPC  C212 4771   3.521   4.115   9.733  0.7839 -0.8863  0.1894
   61SAPC  H12R 4772   3.420   4.072   9.726  0.1363  0.8075 -1.9427
   61SAPC  C213 4773   3.590   4.101   9.599  0.4037  0.5393  0.4162
   61SAPC  H13R 4774   3.592   3.993   9.575 -0.3961  0.6484 -0.2037
   61SAPC  H13S 4775   3.697   4.130   9.603  0.5164  0.2342 -0.3666
   61SAPC  C214 4776   3.518   4.162   9.481  0.0509 -0.9349 -0.0799
   61SAPC  H14R 4777   3.435   4.228   9.510 -1.4469 -1.2066 -3.2290
   61SAPC  C215 4778   3.546   4.152   9.351  0.0678 -0.1670  0.0027
   61SAPC  H15R 4779   3.477   4.200   9.281 -0.4606  1.7541  1.7447
   61SAPC  C216 4780   3.662   4.068   9.289  0.8638 -0.4266 -0.5529
   61SAPC  H16R 4781   3.618   3.975   9.247 -1.0807 -1.1957  2.8075
   61SAPC  H16S 4782   3.724   4.032   9.374 -0.2083  1.0098  0.9090
   61SAPC  C217 4783   3.752   4.125   9.178 -0.2897 -0.5114  0.7315
   61SAPC  H17R 4784   3.808   4.048   9.120 -0.4260  1.3773 -2.0563
   61SAPC  H17S 4785   3.831   4.178   9.235 -1.5708  0.6600  1.4586
   61SAPC  C218 4786   3.678   4.220   9.081  0.5921 -0.3422  0.7115
   61SAPC  H18R 4787   3.666   4.312   9.143 -0.1443  0.0304  0.0441
   61SAPC  H18S 4788   3.580   4.184   9.043  0.7039  0.2619 -0.2048
   61SAPC  C219 4789   3.764   4.281   8.961  0.1759 -0.2376  0.2386
   61SAPC  H19R 4790   3.775   4.200   8.886 -0.7479 -0.1447 -0.0106
   61SAPC  H19S 4791   3.863   4.310   9.003  1.1249 -0.7296 -1.5677
   61SAPC  C220 4792   3.703   4.393   8.886  0.0543 -0.4642 -0.5053
   61SAPC  H20R 4793   3.604   4.365   8.846 -0.5961  1.0389 -0.0220
   61SAPC  H20S 4794   3.770   4.427   8.804  0.4516 -0.4492 -0.1825
   61SAPC  H20T 4795   3.687   4.469   8.966 -0.5196 -3.8181  2.8714
   61SAPC   C33 4796   3.763   3.888  10.078  0.5022  0.8518 -0.1091
   61SAPC   H3X 4797   3.705   3.966  10.026  0.1941  1.1241  0.6229
   61SAPC   H3Y 4798   3.701   3.804  10.117  2.4117 -0.4992  0.2029
   61SAPC   C34 4799   3.866   3.838   9.981  0.5920  0.2860 -0.0740
   61SAPC   H4X 4800   3.899   3.737  10.013 -4.0231 -2.7194 -3.4566
   61SAPC   H4Y 4801   3.955   3.905   9.978  0.0562  1.0693  0.8777
   61SAPC   C35 4802   3.800   3.825   9.844  0.3445  0.6761  0.4229
   61SAPC   H5X 4803   3.875   3.801   9.765 -1.4449 -2.9641 -0.3807
   61SAPC   H5Y 4804   3.763   3.924   9.810 -2.3108 -0.3156  0.1926
   61SAPC   C36 4805   3.691   3.717   9.844 -0.9132 -0.7110 -0.9930
   61SAPC   H6X 4806   3.623   3.714   9.932 -0.3921 -0.8236 -0.5845
   61SAPC   H6Y 4807   3.743   3.619   9.841  0.2941 -0.0823 -1.2160
   61SAPC   C37 4808   3.607   3.712   9.722  0.3345 -0.3864  0.3371
   61SAPC   H7X 4809   3.565   3.812   9.699  2.5992  0.2940 -1.1467
   61SAPC   H7Y 4810   3.515   3.649   9.729  0.6892 -0.9675 -0.1612
   61SAPC   C38 4811   3.671   3.685   9.587 -0.1918  0.5245 -0.5085
   61SAPC   H8X 4812   3.711   3.582   9.600  2.9878  1.2188 -3.2807
   61SAPC   H8Y 4813   3.745   3.762   9.557  1.5640 -1.1785 -0.7405
   61SAPC   C39 4814   3.569   3.689   9.470  0.3433 -0.4470  0.2377
   61SAPC   H9X 4815   3.530   3.792   9.455  0.9348 -0.3966 -1.0780
   61SAPC   H9Y 4816   3.486   3.617   9.489  0.4561 -0.1290  2.1807
   61SAPC  C310 4817   3.651   3.649   9.345  0.6156  0.2772  0.6302
   61SAPC  H10X 4818   3.703   3.553   9.366  3.0740  1.1571 -0.9097
   61SAPC  H10Y 4819   3.729   3.727   9.337  1.7558 -0.8134  0.7117
   61SAPC  C311 4820   3.564   3.619   9.226  0.2822 -0.3900  1.0789
   61SAPC  H11X 4821   3.490   3.698   9.203  0.5313  0.2690  2.4181
   61SAPC  H11Y 4822   3.527   3.518   9.256  1.1960 -1.3533 -0.8464
   61SAPC  C312 4823   3.646   3.592   9.094  0.9229  0.3321 -0.1465
   61SAPC  H12X 4824   3.581   3.536   9.023  2.2986 -0.9377 -0.4364
   61SAPC  H12Y 4825   3.737   3.533   9.116 -1.6292 -3.5084  1.0583
   61SAPC  C313 4826   3.679   3.727   9.023  0.0995 -0.0103  0.0700
   61SAPC  H13X 4827   3.748   3.708   8.938 -1.2923 -0.1440 -1.0470
   61SAPC  H13Y 4828   3.731   3.784   9.103 -0.0690 -2.5268  2.1107
   61SAPC  C314 4829   3.565   3.801   8.954 -0.2806  0.1956 -0.1162
   61SAPC  H14X 4830   3.503   3.862   9.023 -0.0521 -0.4171  0.6506
   61SAPC  H14Y 4831   3.490   3.732   8.909  1.2600 -2.1558  0.7349
   61SAPC  C315 4832   3.624   3.902   8.854  0.3946 -0.3593  0.3760
   61SAPC  H15X 4833   3.679   3.842   8.778  0.8960  0.3201  0.1866
   61SAPC  H15Y 4834   3.692   3.968   8.911 -0.1832  0.0624  0.5876
   61SAPC  C316 4835   3.523   3.995   8.779 -0.6437  0.0433  0.3883
   61SAPC  H16X 4836   3.473   4.065   8.850 -0.7679 -1.0917  1.4632
   61SAPC  H16Y 4837   3.438   3.930   8.748  0.4912 -0.8176 -1.0374
   61SAPC  C317 4838   3.571   4.077   8.654 -0.6059 -0.4076 -0.0686
   61SAPC  H17X 4839   3.647   4.151   8.687  1.1728 -0.5968 -3.3183
   61SAPC  H17Y 4840   3.489   4.129   8.601 -0.6650  0.3519  0.7358
   61SAPC  C318 4841   3.646   3.993   8.544  1.7350  0.1508 -0.2993
   61SAPC  H18X 4842   3.570   3.937   8.485 -0.9397  1.9442  1.2011
   61SAPC  H18Y 4843   3.729   3.935   8.590  0.4251 -1.5248  0.0917
   61SAPC  H18Z 4844   3.702   4.054   8.471  1.3791 -1.0461 -1.6184
   62SAPC     N 4845   0.405   3.163  10.827 -0.2606  0.1242 -0.5587
   62SAPC   C12 4846   0.507   3.141  10.721  0.5263 -1.0976 -0.2474
   62SAPC  H12A 4847   0.517   3.038  10.688  4.1663 -0.3547 -1.9834
   62SAPC  H12B 4848   0.606   3.175  10.749  0.4348  0.4569 -1.6669
   62SAPC   C13 4849   0.269   3.129  10.778  0.0822 -0.4854  0.3035
   62SAPC  H13A 4850   0.190   3.124  10.852  0.2992 -0.7266  0.5218
   62SAPC  H13B 4851   0.241   3.192  10.695  0.0877 -1.9149 -0.8139
   62SAPC  H13C 4852   0.268   3.030  10.734  0.2978  0.0646 -0.9711
   62SAPC   C14 4853   0.440   3.084  10.948 -0.6033  0.1856 -0.0783
   62SAPC  H14A 4854   0.429   2.976  10.941  0.0261  0.1497 -0.6046
   62SAPC  H14B 4855   0.541   3.099  10.980 -0.3043  3.6351 -2.1162
   62SAPC  H14C 4856   0.374   3.111  11.029 -1.3977 -1.6761 -0.0343
   62SAPC   C15 4857   0.411   3.308  10.871  0.0272  0.5874 -0.1152
   62SAPC  H15A 4858   0.500   3.331  10.929  0.3516  0.5429 -0.5948
   62SAPC  H15B 4859   0.402   3.373  10.785 -0.5442  2.2741  1.1538
   62SAPC  H15C 4860   0.320   3.326  10.927  0.4778 -1.1012  1.2520
   62SAPC   C11 4861   0.492   3.220  10.586 -0.3917  0.3482  0.5553
   62SAPC  H11A 4862   0.496   3.331  10.593  0.1243  0.2265  3.3475
   62SAPC  H11B 4863   0.390   3.199  10.548 -0.7507  0.1836  1.5867
   62SAPC     P 4864   0.744   3.209  10.505  0.0215 -0.2181 -0.0876
   62SAPC   O13 4865   0.785   3.207  10.651 -0.3503  0.1328  0.5061
   62SAPC   O14 4866   0.819   3.121  10.415  0.2346 -0.3740 -0.3289
   62SAPC   O12 4867   0.589   3.167  10.495 -0.2101  0.6799  0.1922
   62SAPC   O11 4868   0.739   3.362  10.460  0.2750  0.2721  0.3817
   62SAPC    C1 4869   0.668   3.393  10.337  1.2233  0.7425  0.8414
   62SAPC    HA 4870   0.587   3.320  10.316  1.1061  0.9617  0.5318
   62SAPC    HB 4871   0.606   3.484  10.356 -0.9869 -0.2862 -0.9968
   62SAPC    C2 4872   0.759   3.422  10.209 -0.4724 -0.8025 -0.6408
   62SAPC    HS 4873   0.694   3.467  10.131 -0.7149 -1.6536 -0.9406
   62SAPC   O21 4874   0.820   3.307  10.154  0.3075  0.2843 -0.6158
   62SAPC   C21 4875   0.741   3.199  10.124 -0.2056 -0.8492  0.6669
   62SAPC   O22 4876   0.618   3.203  10.119 -0.1470  0.6019 -0.0709
   62SAPC   C22 4877   0.827   3.079  10.085 -0.1627  0.4725  0.0927
   62SAPC   H2R 4878   0.929   3.122  10.078 -0.3315  1.3003  2.0695
   62SAPC   H2S 4879   0.819   3.006  10.169 -1.5744  0.0008 -0.4256
   62SAPC    C3 4880   0.865   3.533  10.253 -0.5590 -0.1556 -0.1889
   62SAPC    HX 4881   0.927   3.487  10.333 -0.8594 -1.4359 -0.6819
   62SAPC    HY 4882   0.806   3.614  10.302  0.4146 -0.6759  1.9565
   62SAPC   O31 4883   0.949   3.588  10.152  0.1792  0.1288  0.0347
   62SAPC   C31 4884   0.922   3.705  10.092  0.0685  0.1223  0.2496
   62SAPC   O32 4885   0.815   3.766  10.103 -0.0743 -0.1486  0.4068
   62SAPC   C32 4886   1.018   3.727   9.982 -0.2002  0.3682  0.2176
   62SAPC   H2X 4887   1.122   3.712  10.017 -0.8715 -1.8309  1.4108
   62SAPC   H2Y 4888   1.017   3.833   9.949 -1.5649  0.1730 -0.4411
   62SAPC   C23 4889   0.784   3.016   9.948  0.0523  0.4657 -0.2126
   62SAPC   H3R 4890   0.676   2.990   9.939  0.2330  0.5157 -4.0352
   62SAPC   H3S 4891   0.841   2.921   9.954 -0.1797  0.2929 -0.6982
   62SAPC   C24 4892   0.838   3.088   9.818  0.3113  0.1573 -0.1194
   62SAPC   H4R 4893   0.942   3.125   9.827  0.2131  0.4218 -0.0723
   62SAPC   H4S 4894   0.769   3.175   9.821 -1.6903 -1.3515  1.9984
   62SAPC   C25 4895   0.823   3.014   9.690  0.6937  0.4051  0.8810
   62SAPC   H5R 4896   0.890   2.927   9.688  0.2538  0.0636  1.0822
   62SAPC   C26 4897   0.757   3.053   9.581  0.7900 -0.0971  0.6201
   62SAPC   H6R 4898   0.753   2.992   9.490 -1.0443  2.8967 -1.4724
   62SAPC   C27 4899   0.664   3.169   9.566 -0.6417  0.2401 -0.5174
   62SAPC   H7R 4900   0.613   3.183   9.664  0.3152  0.6762 -0.0735
   62SAPC   H7S 4901   0.589   3.140   9.489  1.4245 -3.1753 -1.4574
   62SAPC   C28 4902   0.719   3.309   9.523  0.1872  0.0737 -0.0199
   62SAPC   H8R 4903   0.774   3.367   9.599 -0.7441  1.4273 -0.3359
   62SAPC   C29 4904   0.710   3.366   9.397 -0.8342  0.4656 -0.3754
   62SAPC   H9R 4905   0.769   3.456   9.378 -0.6621  0.3186 -0.5353
   62SAPC  C210 4906   0.654   3.313   9.268  0.0440  0.5239  0.0811
   62SAPC  H10R 4907   0.624   3.403   9.209  2.2782  0.3755 -1.4213
   62SAPC  H10S 4908   0.568   3.245   9.283  0.0956  0.1171 -1.2921
   62SAPC  C211 4909   0.764   3.234   9.207  0.2262  0.5821  0.0553
   62SAPC  H11R 4910   0.782   3.141   9.264 -0.1213  0.6901  0.3462
   62SAPC  C212 4911   0.821   3.253   9.087 -0.7738 -0.2917 -0.1056
   62SAPC  H12R 4912   0.895   3.181   9.050 -0.4711  1.0191 -2.2532
   62SAPC  C213 4913   0.810   3.376   9.005  0.3437 -0.7186  0.6491
   62SAPC  H13R 4914   0.747   3.455   9.051  0.8067  0.3028 -0.4338
   62SAPC  H13S 4915   0.760   3.363   8.907  0.1099  0.1858  0.6376
   62SAPC  C214 4916   0.946   3.444   8.986  0.0586 -0.1640  0.1313
   62SAPC  H14R 4917   1.014   3.460   9.071 -0.8447  0.0092  0.8330
   62SAPC  C215 4918   0.997   3.487   8.866 -0.1939  0.1873 -0.3409
   62SAPC  H15R 4919   1.096   3.531   8.880  1.2168 -2.7028 -0.3798
   62SAPC  C216 4920   0.929   3.486   8.732  0.2241  0.3111  0.0926
   62SAPC  H16R 4921   0.985   3.552   8.663  1.6415  0.1535  1.0518
   62SAPC  H16S 4922   0.830   3.536   8.744  0.8227  1.6631 -0.4138
   62SAPC  C217 4923   0.908   3.340   8.672  0.4137  0.0945  0.1721
   62SAPC  H17R 4924   0.863   3.275   8.749 -1.1404  1.3231  0.3664
   62SAPC  H17S 4925   1.002   3.307   8.622  1.7473  2.3311  1.0347
   62SAPC  C218 4926   0.793   3.345   8.567 -0.2681  0.1742 -0.2178
   62SAPC  H18R 4927   0.814   3.434   8.503  1.3766 -1.3378 -1.9081
   62SAPC  H18S 4928   0.692   3.354   8.613  0.3041 -0.6995  1.2316
   62SAPC  C219 4929   0.775   3.215   8.478 -0.3063 -0.1084  0.1697
   62SAPC  H19R 4930   0.780   3.130   8.549  0.2189  0.2397  0.5576
   62SAPC  H19S 4931   0.866   3.198   8.416 -0.2553  0.4746  0.0781
   62SAPC  C220 4932   0.648   3.219   8.394 -0.1664  0.1807  0.0657
   62SAPC  H20R 4933   0.660   3.138   8.319  3.5272 -0.9414  1.6305
   62SAPC  H20S 4934   0.639   3.313   8.336 -0.1798  0.3937  0.4113
   62SAPC  H20T 4935   0.554   3.207   8.452  0.1166 -2.2607  0.1387
   62SAPC   C33 4936   0.986   3.648   9.850  0.2629  0.2834  0.0368
   62SAPC   H3X 4937   0.876   3.632   9.846  0.5257 -1.5016 -2.7419
   62SAPC   H3Y 4938   1.029   3.545   9.846 -1.1327 -0.4346  1.8888
   62SAPC   C34 4939   1.038   3.729   9.732 -0.6571 -0.1326 -0.0783
   62SAPC   H4X 4940   1.144   3.698   9.719 -0.6103  0.3912 -1.1205
   62SAPC   H4Y 4941   1.047   3.835   9.763  2.4839 -0.0646 -0.8828
   62SAPC   C35 4942   0.956   3.711   9.605  0.1619  0.2606  0.5854
   62SAPC   H5X 4943   0.871   3.781   9.591 -1.2036 -1.2875  0.8683
   62SAPC   H5Y 4944   0.905   3.612   9.604  0.4653  0.1046  0.6058
   62SAPC   C36 4945   1.045   3.723   9.473 -0.1064 -0.1549 -0.3049
   62SAPC   H6X 4946   1.112   3.635   9.471 -3.0514 -2.5654  0.0997
   62SAPC   H6Y 4947   1.099   3.820   9.476 -1.0488  0.3717  0.0794
   62SAPC   C37 4948   0.962   3.711   9.346 -0.0010  0.3272  0.2454
   62SAPC   H7X 4949   0.861   3.758   9.348  0.1976  0.8174 -0.7317
   62SAPC   H7Y 4950   0.960   3.600   9.337  0.3498  0.4161 -1.2398
   62SAPC   C38 4951   1.039   3.776   9.235 -0.6647  0.0719 -0.1651
   62SAPC   H8X 4952   1.126   3.713   9.206 -0.5153 -0.1645  0.7699
   62SAPC   H8Y 4953   1.074   3.877   9.266  1.3920 -0.7663  0.4478
   62SAPC   C39 4954   0.956   3.795   9.111  0.2556 -0.2757  0.6567
   62SAPC   H9X 4955   0.859   3.846   9.129 -0.4005 -1.7684  1.5606
   62SAPC   H9Y 4956   0.915   3.698   9.076 -2.1120  0.4745  1.1539
   62SAPC  C310 4957   1.042   3.874   9.014  0.6401 -0.5889 -0.8314
   62SAPC  H10X 4958   1.144   3.831   9.001  1.3179  0.4780  0.7178
   62SAPC  H10Y 4959   1.054   3.981   9.042 -1.2047 -0.1704 -1.5149
   62SAPC  C311 4960   0.993   3.866   8.874  0.4721  0.9320 -0.0056
   62SAPC  H11X 4961   0.898   3.924   8.872  0.1645  0.4489  0.3017
   62SAPC  H11Y 4962   0.973   3.760   8.848  0.2621  0.9299  0.1657
   62SAPC  C312 4963   1.094   3.924   8.769  0.7650  0.0977  0.7897
   62SAPC  H12X 4964   1.068   3.903   8.663 -0.3804 -1.7479  1.3905
   62SAPC  H12Y 4965   1.195   3.877   8.769  0.8547  0.2730 -0.1600
   62SAPC  C313 4966   1.117   4.080   8.782 -0.2260 -0.3280 -0.3638
   62SAPC  H13X 4967   1.149   4.109   8.885  1.9177  2.3942 -1.6483
   62SAPC  H13Y 4968   1.025   4.141   8.767  0.5626  1.7387  2.2659
   62SAPC  C314 4969   1.227   4.138   8.697  0.6664 -0.7760  0.8602
   62SAPC  H14X 4970   1.186   4.142   8.594  0.2054 -2.2563  0.9610
   62SAPC  H14Y 4971   1.313   4.068   8.688 -0.1378 -1.5343 -2.0269
   62SAPC  C315 4972   1.284   4.284   8.731  0.2734 -0.3594  0.0633
   62SAPC  H15X 4973   1.322   4.271   8.835  2.6522 -2.3852 -0.9656
   62SAPC  H15Y 4974   1.194   4.347   8.711  0.8861 -0.2385 -2.6667
   62SAPC  C316 4975   1.386   4.330   8.629 -0.2187 -0.0182  0.4152
   62SAPC  H16X 4976   1.452   4.242   8.609 -0.3354  0.4237 -2.2590
   62SAPC  H16Y 4977   1.446   4.417   8.664 -2.0138  1.7421 -0.6681
   62SAPC  C317 4978   1.327   4.386   8.503 -0.4996  0.2977 -0.0400
   62SAPC  H17X 4979   1.260   4.472   8.525 -0.0635  1.3492 -2.5276
   62SAPC  H17Y 4980   1.258   4.310   8.461  2.4142 -2.7341  0.2298
   62SAPC  C318 4981   1.435   4.426   8.408  0.6263  0.4698 -0.6151
   62SAPC  H18X 4982   1.486   4.516   8.448  0.6647  0.9038 -1.6043
   62SAPC  H18Y 4983   1.399   4.449   8.305 -2.2451 -0.3358  0.1140
   62SAPC  H18Z 4984   1.510   4.345   8.405 -1.0089 -1.1247 -0.5571
   63SAPC     N 4985   0.031   2.971   5.903 -0.3918 -0.1699  0.1589
   63SAPC   C12 4986   0.136   2.969   6.010  0.3297 -0.5226  0.1496
   63SAPC  H12A 4987   0.183   3.066   6.011 -0.3791 -0.1694 -0.3372
   63SAPC  H12B 4988   0.205   2.887   5.994  1.1941  0.0272  1.0216
   63SAPC   C13 4989  -0.090   3.045   5.937  0.1990 -0.5954 -0.1712
   63SAPC  H13A 4990  -0.158   3.033   5.855 -0.3740  1.4518 -0.0648
   63SAPC  H13B 4991  -0.132   3.010   6.030  1.3208  1.4039  1.1708
   63SAPC  H13C 4992  -0.076   3.151   5.953  0.0730 -0.4157 -1.1946
   63SAPC   C14 4993   0.103   3.039   5.779 -0.4425 -0.7430  0.0071
   63SAPC  H14A 4994   0.132   3.141   5.800 -2.8237 -0.0569  0.2945
   63SAPC  H14B 4995   0.191   2.982   5.754 -0.7366 -1.7375  1.1580
   63SAPC  H14C 4996   0.036   3.052   5.694  1.4947 -0.3181 -1.5266
   63SAPC   C15 4997  -0.014   2.838   5.871 -0.2974  0.2705 -0.0969
   63SAPC  H15A 4998   0.056   2.791   5.804  2.7013  1.8702  1.7187
   63SAPC  H15B 4999  -0.043   2.773   5.953  0.4716 -0.1884 -0.1794
   63SAPC  H15C 5000  -0.103   2.832   5.810  0.4863  1.9243 -1.4636
   63SAPC   C11 5001   0.076   2.943   6.154  0.4628  0.2374  0.3126
   63SAPC  H11A 5002   0.006   3.020   6.194  0.3053 -0.0502  0.5916
   63SAPC  H11B 5003   0.166   2.949   6.220 -0.2975  0.2863  1.3625
   63SAPC     P 5004   0.094   2.673   6.186 -0.4085  0.0831  0.4148
   63SAPC   O13 5005   0.038   2.568   6.094  0.5750 -0.7287 -0.3923
   63SAPC   O14 5006   0.244   2.688   6.181  0.1483 -0.5133 -0.1321
   63SAPC   O12 5007   0.024   2.814   6.165  1.0306 -0.2642 -0.2432
   63SAPC   O11 5008   0.052   2.633   6.328 -0.1843  0.6459  0.2619
   63SAPC    C1 5009  -0.014   2.722   6.424 -0.5470 -0.4214  0.0814
   63SAPC    HA 5010  -0.094   2.780   6.373  1.1097  0.3737 -1.7670
   63SAPC    HB 5011  -0.047   2.653   6.505  1.0976  1.3906  2.3999
   63SAPC    C2 5012   0.082   2.823   6.493  1.3743 -0.6248 -1.2905
   63SAPC    HS 5013   0.132   2.892   6.421 -0.7616 -1.0585 -3.3328
   63SAPC   O21 5014   0.192   2.746   6.560  0.6537 -0.0132  0.1087
   63SAPC   C21 5015   0.296   2.816   6.602  0.9213 -0.9445 -0.6759
   63SAPC   O22 5016   0.302   2.938   6.588 -0.7221  0.0427 -0.1140
   63SAPC   C22 5017   0.400   2.725   6.671  0.0388  0.5147 -0.2205
   63SAPC   H2R 5018   0.342   2.637   6.704  2.0806 -0.1318  1.9310
   63SAPC   H2S 5019   0.483   2.693   6.604  1.0699  1.3713  0.5974
   63SAPC    C3 5020  -0.001   2.917   6.590  0.2705 -0.6549 -0.2791
   63SAPC    HX 5021  -0.087   2.958   6.533  0.0834 -1.7276 -0.7926
   63SAPC    HY 5022   0.061   3.000   6.630 -0.2227  0.8217 -2.4590
   63SAPC   O31 5023  -0.053   2.836   6.695  0.2180 -0.1102  0.0827
   63SAPC   C31 5024  -0.136   2.910   6.769 -0.1072  0.2422 -0.4453
   63SAPC   O32 5025  -0.191   3.010   6.734 -0.2283  0.2220  0.1359
   63SAPC   C32 5026  -0.147   2.851   6.911  0.3526  0.1573  0.2874
   63SAPC   H2X 5027  -0.138   2.741   6.905  0.9538  0.1540  1.0714
   63SAPC   H2Y 5028  -0.255   2.867   6.935 -0.5227 -1.6207 -2.0963
   63SAPC   C23 5029   0.459   2.787   6.797 -0.0859 -0.2209 -0.4832
   63SAPC   H3R 5030   0.506   2.883   6.767  1.5998 -0.0770  2.2865
   63SAPC   H3S 5031   0.548   2.732   6.835  0.4239  0.5699 -0.5200
   63SAPC   C24 5032   0.366   2.822   6.910 -0.3123 -0.6825 -1.0163
   63SAPC   H4R 5033   0.295   2.896   6.870  0.3290  2.0158  2.3361
   63SAPC   H4S 5034   0.433   2.866   6.987  1.5380  1.9903 -3.9256
   63SAPC   C25 5035   0.288   2.703   6.958 -0.7175 -0.7455  0.4175
   63SAPC   H5R 5036   0.191   2.678   6.912 -0.6042 -0.3230 -0.0671
   63SAPC   C26 5037   0.328   2.628   7.064  0.0012 -0.3952 -0.7408
   63SAPC   H6R 5038   0.265   2.546   7.103 -0.0659 -0.1837 -0.4009
   63SAPC   C27 5039   0.447   2.659   7.151  0.4454 -0.0561  0.2625
   63SAPC   H7R 5040   0.533   2.686   7.086  1.6826 -1.2170  1.3738
   63SAPC   H7S 5041   0.468   2.560   7.196  1.2101  1.5848  3.8360
   63SAPC   C28 5042   0.411   2.758   7.256  0.3226  0.3677  0.2043
   63SAPC   H8R 5043   0.344   2.841   7.226 -0.7294 -0.2183  0.8721
   63SAPC   C29 5044   0.464   2.756   7.376 -0.1905 -0.3505 -0.1325
   63SAPC   H9R 5045   0.444   2.847   7.435  3.1641  0.6756 -0.3336
   63SAPC  C210 5046   0.565   2.658   7.423 -0.1752  0.6467  0.2453
   63SAPC  H10R 5047   0.633   2.625   7.342 -0.5665  0.3661  0.0259
   63SAPC  H10S 5048   0.499   2.572   7.449 -1.1849  0.2642 -3.1086
   63SAPC  C211 5049   0.661   2.717   7.523 -0.1836 -0.0287 -0.1901
   63SAPC  H11R 5050   0.724   2.797   7.481 -0.0191  0.3496  0.7610
   63SAPC  C212 5051   0.690   2.673   7.645 -0.0882  0.2739 -0.1255
   63SAPC  H12R 5052   0.763   2.732   7.704 -0.7395  0.8404  0.1266
   63SAPC  C213 5053   0.639   2.552   7.718  0.0194 -1.1217 -0.3897
   63SAPC  H13R 5054   0.718   2.501   7.777 -1.2158 -1.9340  0.5977
   63SAPC  H13S 5055   0.623   2.480   7.634 -1.7681 -2.1884  0.8091
   63SAPC  C214 5056   0.507   2.581   7.785 -0.9192 -0.6508 -0.2798
   63SAPC  H14R 5057   0.444   2.644   7.720 -0.3398 -0.0728 -0.2933
   63SAPC  C215 5058   0.465   2.548   7.917  0.3630  0.0964 -0.1115
   63SAPC  H15R 5059   0.357   2.561   7.937  0.3354 -2.4496  2.0910
   63SAPC  C216 5060   0.538   2.459   8.016 -0.2006  0.2350 -0.7351
   63SAPC  H16R 5061   0.547   2.508   8.115  0.3485  0.8048 -1.0590
   63SAPC  H16S 5062   0.636   2.429   7.974 -0.3722 -0.0922 -0.9037
   63SAPC  C217 5063   0.465   2.326   8.038  0.0498  0.0426 -1.0034
   63SAPC  H17R 5064   0.476   2.258   7.951 -0.0808 -1.7317  0.2907
   63SAPC  H17S 5065   0.356   2.347   8.052 -0.0757  0.1861 -2.1224
   63SAPC  C218 5066   0.517   2.237   8.155 -0.4455  0.6908  0.3635
   63SAPC  H18R 5067   0.508   2.299   8.247 -1.5052 -0.1205  0.8328
   63SAPC  H18S 5068   0.623   2.205   8.145 -0.7273 -0.1448 -0.0165
   63SAPC  C219 5069   0.435   2.112   8.170  1.2208  0.1184 -0.4772
   63SAPC  H19R 5070   0.430   2.053   8.076 -1.7307 -2.6569  1.2277
   63SAPC  H19S 5071   0.328   2.143   8.174  0.8423 -1.1978  0.3789
   63SAPC  C220 5072   0.466   2.019   8.287 -0.5932 -0.2069 -0.3206
   63SAPC  H20R 5073   0.460   2.063   8.389 -0.8211 -0.0869 -0.3842
   63SAPC  H20S 5074   0.561   1.970   8.258 -1.1675 -0.7313 -1.3206
   63SAPC  H20T 5075   0.389   1.940   8.288  0.3089 -1.2581  3.4000
   63SAPC   C33 5076  -0.049   2.917   7.016 -0.3501 -0.1871  0.0486
   63SAPC   H3X 5077  -0.076   3.025   7.011 -0.8750 -0.3797 -3.1963
   63SAPC   H3Y 5078   0.051   2.903   6.972 -0.2003  0.7894  0.0663
   63SAPC   C34 5079  -0.054   2.836   7.146  0.9610 -0.7605 -0.6285
   63SAPC   H4X 5080  -0.026   2.729   7.142 -0.8753 -1.2919  0.0233
   63SAPC   H4Y 5081  -0.155   2.845   7.191  0.0473 -1.9364 -2.3535
   63SAPC   C35 5082   0.044   2.899   7.244 -0.4871  0.0455 -0.5548
   63SAPC   H5X 5083   0.018   3.006   7.255  0.1228  0.0532  1.2610
   63SAPC   H5Y 5084   0.145   2.886   7.200 -0.4784 -0.8279 -0.3005
   63SAPC   C36 5085   0.020   2.832   7.383 -0.0086  0.3381  0.9069
   63SAPC   H6X 5086   0.019   2.721   7.374  0.6798  0.2608  1.6454
   63SAPC   H6Y 5087  -0.082   2.861   7.417 -0.4994  2.1355 -1.7721
   63SAPC   C37 5088   0.119   2.881   7.484  0.2118  0.4395 -0.3639
   63SAPC   H7X 5089   0.078   2.983   7.498 -2.6417 -0.2158 -2.8441
   63SAPC   H7Y 5090   0.219   2.883   7.436 -1.3722 -0.0902 -4.0031
   63SAPC   C38 5091   0.097   2.805   7.624  0.8224 -0.4892  0.0986
   63SAPC   H8X 5092  -0.008   2.826   7.654  0.0105 -2.9123 -0.8330
   63SAPC   H8Y 5093   0.155   2.845   7.709 -0.1218  1.7604 -0.2442
   63SAPC   C39 5094   0.117   2.653   7.611  0.0813 -0.9820 -1.0734
   63SAPC   H9X 5095   0.220   2.644   7.570  0.1648  0.1524 -1.1311
   63SAPC   H9Y 5096   0.042   2.602   7.547  1.4984 -1.2634 -2.5789
   63SAPC  C310 5097   0.121   2.588   7.753  0.4214 -0.1632  0.5139
   63SAPC  H10X 5098   0.182   2.648   7.823  0.4633  0.1456  0.2172
   63SAPC  H10Y 5099   0.166   2.486   7.750  0.7061 -0.1012  1.8867
   63SAPC  C311 5100  -0.024   2.570   7.815 -0.5783  0.2088 -0.2962
   63SAPC  H11X 5101  -0.099   2.543   7.738  1.7556  1.4271 -3.1498
   63SAPC  H11Y 5102  -0.056   2.670   7.853 -1.8310  0.1975 -1.2689
   63SAPC  C312 5103  -0.014   2.480   7.936  0.6893  0.2247 -0.2011
   63SAPC  H12X 5104   0.047   2.525   8.017 -0.1809  0.2675  0.4433
   63SAPC  H12Y 5105   0.029   2.380   7.914  2.1821  0.7140  0.3591
   63SAPC  C313 5106  -0.150   2.465   8.004  0.0686 -0.0447  0.2798
   63SAPC  H13X 5107  -0.213   2.390   7.951  1.5417 -0.3319 -1.1348
   63SAPC  H13Y 5108  -0.210   2.559   8.004 -1.6393 -1.0934 -0.1892
   63SAPC  C314 5109  -0.136   2.417   8.146 -0.6107 -0.2800 -0.0351
   63SAPC  H14X 5110  -0.066   2.482   8.202  1.2952 -2.0243 -0.2681
   63SAPC  H14Y 5111  -0.086   2.319   8.132  0.5897  0.1587  0.9618
   63SAPC  C315 5112  -0.272   2.389   8.213 -0.2576  0.0953 -0.1765
   63SAPC  H15X 5113  -0.331   2.311   8.161 -0.4927  0.5679 -0.6305
   63SAPC  H15Y 5114  -0.337   2.479   8.220 -2.4967 -1.4812  0.3140
   63SAPC  C316 5115  -0.261   2.337   8.359 -0.1205  0.0968 -0.5852
   63SAPC  H16X 5116  -0.202   2.414   8.413  0.5980  0.1085 -1.3565
   63SAPC  H16Y 5117  -0.195   2.249   8.345 -0.2060  0.3179 -2.6660
   63SAPC  C317 5118  -0.402   2.305   8.408  0.2435  0.0171  0.3859
   63SAPC  H17X 5119  -0.443   2.234   8.333  0.2640  0.0812  0.3130
   63SAPC  H17Y 5120  -0.458   2.401   8.407 -0.4209 -0.3647 -0.1524
   63SAPC  C318 5121  -0.421   2.242   8.549  0.1737  0.3172 -0.5908
   63SAPC  H18X 5122  -0.320   2.230   8.593 -0.8054  0.0090  1.7070
   63SAPC  H18Y 5123  -0.472   2.144   8.533  0.8055 -0.0452 -0.4397
   63SAPC  H18Z 5124  -0.487   2.313   8.602  0.9645  0.1409  0.6731
   64SAPC     N 5125   1.700   2.293   5.772 -0.1073 -0.3762 -0.9823
   64SAPC   C12 5126   1.660   2.349   5.909 -0.6833  0.2474 -0.0468
   64SAPC  H12A 5127   1.714   2.442   5.916  0.2364 -0.3509  1.1285
   64SAPC  H12B 5128   1.693   2.283   5.988 -0.5711  1.8398  1.2758
   64SAPC   C13 5129   1.633   2.161   5.757  0.2764  0.1075  0.5242
   64SAPC  H13A 5130   1.672   2.076   5.811  3.4799  1.1955  0.1574
   64SAPC  H13B 5131   1.529   2.176   5.782  0.6549  1.7455  1.2161
   64SAPC  H13C 5132   1.645   2.128   5.654  1.6205 -0.5625  0.8732
   64SAPC   C14 5133   1.645   2.386   5.673 -0.6037 -0.5777  0.4705
   64SAPC  H14A 5134   1.550   2.420   5.710 -0.4197 -0.3445  0.7309
   64SAPC  H14B 5135   1.708   2.474   5.669 -2.1962  0.5787 -0.2196
   64SAPC  H14C 5136   1.634   2.340   5.576  0.8334 -1.7927  0.8333
   64SAPC   C15 5137   1.847   2.282   5.764 -0.3627 -0.3952 -0.1915
   64SAPC  H15A 5138   1.880   2.216   5.843  0.9944  1.0634  0.5215
   64SAPC  H15B 5139   1.889   2.244   5.672  1.4847  0.0979  0.3893
   64SAPC  H15C 5140   1.890   2.381   5.774  1.1188 -0.8851 -1.3015
   64SAPC   C11 5141   1.509   2.374   5.931 -0.6588 -0.2507  0.3475
   64SAPC  H11A 5142   1.505   2.402   6.038  1.0073 -0.4257  0.4714
   64SAPC  H11B 5143   1.446   2.285   5.908 -0.2185 -0.6603  0.7148
   64SAPC     P 5144   1.320   2.522   5.850 -0.0710  0.2233  0.0180
   64SAPC   O13 5145   1.299   2.670   5.850 -0.1713 -0.8095  0.1096
   64SAPC   O14 5146   1.267   2.447   5.742  0.0949  0.9028  0.1884
   64SAPC   O12 5147   1.473   2.495   5.856 -0.3406 -0.0649 -0.2782
   64SAPC   O11 5148   1.259   2.476   5.991 -0.0133  0.8195 -0.1967
   64SAPC    C1 5149   1.184   2.569   6.077  0.4724  0.0922 -0.1122
   64SAPC    HA 5150   1.115   2.632   6.017 -0.9490 -0.2702  1.0786
   64SAPC    HB 5151   1.113   2.507   6.136 -0.5704  0.6423 -0.7642
   64SAPC    C2 5152   1.274   2.654   6.176 -0.1670  0.1721 -0.3008
   64SAPC    HS 5153   1.358   2.706   6.124  0.3654  1.1514  1.4459
   64SAPC   O21 5154   1.325   2.568   6.279  0.0964  0.2035 -0.0304
   64SAPC   C21 5155   1.450   2.585   6.326  0.4687  0.0929  0.7010
   64SAPC   O22 5156   1.526   2.664   6.272  0.1017  0.0907  0.2409
   64SAPC   C22 5157   1.479   2.508   6.460 -0.0483 -0.0195 -0.0045
   64SAPC   H2R 5158   1.521   2.408   6.437  1.6092  0.7871 -0.6510
   64SAPC   H2S 5159   1.558   2.570   6.508 -1.4537  0.5396  1.7264
   64SAPC    C3 5160   1.188   2.764   6.239  0.5500 -0.8114  0.5293
   64SAPC    HX 5161   1.117   2.705   6.301  0.0905 -0.9997 -0.1559
   64SAPC    HY 5162   1.136   2.817   6.156  0.4994 -0.6468  0.6654
   64SAPC   O31 5163   1.262   2.855   6.323 -0.2755  0.2163 -0.0664
   64SAPC   C31 5164   1.182   2.919   6.415 -0.3066 -0.5362 -0.2069
   64SAPC   O32 5165   1.067   2.898   6.440  0.3623 -0.1320  0.1455
   64SAPC   C32 5166   1.274   3.016   6.489 -0.2868  0.5090 -0.4361
   64SAPC   H2X 5167   1.315   3.091   6.418  1.6744  2.2877  2.3621
   64SAPC   H2Y 5168   1.363   2.957   6.520 -0.0660  0.1651 -1.6886
   64SAPC   C23 5169   1.356   2.502   6.553  0.1512 -0.0826  0.5834
   64SAPC   H3R 5170   1.370   2.429   6.636  1.4467  1.5455  1.8710
   64SAPC   H3S 5171   1.273   2.469   6.486 -0.2358  2.7369 -0.4671
   64SAPC   C24 5172   1.315   2.639   6.623 -0.1952  0.5836  0.0907
   64SAPC   H4R 5173   1.300   2.716   6.544  0.6191  0.4884 -0.1682
   64SAPC   H4S 5174   1.410   2.661   6.675  0.5262 -0.0497 -0.9253
   64SAPC   C25 5175   1.203   2.644   6.728  0.2990  1.1195 -0.4647
   64SAPC   H5R 5176   1.105   2.664   6.681  0.4353  1.1252 -0.7505
   64SAPC   C26 5177   1.215   2.666   6.858  0.7759 -0.1071  0.0289
   64SAPC   H6R 5178   1.122   2.650   6.915  0.3306 -1.5400 -1.0594
   64SAPC   C27 5179   1.343   2.671   6.944 -0.1315  0.4261 -0.1870
   64SAPC   H7R 5180   1.434   2.641   6.889 -1.2923 -0.6588 -1.5996
   64SAPC   H7S 5181   1.326   2.609   7.034  0.0504  0.3648 -0.1955
   64SAPC   C28 5182   1.362   2.809   6.999  0.1775  0.2520 -0.5652
   64SAPC   H8R 5183   1.353   2.889   6.925 -0.6797  0.9255  0.2443
   64SAPC   C29 5184   1.409   2.841   7.121  0.2736  0.0827  0.3659
   64SAPC   H9R 5185   1.402   2.947   7.148 -0.9456 -0.2194  1.3775
   64SAPC  C210 5186   1.467   2.763   7.228 -0.2588  0.7068 -0.2146
   64SAPC  H10R 5187   1.573   2.729   7.219 -0.5904 -1.6275  2.9977
   64SAPC  H10S 5188   1.406   2.671   7.233 -0.0952  0.5618 -0.7825
   64SAPC  C211 5189   1.452   2.837   7.361  0.1779  0.1186  0.1636
   64SAPC  H11R 5190   1.347   2.865   7.382 -0.5825 -2.3225 -0.0242
   64SAPC  C212 5191   1.549   2.881   7.443 -0.8427 -0.2887 -0.9995
   64SAPC  H12R 5192   1.515   2.919   7.540  0.0589  1.2564 -1.2450
   64SAPC  C213 5193   1.698   2.861   7.429 -0.3143  0.0390  0.5488
   64SAPC  H13R 5194   1.732   2.806   7.339 -1.2117  0.3540  0.0047
   64SAPC  H13S 5195   1.726   2.788   7.508  1.2735  1.1234  1.0381
   64SAPC  C214 5196   1.779   2.987   7.439 -0.0237 -0.7384  0.4754
   64SAPC  H14R 5197   1.753   3.066   7.368  0.1763  0.6529  1.8839
   64SAPC  C215 5198   1.868   3.007   7.534  0.3356 -0.1216  0.1077
   64SAPC  H15R 5199   1.922   3.103   7.525  0.7089 -0.4985 -2.1092
   64SAPC  C216 5200   1.914   2.929   7.652 -0.8286 -1.0483 -0.4666
   64SAPC  H16R 5201   2.024   2.913   7.651 -0.4689  1.0163 -0.0757
   64SAPC  H16S 5202   1.874   2.826   7.651 -1.6509 -0.7713  0.9804
   64SAPC  C217 5203   1.871   3.005   7.779  0.2101 -0.9442  0.4438
   64SAPC  H17R 5204   1.762   3.004   7.803  0.1514  2.5922  0.9112
   64SAPC  H17S 5205   1.899   3.112   7.764  1.8777 -1.4296 -0.0980
   64SAPC  C218 5206   1.929   2.955   7.912 -0.5489  0.4379 -0.5398
   64SAPC  H18R 5207   2.040   2.954   7.907 -0.3631  0.1375  2.1069
   64SAPC  H18S 5208   1.887   2.852   7.917  0.7024 -0.0976 -0.5742
   64SAPC  C219 5209   1.888   3.039   8.027 -0.5896 -0.2166  0.7625
   64SAPC  H19R 5210   1.778   3.027   8.033 -0.5971 -1.2382 -0.9226
   64SAPC  H19S 5211   1.900   3.147   8.003 -1.0870  0.0906  1.7950
   64SAPC  C220 5212   1.975   3.007   8.144 -0.0016 -0.4584 -0.3126
   64SAPC  H20R 5213   1.938   3.038   8.244 -0.1902 -0.1923 -0.4624
   64SAPC  H20S 5214   2.083   3.030   8.131 -0.1529 -0.1043 -1.0024
   64SAPC  H20T 5215   1.964   2.897   8.142 -1.0934 -0.3602 -0.9859
   64SAPC   C33 5216   1.215   3.064   6.626  0.0408  0.5381  0.5726
   64SAPC   H3X 5217   1.169   2.972   6.669 -1.0486 -0.6332 -2.8264
   64SAPC   H3Y 5218   1.132   3.136   6.611 -0.6001 -0.1908  0.5730
   64SAPC   C34 5219   1.316   3.110   6.727 -0.2383 -0.0521 -1.0445
   64SAPC   H4X 5220   1.359   3.202   6.681 -1.3469  0.7304 -0.5401
   64SAPC   H4Y 5221   1.391   3.027   6.732 -0.5855 -0.2894  1.5879
   64SAPC   C35 5222   1.262   3.145   6.873  0.1815  0.0852 -0.0350
   64SAPC   H5X 5223   1.210   3.060   6.923 -1.1567  0.0822 -1.3695
   64SAPC   H5Y 5224   1.185   3.225   6.866  0.3597  0.1909 -0.8411
   64SAPC   C36 5225   1.378   3.182   6.961  0.1012 -0.3764 -0.4328
   64SAPC   H6X 5226   1.435   3.271   6.925  0.5796 -0.9205 -1.0260
   64SAPC   H6Y 5227   1.453   3.100   6.959  2.1076  1.3776 -1.3455
   64SAPC   C37 5228   1.334   3.205   7.106 -0.6500  0.2607  0.7031
   64SAPC   H7X 5229   1.283   3.126   7.166 -1.2308  0.9986  1.2098
   64SAPC   H7Y 5230   1.265   3.293   7.106  0.2992  1.2703 -4.0067
   64SAPC   C38 5231   1.455   3.246   7.190  0.0687  0.1454  0.4403
   64SAPC   H8X 5232   1.509   3.321   7.128  2.2694 -1.1947  0.6346
   64SAPC   H8Y 5233   1.532   3.167   7.204 -0.2705 -0.5651 -1.4008
   64SAPC   C39 5234   1.415   3.300   7.328 -0.9274  0.9075 -0.8810
   64SAPC   H9X 5235   1.350   3.222   7.372 -1.0750  0.4079 -1.9421
   64SAPC   H9Y 5236   1.354   3.392   7.315 -0.8868  0.8305 -1.6702
   64SAPC  C310 5237   1.530   3.324   7.428  0.0695 -0.3704 -0.3744
   64SAPC  H10X 5238   1.573   3.426   7.416  1.2684 -1.0031 -1.7474
   64SAPC  H10Y 5239   1.609   3.250   7.403  1.3969  1.0527 -0.5314
   64SAPC  C311 5240   1.488   3.318   7.577 -0.0581 -0.4374 -0.7690
   64SAPC  H11X 5241   1.461   3.212   7.595 -1.3515  0.3410  2.7986
   64SAPC  H11Y 5242   1.402   3.381   7.610  1.8106  1.7034  0.2581
   64SAPC  C312 5243   1.610   3.364   7.671  0.3000  0.0888 -0.7167
   64SAPC  H12X 5244   1.637   3.469   7.648  1.5378 -0.5144 -2.1552
   64SAPC  H12Y 5245   1.697   3.300   7.647 -0.7724 -1.9773  0.5778
   64SAPC  C313 5246   1.572   3.356   7.819  0.9536  0.1355  0.1750
   64SAPC  H13X 5247   1.498   3.435   7.844 -1.1323 -1.8137  0.4708
   64SAPC  H13Y 5248   1.659   3.371   7.886 -0.9009  2.5939  2.2682
   64SAPC  C314 5249   1.501   3.226   7.861  0.3553 -0.1970  0.0646
   64SAPC  H14X 5250   1.575   3.144   7.852  1.3167  0.8562 -3.0367
   64SAPC  H14Y 5251   1.418   3.199   7.792  0.5979 -0.8267  0.0171
   64SAPC  C315 5252   1.451   3.215   8.004  0.6821 -0.0346  0.1715
   64SAPC  H15X 5253   1.533   3.257   8.066  0.4225 -0.4303  0.7950
   64SAPC  H15Y 5254   1.432   3.110   8.034  2.3923 -0.5367 -0.3879
   64SAPC  C316 5255   1.326   3.298   8.028 -0.6142  0.6930  0.0920
   64SAPC  H16X 5256   1.247   3.283   7.951 -0.8831 -0.1235  0.5192
   64SAPC  H16Y 5257   1.365   3.402   8.022 -0.8371  0.7225 -1.1861
   64SAPC  C317 5258   1.277   3.283   8.169  0.2679  0.0885  0.6969
   64SAPC  H17X 5259   1.363   3.281   8.239  0.3682 -0.1845  0.5659
   64SAPC  H17Y 5260   1.236   3.180   8.176  0.5508 -0.0064  1.0198
   64SAPC  C318 5261   1.186   3.385   8.235 -0.0212 -0.3839  0.8575
   64SAPC  H18X 5262   1.165   3.360   8.341 -0.9916  2.7940  1.5185
   64SAPC  H18Y 5263   1.089   3.387   8.182  0.2350 -1.6204  0.3021
   64SAPC  H18Z 5264   1.230   3.487   8.234 -0.0974 -0.3526  0.4061
   65SAPC     N 5265   3.957   5.568   6.038  0.0859 -0.9245 -0.0810
   65SAPC   C12 5266   3.857   5.656   6.109  0.7129  0.2988  0.1756
   65SAPC  H12A 5267   3.812   5.720   6.034  1.9002  0.2012 -0.6588
   65SAPC  H12B 5268   3.913   5.725   6.170 -0.3409  3.7103 -2.3592
   65SAPC   C13 5269   4.066   5.648   5.974  0.4401 -0.4699  0.2314
   65SAPC  H13A 5270   4.112   5.722   6.037  0.7050 -0.2545 -0.2073
   65SAPC  H13B 5271   4.152   5.587   5.949 -0.1108 -0.5812 -1.5848
   65SAPC  H13C 5272   4.027   5.697   5.886 -1.9433  0.2124  1.5734
   65SAPC   C14 5273   4.014   5.470   6.147 -0.1524 -0.7938 -0.3955
   65SAPC  H14A 5274   4.040   5.540   6.225  1.1393  0.6145 -1.9981
   65SAPC  H14B 5275   3.944   5.393   6.177  0.1830 -1.0962 -0.3772
   65SAPC  H14C 5276   4.093   5.415   6.099 -1.1293 -2.0291 -0.6403
   65SAPC   C15 5277   3.895   5.480   5.929  0.4949  0.2581  0.4631
   65SAPC  H15A 5278   3.828   5.405   5.969  0.2827 -0.0651 -0.4783
   65SAPC  H15B 5279   3.836   5.537   5.858 -0.6225  1.0855  2.0025
   65SAPC  H15C 5280   3.962   5.423   5.867 -1.9882  0.3470 -2.5913
   65SAPC   C11 5281   3.742   5.591   6.197 -0.0561  0.0200  0.4786
   65SAPC  H11A 5282   3.692   5.667   6.261 -0.7809 -0.4479  0.4712
   65SAPC  H11B 5283   3.791   5.518   6.265 -0.3263  1.9139  2.8339
   65SAPC     P 5284   3.598   5.383   6.129 -0.2187 -0.3242 -0.0813
   65SAPC   O13 5285   3.476   5.356   6.048  0.2293 -0.2387 -0.3795
   65SAPC   O14 5286   3.715   5.297   6.091  0.1648 -0.0918 -0.3677
   65SAPC   O12 5287   3.633   5.534   6.117 -0.2423  0.1214 -0.3160
   65SAPC   O11 5288   3.569   5.359   6.290 -0.5900 -0.5074  0.7342
   65SAPC    C1 5289   3.480   5.449   6.357  0.1504  0.5124 -0.0155
   65SAPC    HA 5290   3.448   5.531   6.289  0.3399  1.4329  0.9675
   65SAPC    HB 5291   3.386   5.401   6.389 -0.0726 -0.7340 -2.3075
   65SAPC    C2 5292   3.532   5.517   6.483  0.0626 -0.6034 -0.4490
   65SAPC    HS 5293   3.611   5.591   6.457  0.8104 -0.5300  1.8085
   65SAPC   O21 5294   3.578   5.413   6.575  0.3186  0.2941  0.1622
   65SAPC   C21 5295   3.701   5.431   6.617  0.2406  0.8048 -0.3511
   65SAPC   O22 5296   3.769   5.530   6.600  0.1636 -0.0389  0.0664
   65SAPC   C22 5297   3.750   5.301   6.685  0.1560 -0.1432  0.9779
   65SAPC   H2R 5298   3.653   5.261   6.723  0.8325 -0.3193  2.5789
   65SAPC   H2S 5299   3.784   5.234   6.604 -1.1488  0.3814 -0.0639
   65SAPC    C3 5300   3.422   5.600   6.556 -0.2477  0.3207  0.6982
   65SAPC    HX 5301   3.327   5.544   6.567 -0.8875  0.8744 -1.4255
   65SAPC    HY 5302   3.404   5.689   6.492  2.3365  2.5017  2.7765
   65SAPC   O31 5303   3.464   5.628   6.687 -0.7428  0.1164  0.0433
   65SAPC   C31 5304   3.525   5.744   6.705  0.2452 -1.1954  0.0138
   65SAPC   O32 5305   3.560   5.819   6.617  0.1106  0.0456  0.6869
   65SAPC   C32 5306   3.547   5.771   6.848 -0.5138 -0.6058 -0.3394
   65SAPC   H2X 5307   3.457   5.731   6.900 -1.5611  1.1233 -0.7125
   65SAPC   H2Y 5308   3.540   5.879   6.873 -0.4333 -0.4300 -1.0692
   65SAPC   C23 5309   3.864   5.335   6.782 -0.4024  0.0874 -0.1958
   65SAPC   H3R 5310   3.819   5.358   6.881  1.6525  2.1608  0.3480
   65SAPC   H3S 5311   3.922   5.420   6.740 -0.3215 -0.3235 -0.9330
   65SAPC   C24 5312   3.959   5.203   6.793 -0.2413  0.1107  0.4106
   65SAPC   H4R 5313   4.056   5.233   6.838 -0.2084  0.6279  0.0096
   65SAPC   H4S 5314   3.990   5.185   6.688  0.5310 -1.9173  0.9521
   65SAPC   C25 5315   3.894   5.079   6.847  0.2946 -0.4113 -0.5214
   65SAPC   H5R 5316   3.832   5.023   6.776  0.5598 -0.5467 -0.6509
   65SAPC   C26 5317   3.915   5.021   6.965 -0.1864 -0.5926 -0.1248
   65SAPC   H6R 5318   3.863   4.930   6.999  0.7594 -0.6606  1.1885
   65SAPC   C27 5319   3.992   5.088   7.077 -0.3107  0.1949 -0.1351
   65SAPC   H7R 5320   4.011   5.196   7.055  0.6738 -0.0639 -0.5884
   65SAPC   H7S 5321   4.096   5.050   7.082 -1.1185 -2.0613  0.6415
   65SAPC   C28 5322   3.918   5.071   7.206 -0.2233 -0.1671  0.4709
   65SAPC   H8R 5323   3.912   4.968   7.244 -0.6347 -0.2716  0.1196
   65SAPC   C29 5324   3.869   5.169   7.281 -1.0316 -0.0951 -0.1962
   65SAPC   H9R 5325   3.845   5.142   7.385 -1.2620 -1.4744 -0.5866
   65SAPC  C210 5326   3.875   5.321   7.259  0.9101 -1.1996  0.1625
   65SAPC  H10R 5327   3.815   5.354   7.172  2.2492 -2.1931 -1.1867
   65SAPC  H10S 5328   3.982   5.354   7.258  1.0055 -1.2665  2.5107
   65SAPC  C211 5329   3.809   5.408   7.368 -0.3060  0.1672 -0.2128
   65SAPC  H11R 5330   3.711   5.446   7.338  0.4205 -0.3968 -3.7198
   65SAPC  C212 5331   3.856   5.426   7.492 -0.4590  0.4275  0.8822
   65SAPC  H12R 5332   3.803   5.496   7.558 -0.5181 -0.4490  1.7646
   65SAPC  C213 5333   3.985   5.386   7.550  0.1606  0.9871  0.4034
   65SAPC  H13R 5334   4.038   5.338   7.465 -1.2388  0.8232 -0.4076
   65SAPC  H13S 5335   3.964   5.298   7.615  2.0594 -0.7667 -1.2154
   65SAPC  C214 5336   4.067   5.478   7.623  0.0374 -0.2712 -0.6215
   65SAPC  H14R 5337   4.135   5.533   7.557 -0.8972 -0.1599 -1.5208
   65SAPC  C215 5338   4.065   5.512   7.758  0.1653 -0.0738  0.6818
   65SAPC  H15R 5339   4.142   5.586   7.784  1.9101 -2.2054  1.8250
   65SAPC  C216 5340   3.967   5.462   7.856  0.7090 -0.0364 -0.0861
   65SAPC  H16R 5341   4.015   5.414   7.943  0.6074  0.4411  0.2394
   65SAPC  H16S 5342   3.904   5.380   7.815  1.6348 -0.4315 -0.7575
   65SAPC  C217 5343   3.889   5.585   7.909 -0.1995 -0.5798  0.6221
   65SAPC  H17R 5344   3.841   5.641   7.826  2.2931  1.3995  0.4018
   65SAPC  H17S 5345   3.949   5.656   7.971 -1.4632  0.9626  0.1479
   65SAPC  C218 5346   3.783   5.542   8.010 -0.2320  0.0152 -0.9090
   65SAPC  H18R 5347   3.754   5.629   8.072  2.6796  0.6213 -0.2759
   65SAPC  H18S 5348   3.827   5.467   8.079 -2.3977 -0.8504 -0.3705
   65SAPC  C219 5349   3.654   5.479   7.944 -0.5690 -0.4201 -0.1010
   65SAPC  H19R 5350   3.686   5.389   7.887 -2.2068 -0.7458 -0.5745
   65SAPC  H19S 5351   3.624   5.560   7.875 -0.1033  0.7122  0.9933
   65SAPC  C220 5352   3.549   5.440   8.049 -0.1144 -0.5830  0.1813
   65SAPC  H20R 5353   3.582   5.371   8.129  2.8546 -0.0793 -0.5070
   65SAPC  H20S 5354   3.468   5.385   7.995 -0.9530 -0.6386  1.4525
   65SAPC  H20T 5355   3.503   5.533   8.088  0.5297  0.2809 -1.0255
   65SAPC   C33 5356   3.678   5.712   6.909 -0.8275 -0.2538  0.6531
   65SAPC   H3X 5357   3.762   5.755   6.851 -0.2689 -0.5697  1.2100
   65SAPC   H3Y 5358   3.696   5.602   6.904  0.2658 -0.1581  1.8561
   65SAPC   C34 5359   3.687   5.743   7.061 -0.3230  0.1552  0.4825
   65SAPC   H4X 5360   3.779   5.689   7.094 -0.1478 -0.7845 -1.3902
   65SAPC   H4Y 5361   3.600   5.698   7.113  0.5601 -0.7076  1.2518
   65SAPC   C35 5362   3.690   5.890   7.098  0.0734  0.0366  0.3862
   65SAPC   H5X 5363   3.586   5.927   7.086  0.4165  0.6029 -1.1347
   65SAPC   H5Y 5364   3.755   5.939   7.021 -2.5871  0.1419 -1.9697
   65SAPC   C36 5365   3.740   5.917   7.237  0.0419  0.3078  0.4986
   65SAPC   H6X 5366   3.723   6.025   7.259  0.2037  0.8918 -1.9642
   65SAPC   H6Y 5367   3.849   5.901   7.250 -0.2013 -1.1220  0.9049
   65SAPC   C37 5368   3.665   5.826   7.338  0.0501 -0.2103  0.3686
   65SAPC   H7X 5369   3.710   5.725   7.322  0.9119  0.2226 -0.0529
   65SAPC   H7Y 5370   3.563   5.831   7.294 -0.1423 -0.1554  0.8172
   65SAPC   C38 5371   3.685   5.867   7.487 -0.0507  0.4428 -0.7527
   65SAPC   H8X 5372   3.617   5.799   7.543  1.3794  0.7545  1.4980
   65SAPC   H8Y 5373   3.646   5.970   7.499 -0.2456  0.6487 -2.8436
   65SAPC   C39 5374   3.825   5.848   7.542 -0.1254  0.1845  0.0532
   65SAPC   H9X 5375   3.897   5.918   7.493  1.3142  0.5628  2.5319
   65SAPC   H9Y 5376   3.858   5.743   7.534  1.4107  0.5399  1.2635
   65SAPC  C310 5377   3.827   5.890   7.691 -0.0406  0.0364  0.7279
   65SAPC  H10X 5378   3.770   5.821   7.756 -1.6795  1.3885  0.7867
   65SAPC  H10Y 5379   3.768   5.983   7.680  0.2575  0.0492 -1.0914
   65SAPC  C311 5380   3.974   5.902   7.743  0.9261 -0.4483 -0.8307
   65SAPC  H11X 5381   4.029   5.969   7.673  1.7442 -2.1303 -1.8460
   65SAPC  H11Y 5382   4.017   5.801   7.727 -1.6091 -1.8627  0.7294
   65SAPC  C312 5383   3.981   5.939   7.881 -0.2143  0.6733 -0.4377
   65SAPC  H12X 5384   3.917   5.878   7.949  1.8484  0.0305  1.0418
   65SAPC  H12Y 5385   3.955   6.046   7.898 -0.1972  0.4843  0.9037
   65SAPC  C313 5386   4.121   5.932   7.936 -0.1837  0.6870  0.6407
   65SAPC  H13X 5387   4.185   5.997   7.873 -1.9254  0.7807 -1.1417
   65SAPC  H13Y 5388   4.155   5.828   7.920 -0.8576  0.6340 -0.5182
   65SAPC  C314 5389   4.128   5.973   8.081  0.9813  0.4161 -0.7706
   65SAPC  H14X 5390   4.064   6.063   8.098 -1.1156 -0.7940 -1.8510
   65SAPC  H14Y 5391   4.229   6.009   8.108  0.3938  1.9395 -0.4694
   65SAPC  C315 5392   4.094   5.859   8.178 -0.2368  0.8184  0.0995
   65SAPC  H15X 5393   4.183   5.793   8.183 -1.7317 -1.2492  2.2273
   65SAPC  H15Y 5394   4.011   5.796   8.140  0.0023  2.2520 -3.0837
   65SAPC  C316 5395   4.069   5.908   8.320 -0.4542  0.1456 -0.5678
   65SAPC  H16X 5396   4.130   5.996   8.352 -1.0802  0.6367 -0.7169
   65SAPC  H16Y 5397   4.093   5.827   8.392  0.2100  1.3958  0.6802
   65SAPC  C317 5398   3.922   5.941   8.348 -0.2050  0.5007  0.5991
   65SAPC  H17X 5399   3.859   5.860   8.307  0.6105  0.1657 -0.0197
   65SAPC  H17Y 5400   3.891   6.035   8.298 -1.1814  0.9360  1.9584
   65SAPC  C318 5401   3.896   5.966   8.492  0.3627  0.5638  0.1813
   65SAPC  H18X 5402   3.912   5.873   8.551  1.4294 -0.0929 -1.0886
   65SAPC  H18Y 5403   3.787   5.985   8.507  0.5900  1.4932  0.7401
   65SAPC  H18Z 5404   3.962   6.047   8.530  0.1431  2.0946 -2.4825
   66SAPC     N 5405   0.063   2.030   5.855 -1.1298  0.4072 -1.0041
   66SAPC   C12 5406   0.027   2.143   5.949  0.0912  0.6611 -0.8575
   66SAPC  H12A 5407  -0.079   2.142   5.972  0.3318  2.3592  0.5263
   66SAPC  H12B 5408   0.023   2.225   5.878  1.5830 -0.1903 -1.9871
   66SAPC   C13 5409   0.168   2.079   5.764  0.2446  0.5579  0.5177
   66SAPC  H13A 5410   0.261   2.101   5.814 -0.3005 -1.5758  2.6428
   66SAPC  H13B 5411   0.178   2.006   5.685  0.4919  1.1486 -0.0053
   66SAPC  H13C 5412   0.132   2.172   5.721  1.1955  1.2003  1.1009
   66SAPC   C14 5413   0.125   1.911   5.940  0.3067  1.0402  1.1392
   66SAPC  H14A 5414   0.215   1.950   5.986  1.8205 -0.1049 -0.6952
   66SAPC  H14B 5415   0.059   1.867   6.013  0.8017 -0.2143  0.8602
   66SAPC  H14C 5416   0.155   1.831   5.874 -1.0294 -1.0531  2.9239
   66SAPC   C15 5417  -0.062   1.979   5.784 -0.6840 -1.2776 -0.7587
   66SAPC  H15A 5418  -0.045   1.893   5.720 -0.4066 -1.4315 -0.4830
   66SAPC  H15B 5419  -0.128   1.934   5.856  2.1231 -4.3951  0.1376
   66SAPC  H15C 5420  -0.120   2.051   5.728  0.4270 -0.2095 -0.5742
   66SAPC   C11 5421   0.117   2.177   6.068 -0.3427  0.0931  0.2493
   66SAPC  H11A 5422   0.111   2.093   6.140  0.4939 -1.7622 -1.7395
   66SAPC  H11B 5423   0.063   2.262   6.114 -1.1738  0.2023 -0.8953
   66SAPC     P 5424   0.375   2.140   6.101 -0.0018  0.1268 -0.3600
   66SAPC   O13 5425   0.354   1.994   6.081 -0.6890 -0.1562  0.4524
   66SAPC   O14 5426   0.505   2.195   6.051  0.0061  0.0865  0.7618
   66SAPC   O12 5427   0.249   2.215   6.033 -0.3661 -0.4554 -0.0499
   66SAPC   O11 5428   0.374   2.177   6.254  0.6372 -0.4680 -0.3252
   66SAPC    C1 5429   0.310   2.287   6.320  0.3109 -0.2062  0.0023
   66SAPC    HA 5430   0.388   2.357   6.355 -0.9153  0.8973  0.5979
   66SAPC    HB 5431   0.255   2.352   6.250 -0.8972  0.6420  1.6751
   66SAPC    C2 5432   0.224   2.257   6.453  0.1546  0.3634 -0.1051
   66SAPC    HS 5433   0.296   2.192   6.508 -0.7260 -1.1306 -0.6352
   66SAPC   O21 5434   0.096   2.186   6.433  0.4121 -0.2467 -0.1114
   66SAPC   C21 5435   0.070   2.094   6.520  0.6488  0.1093 -0.0701
   66SAPC   O22 5436   0.134   2.073   6.618 -0.2110  0.0117 -0.0312
   66SAPC   C22 5437  -0.074   2.039   6.482  0.6330 -0.4039 -0.1652
   66SAPC   H2R 5438  -0.141   2.128   6.481 -2.2825 -2.4176 -1.3661
   66SAPC   H2S 5439  -0.071   1.999   6.379  0.9842  0.7510 -0.6205
   66SAPC    C3 5440   0.192   2.389   6.521 -0.2839  0.6468 -0.0203
   66SAPC    HX 5441   0.103   2.434   6.473  0.1653  1.4822 -0.0973
   66SAPC    HY 5442   0.281   2.456   6.512  0.0505  0.0526 -1.3798
   66SAPC   O31 5443   0.164   2.354   6.659  0.3748 -0.2943 -0.4035
   66SAPC   C31 5444   0.268   2.339   6.736 -0.1067 -0.5007  0.9064
   66SAPC   O32 5445   0.382   2.369   6.708  0.1447  0.2376  0.1325
   66SAPC   C32 5446   0.219   2.278   6.868  0.7690 -0.2412 -0.9177
   66SAPC   H2X 5447   0.167   2.181   6.853 -0.9865  0.2775  1.1961
   66SAPC   H2Y 5448   0.147   2.350   6.912  1.9549  0.7641 -0.5709
   66SAPC   C23 5449  -0.117   1.927   6.582 -0.2082  0.4013 -0.2622
   66SAPC   H3R 5450  -0.220   1.903   6.546 -0.1410  0.3482 -0.4201
   66SAPC   H3S 5451  -0.126   1.972   6.683  1.4295 -1.2709  0.6843
   66SAPC   C24 5452  -0.033   1.797   6.592 -0.6304 -0.2314 -0.4574
   66SAPC   H4R 5453   0.071   1.835   6.598 -0.4755 -0.7274  0.0811
   66SAPC   H4S 5454  -0.034   1.742   6.496  0.1936 -2.1673  0.5940
   66SAPC   C25 5455  -0.075   1.706   6.697 -0.2226  0.1067 -0.3220
   66SAPC   H5R 5456  -0.160   1.640   6.673 -0.0478  1.0293 -3.9013
   66SAPC   C26 5457  -0.030   1.695   6.822 -0.3324 -0.7293 -0.3792
   66SAPC   H6R 5458  -0.091   1.625   6.880  0.7943 -2.3574 -1.0767
   66SAPC   C27 5459   0.074   1.780   6.894 -0.5028  0.7801  0.3665
   66SAPC   H7R 5460   0.175   1.780   6.846  0.5171 -1.1945  2.3098
   66SAPC   H7S 5461   0.121   1.724   6.977 -1.1828  0.4359  0.5270
   66SAPC   C28 5462   0.047   1.925   6.929  0.0516  0.3529 -0.0163
   66SAPC   H8R 5463   0.076   1.991   6.846  0.3246 -0.8180 -0.8739
   66SAPC   C29 5464  -0.017   1.972   7.040  0.9327 -0.0916 -0.2795
   66SAPC   H9R 5465  -0.032   2.081   7.039 -0.2229 -0.2186 -2.0788
   66SAPC  C210 5466  -0.064   1.894   7.162 -0.1181  0.8395 -0.6346
   66SAPC  H10R 5467  -0.117   1.803   7.126  1.2986 -0.0928 -0.4832
   66SAPC  H10S 5468  -0.146   1.945   7.217 -0.9485  1.2174 -2.1873
   66SAPC  C211 5469   0.050   1.846   7.261 -0.0490 -0.6536  0.6136
   66SAPC  H11R 5470   0.143   1.905   7.250 -0.1203 -0.6699 -0.0931
   66SAPC  C212 5471   0.044   1.750   7.357 -0.0791  0.5431  0.5663
   66SAPC  H12R 5472   0.131   1.736   7.422 -0.4061 -0.5349  0.7944
   66SAPC  C213 5473  -0.075   1.661   7.383  0.0350 -0.1421 -0.4994
   66SAPC  H13R 5474  -0.028   1.569   7.424  1.0653  1.3704  1.9177
   66SAPC  H13S 5475  -0.136   1.612   7.304 -2.6324  1.4357  0.4654
   66SAPC  C214 5476  -0.170   1.719   7.491  0.4891  0.2597  0.4388
   66SAPC  H14R 5477  -0.151   1.818   7.533  0.3300  0.2632  0.5027
   66SAPC  C215 5478  -0.282   1.659   7.542 -0.0800 -0.0746  0.2649
   66SAPC  H15R 5479  -0.337   1.712   7.621 -0.6782 -0.5733  0.1888
   66SAPC  C216 5480  -0.329   1.524   7.494 -0.3381 -0.5970 -0.8838
   66SAPC  H16R 5481  -0.311   1.514   7.385 -0.6085  1.1672 -1.1232
   66SAPC  H16S 5482  -0.436   1.509   7.518 -0.3174  3.3446  2.9862
   66SAPC  C217 5483  -0.247   1.414   7.556 -0.3935  0.3564  0.2238
   66SAPC  H17R 5484  -0.286   1.389   7.657 -0.7392 -1.0732 -0.2343
   66SAPC  H17S 5485  -0.140   1.438   7.571 -0.4663  0.1297  1.1383
   66SAPC  C218 5486  -0.273   1.292   7.469  0.3860  0.4017 -0.1869
   66SAPC  H18R 5487  -0.194   1.304   7.391 -0.1665  0.8608 -0.6865
   66SAPC  H18S 5488  -0.372   1.288   7.419  0.6707 -0.3330 -0.7250
   66SAPC  C219 5489  -0.263   1.157   7.538  0.6863  0.0794 -0.1926
   66SAPC  H19R 5490  -0.351   1.128   7.600  0.1389  1.6026 -0.2240
   66SAPC  H19S 5491  -0.175   1.151   7.606  1.2436 -0.5646 -0.9385
   66SAPC  C220 5492  -0.248   1.044   7.432 -0.6212  0.8355 -0.0801
   66SAPC  H20R 5493  -0.263   0.944   7.478  1.4768  0.8849  0.8419
   66SAPC  H20S 5494  -0.142   1.052   7.400 -1.2349  2.2517 -1.9495
   66SAPC  H20T 5495  -0.303   1.061   7.337  1.2769  2.0877 -1.0278
   66SAPC   C33 5496   0.326   2.257   6.976 -0.0398  0.2206 -0.0343
   66SAPC   H3X 5497   0.394   2.344   6.987 -0.9297  0.8522  0.6192
   66SAPC   H3Y 5498   0.384   2.166   6.953 -0.8386 -0.0254 -1.1673
   66SAPC   C34 5499   0.255   2.231   7.111  0.8627 -0.4551 -0.5943
   66SAPC   H4X 5500   0.190   2.141   7.109 -1.0748  0.9008 -0.7455
   66SAPC   H4Y 5501   0.175   2.305   7.133  0.6942 -1.4793  2.8333
   66SAPC   C35 5502   0.346   2.228   7.236  0.3287  0.2049 -0.2258
   66SAPC   H5X 5503   0.385   2.332   7.237  1.1095 -0.0347 -1.8505
   66SAPC   H5Y 5504   0.424   2.150   7.227  0.7317  0.5349  0.3438
   66SAPC   C36 5505   0.270   2.180   7.364 -0.0198  0.1667  0.0560
   66SAPC   H6X 5506   0.278   2.070   7.375 -0.9285 -0.0674 -1.4792
   66SAPC   H6Y 5507   0.161   2.198   7.355  0.1602  0.3198 -2.3498
   66SAPC   C37 5508   0.324   2.246   7.492  0.3846 -0.0968  0.0857
   66SAPC   H7X 5509   0.326   2.357   7.481  0.6941 -0.0651  0.4536
   66SAPC   H7Y 5510   0.433   2.225   7.501  0.0427 -1.8436  0.4506
   66SAPC   C38 5511   0.244   2.214   7.618 -0.7330 -0.1755 -0.1833
   66SAPC   H8X 5512   0.137   2.219   7.590 -0.4443 -0.4263 -1.3852
   66SAPC   H8Y 5513   0.275   2.292   7.692  0.2915 -1.3701  0.7110
   66SAPC   C39 5514   0.278   2.075   7.677 -0.5470  0.3482 -0.7670
   66SAPC   H9X 5515   0.387   2.053   7.689 -1.2203 -2.0879  2.0837
   66SAPC   H9Y 5516   0.246   1.999   7.602  0.1529 -0.4803 -0.2464
   66SAPC  C310 5517   0.217   2.044   7.814 -0.7004 -0.2517 -0.5807
   66SAPC  H10X 5518   0.268   2.091   7.900 -1.2940 -1.3632  0.4007
   66SAPC  H10Y 5519   0.232   1.935   7.831 -0.4924 -0.0524  0.5427
   66SAPC  C311 5520   0.072   2.073   7.834  0.1787 -0.1879  0.0529
   66SAPC  H11X 5521   0.015   2.012   7.761 -1.0299 -1.3356  1.8597
   66SAPC  H11Y 5522   0.063   2.182   7.819 -2.0438  0.1159  2.6561
   66SAPC  C312 5523   0.006   2.050   7.973  0.3324  0.4325 -0.5894
   66SAPC  H12X 5524  -0.103   2.056   7.952 -0.4803  3.1027  3.3250
   66SAPC  H12Y 5525   0.020   2.136   8.042 -1.1753 -1.5547  2.3965
   66SAPC  C313 5526   0.054   1.915   8.025 -0.0543 -0.2270  0.1604
   66SAPC  H13X 5527   0.159   1.933   8.058  0.3389 -2.0574 -0.0314
   66SAPC  H13Y 5528   0.061   1.838   7.946  1.4657 -0.7466  0.7509
   66SAPC  C314 5529  -0.027   1.877   8.145 -0.1763 -0.9708 -0.6353
   66SAPC  H14X 5530  -0.015   1.770   8.169 -3.6483 -1.1744  0.8188
   66SAPC  H14Y 5531  -0.136   1.874   8.123 -1.3570 -2.3026  4.1749
   66SAPC  C315 5532  -0.013   1.981   8.263 -0.1153 -0.3136  0.6241
   66SAPC  H15X 5533  -0.052   2.081   8.232  0.8154  0.1759  0.9940
   66SAPC  H15Y 5534   0.095   1.995   8.286  0.3257  0.9565 -1.9030
   66SAPC  C316 5535  -0.088   1.945   8.389  0.3609 -0.1339 -0.3560
   66SAPC  H16X 5536  -0.195   1.925   8.366  0.0866  0.9376 -0.0639
   66SAPC  H16Y 5537  -0.093   2.036   8.452  0.3404  0.2028 -0.8406
   66SAPC  C317 5538  -0.022   1.820   8.453  0.4570  0.0968 -0.0866
   66SAPC  H17X 5539   0.085   1.843   8.474  1.0067 -2.0363 -0.3978
   66SAPC  H17Y 5540  -0.025   1.731   8.387 -2.3169 -0.2155  0.3399
   66SAPC  C318 5541  -0.092   1.793   8.587 -0.5290  0.0107  0.0102
   66SAPC  H18X 5542  -0.050   1.872   8.653  1.7711  0.2521 -1.5976
   66SAPC  H18Y 5543  -0.047   1.701   8.629 -0.2211  0.9313  1.7582
   66SAPC  H18Z 5544  -0.202   1.785   8.587 -0.4337 -1.6912  1.1308
   67SAPC     N 5545   4.145   1.425   6.001  0.3946 -0.1987 -0.0087
   67SAPC   C12 5546   4.109   1.406   6.149 -0.3675  0.3167 -0.1528
   67SAPC  H12A 5547   4.167   1.325   6.191  0.9705  0.0786 -2.2678
   67SAPC  H12B 5548   4.006   1.375   6.161 -1.2702  2.9373 -0.5456
   67SAPC   C13 5549   4.118   1.290   5.936  0.1951  0.9384 -0.5451
   67SAPC  H13A 5550   4.174   1.212   5.986 -2.5936 -0.4595  0.6135
   67SAPC  H13B 5551   4.015   1.258   5.933  0.7208 -1.4494  2.3112
   67SAPC  H13C 5552   4.138   1.294   5.830 -2.7231 -0.5942 -1.2667
   67SAPC   C14 5553   4.047   1.524   5.949 -0.1392  0.0886  0.3676
   67SAPC  H14A 5554   4.065   1.534   5.843 -1.0786  2.0885  0.3556
   67SAPC  H14B 5555   3.941   1.510   5.965 -0.0648 -0.8168  0.0843
   67SAPC  H14C 5556   4.068   1.622   5.989 -0.7859  1.0443 -1.5027
   67SAPC   C15 5557   4.286   1.463   5.983 -0.0981 -0.8917  0.2590
   67SAPC  H15A 5558   4.359   1.406   6.039 -0.7556 -0.0877  2.0124
   67SAPC  H15B 5559   4.307   1.466   5.877 -0.2388 -0.0602  0.2501
   67SAPC  H15C 5560   4.306   1.564   6.016  2.0087 -1.3895  0.6654
   67SAPC   C11 5561   4.120   1.527   6.253  0.1792  0.6785 -0.3427
   67SAPC  H11A 5562   4.227   1.555   6.246  0.0692  0.9527 -1.0278
   67SAPC  H11B 5563   4.106   1.494   6.358 -0.1717 -1.5756 -1.0363
   67SAPC     P 5564   3.879   1.616   6.237  0.1229  0.2416 -0.0520
   67SAPC   O13 5565   3.816   1.690   6.124  0.0782 -0.0192 -0.3516
   67SAPC   O14 5566   3.846   1.475   6.261  0.3966  0.3981 -0.2516
   67SAPC   O12 5567   4.036   1.631   6.212  0.4683  0.4309  0.0240
   67SAPC   O11 5568   3.847   1.693   6.364  0.1952 -0.7676 -0.1031
   67SAPC    C1 5569   3.941   1.742   6.461 -0.5914  0.3489 -0.0085
   67SAPC    HA 5570   4.038   1.768   6.413 -0.8823  3.2367  0.7659
   67SAPC    HB 5571   3.910   1.840   6.503 -0.5394  0.6842 -0.7370
   67SAPC    C2 5572   3.976   1.639   6.574  0.9541  0.1258  0.3604
   67SAPC    HS 5573   3.970   1.535   6.536 -1.2716  0.3688 -0.0815
   67SAPC   O21 5574   3.867   1.644   6.667  0.1787  0.4322 -0.0337
   67SAPC   C21 5575   3.870   1.554   6.768 -0.1594  0.1853  0.4682
   67SAPC   O22 5576   3.953   1.460   6.779 -0.1568 -0.0874  0.1524
   67SAPC   C22 5577   3.752   1.573   6.866 -0.8789 -0.9095 -0.3478
   67SAPC   H2R 5578   3.665   1.617   6.812 -1.3540 -3.5920 -1.9386
   67SAPC   H2S 5579   3.722   1.469   6.893  0.4669 -1.2242 -0.0363
   67SAPC    C3 5580   4.121   1.677   6.618 -0.1915  0.4848  0.2358
   67SAPC    HX 5581   4.189   1.661   6.532 -0.5961  1.8128 -0.3479
   67SAPC    HY 5582   4.161   1.605   6.693 -1.1524 -0.8591 -0.5018
   67SAPC   O31 5583   4.123   1.810   6.669  0.0537  0.8472 -0.3822
   67SAPC   C31 5584   4.205   1.839   6.764  0.2407  0.0814  0.1820
   67SAPC   O32 5585   4.304   1.773   6.798  0.1431 -0.3273  0.1823
   67SAPC   C32 5586   4.164   1.969   6.822  0.4793 -0.1114  0.4408
   67SAPC   H2X 5587   4.053   1.965   6.821  0.3270  0.8308 -3.7066
   67SAPC   H2Y 5588   4.188   2.056   6.756 -1.7968 -0.0099 -0.3635
   67SAPC   C23 5589   3.791   1.658   6.983 -0.3254  0.0549 -0.6244
   67SAPC   H3R 5590   3.707   1.718   7.024  1.5839  1.8077  0.9788
   67SAPC   H3S 5591   3.858   1.742   6.954 -1.9666  2.4563  2.0635
   67SAPC   C24 5592   3.874   1.574   7.080  0.7698  0.2474 -0.4304
   67SAPC   H4R 5593   3.958   1.636   7.117  1.4931 -0.5411 -0.7101
   67SAPC   H4S 5594   3.924   1.492   7.024 -0.3991  0.2980 -1.6019
   67SAPC   C25 5595   3.779   1.536   7.191 -0.7887 -0.1841 -0.4775
   67SAPC   H5R 5596   3.706   1.458   7.164 -0.6743 -0.3091 -0.4290
   67SAPC   C26 5597   3.781   1.594   7.312  0.4339  0.2017  0.2194
   67SAPC   H6R 5598   3.708   1.564   7.389  1.6145 -0.5170  1.0954
   67SAPC   C27 5599   3.860   1.709   7.360 -0.3543 -0.7597  0.6138
   67SAPC   H7R 5600   3.927   1.751   7.282 -0.4794 -1.6295  0.0199
   67SAPC   H7S 5601   3.918   1.671   7.447  0.5250  0.9304  0.8065
   67SAPC   C28 5602   3.761   1.814   7.403 -0.8031 -1.2797 -0.2273
   67SAPC   H8R 5603   3.699   1.854   7.322  0.9229  4.7414  0.8572
   67SAPC   C29 5604   3.755   1.875   7.523  0.0292  0.3494 -0.1369
   67SAPC   H9R 5605   3.671   1.944   7.543  0.4428  0.2058  2.4877
   67SAPC  C210 5606   3.845   1.851   7.644  0.4072  0.5324 -0.0177
   67SAPC  H10R 5607   3.951   1.873   7.618 -0.0496  0.8135 -1.7577
   67SAPC  H10S 5608   3.843   1.741   7.662  0.9009  0.4921 -0.1737
   67SAPC  C211 5609   3.805   1.916   7.771 -0.0569  0.0979  0.3084
   67SAPC  H11R 5610   3.730   1.997   7.764  0.5844  0.5787 -1.9396
   67SAPC  C212 5611   3.850   1.884   7.898  0.8624  0.1117 -0.2098
   67SAPC  H12R 5612   3.829   1.949   7.983 -1.2490 -2.4900  1.4154
   67SAPC  C213 5613   3.932   1.764   7.936 -0.2182 -0.6600  0.2104
   67SAPC  H13R 5614   4.038   1.794   7.953 -0.3152 -0.1095 -0.1126
   67SAPC  H13S 5615   3.930   1.688   7.855 -1.2803 -0.2066 -0.2029
   67SAPC  C214 5616   3.873   1.705   8.063 -0.9977 -0.1639 -0.1813
   67SAPC  H14R 5617   3.820   1.610   8.053 -1.1138 -0.1118 -0.0758
   67SAPC  C215 5618   3.876   1.769   8.183 -0.4015 -0.0352 -0.1749
   67SAPC  H15R 5619   3.838   1.708   8.266  0.2150 -0.0094  0.1355
   67SAPC  C216 5620   3.934   1.908   8.215  0.0473  0.7989  0.5173
   67SAPC  H16R 5621   3.855   1.982   8.240 -0.8900  0.1076 -0.3242
   67SAPC  H16S 5622   3.989   1.940   8.124  0.7481  0.4611  0.8144
   67SAPC  C217 5623   4.046   1.898   8.317 -0.2113 -0.0493 -0.5452
   67SAPC  H17R 5624   4.105   1.989   8.294 -0.6600 -0.3157 -3.1316
   67SAPC  H17S 5625   4.117   1.820   8.284  0.2244 -0.3346  0.9892
   67SAPC  C218 5626   4.010   1.883   8.462 -0.0662  0.1301  0.2663
   67SAPC  H18R 5627   3.955   1.787   8.468  0.0314 -0.0953 -1.8384
   67SAPC  H18S 5628   3.934   1.961   8.483  1.3360  1.6018  0.0901
   67SAPC  C219 5629   4.139   1.892   8.560 -0.4239 -0.1467  0.3737
   67SAPC  H19R 5630   4.193   1.987   8.539 -1.4798  0.0555 -1.7063
   67SAPC  H19S 5631   4.213   1.812   8.538 -1.3995 -0.9644 -0.0386
   67SAPC  C220 5632   4.096   1.883   8.709  0.2136 -0.7486 -0.1891
   67SAPC  H20R 5633   4.177   1.912   8.779  0.2482 -0.0935 -0.4985
   67SAPC  H20S 5634   4.050   1.786   8.741 -2.5406  1.0725  1.8625
   67SAPC  H20T 5635   4.017   1.958   8.731 -1.7921 -2.9737  0.7059
   67SAPC   C33 5636   4.230   1.999   6.963  0.5574 -0.2792  0.3227
   67SAPC   H3X 5637   4.213   2.107   6.986  3.7330  0.2958  0.4045
   67SAPC   H3Y 5638   4.341   1.999   6.959  0.5592  0.8090 -0.0092
   67SAPC   C34 5639   4.187   1.912   7.081 -0.3567  0.0494  0.3239
   67SAPC   H4X 5640   4.253   1.825   7.064  1.1751  0.4719  3.3299
   67SAPC   H4Y 5641   4.081   1.880   7.078 -0.9113  1.8738 -2.0048
   67SAPC   C35 5642   4.217   1.979   7.215 -0.0418 -0.4791 -0.7593
   67SAPC   H5X 5643   4.162   1.930   7.298  0.7153  0.5423  0.3794
   67SAPC   H5Y 5644   4.181   2.084   7.211  1.4797  0.2140  1.5728
   67SAPC   C36 5645   4.368   1.999   7.259 -0.0294  0.3040  0.0148
   67SAPC   H6X 5646   4.420   2.062   7.184  0.9485  1.8355  1.9001
   67SAPC   H6Y 5647   4.415   1.898   7.259 -1.2647 -0.2928  0.2446
   67SAPC   C37 5648   4.376   2.071   7.394 -0.3029 -0.2389 -0.0880
   67SAPC   H7X 5649   4.301   2.153   7.385 -2.8017 -2.2536  1.1073
   67SAPC   H7Y 5650   4.482   2.102   7.410 -0.2542  1.0210 -2.4974
   67SAPC   C38 5651   4.348   1.981   7.509 -0.0394  0.2425 -0.5807
   67SAPC   H8X 5652   4.426   1.907   7.538 -0.2690  1.4224  3.8740
   67SAPC   H8Y 5653   4.251   1.929   7.490 -0.1381  0.3037 -0.2569
   67SAPC   C39 5654   4.328   2.060   7.639  0.4413  0.0154 -0.3943
   67SAPC   H9X 5655   4.250   2.139   7.631 -0.2949 -0.6628 -0.0254
   67SAPC   H9Y 5656   4.427   2.109   7.649  0.3671  0.0121  0.4566
   67SAPC  C310 5657   4.294   1.964   7.748  0.6339 -0.5072 -0.1722
   67SAPC  H10X 5658   4.382   1.897   7.757  1.8377  1.1408  0.9513
   67SAPC  H10Y 5659   4.201   1.910   7.720 -0.2809  1.3833 -0.9502
   67SAPC  C311 5660   4.278   2.037   7.881 -0.0962  0.8394  0.1972
   67SAPC  H11X 5661   4.185   2.098   7.888  0.3828  1.4327  2.1785
   67SAPC  H11Y 5662   4.365   2.106   7.874  0.9184 -0.4773 -0.5451
   67SAPC  C312 5663   4.300   1.953   8.007  0.6660  0.3912  0.3704
   67SAPC  H12X 5664   4.222   1.876   8.026  0.9381  0.4218  1.7467
   67SAPC  H12Y 5665   4.293   2.020   8.095  1.6877 -0.7684  1.3890
   67SAPC  C313 5666   4.434   1.874   8.014 -0.1482  0.0671 -0.3551
   67SAPC  H13X 5667   4.521   1.938   7.986  0.5967 -1.0651 -0.6847
   67SAPC  H13Y 5668   4.435   1.795   7.936 -2.8862  0.8338 -1.2627
   67SAPC  C314 5669   4.463   1.808   8.153 -0.1741  0.1231  0.2359
   67SAPC  H14X 5670   4.561   1.758   8.138  0.7170  1.7230  0.4504
   67SAPC  H14Y 5671   4.393   1.732   8.194  0.4675 -0.2058  0.7540
   67SAPC  C315 5672   4.478   1.907   8.276 -0.1775  0.2608 -0.7102
   67SAPC  H15X 5673   4.390   1.973   8.286  1.6201  2.8882 -0.9623
   67SAPC  H15Y 5674   4.561   1.977   8.249  1.9088 -1.6209  0.5444
   67SAPC  C316 5675   4.520   1.838   8.403 -0.1860 -0.0862 -0.7554
   67SAPC  H16X 5676   4.617   1.786   8.389  1.5423  2.5669  0.4580
   67SAPC  H16Y 5677   4.448   1.756   8.424  1.4386 -1.5905 -0.8717
   67SAPC  C317 5678   4.525   1.936   8.513 -0.2650 -0.7550  0.2810
   67SAPC  H17X 5679   4.494   1.879   8.604 -3.2084  0.5482  0.2291
   67SAPC  H17Y 5680   4.451   2.018   8.501  0.1124 -0.3794  0.4930
   67SAPC  C318 5681   4.663   2.001   8.527 -0.9867 -0.6743 -0.3766
   67SAPC  H18X 5682   4.670   2.079   8.448  0.4046 -0.7964 -0.4071
   67SAPC  H18Y 5683   4.736   1.919   8.511 -1.5879 -1.3869  0.4282
   67SAPC  H18Z 5684   4.668   2.057   8.623  0.1462 -0.7363 -0.3770
   68SAPC     N 5685   5.328   2.767   6.050  0.7112 -0.2473  0.4717
   68SAPC   C12 5686   5.424   2.838   6.135  0.1580 -0.5618 -0.5174
   68SAPC  H12A 5687   5.414   2.945   6.124  1.0535 -0.6127 -2.1202
   68SAPC  H12B 5688   5.526   2.828   6.101  1.1022 -0.0090  1.9664
   68SAPC   C13 5689   5.187   2.791   6.101  0.0581 -0.1222  0.6123
   68SAPC  H13A 5690   5.116   2.724   6.055  0.0679 -0.2427  0.7725
   68SAPC  H13B 5691   5.188   2.761   6.204 -3.7344  0.3993  0.9108
   68SAPC  H13C 5692   5.157   2.895   6.103 -0.0192  0.0598 -3.0772
   68SAPC   C14 5693   5.339   2.813   5.908 -0.6104 -0.2034  0.4172
   68SAPC  H14A 5694   5.303   2.914   5.896 -2.4004 -0.7808  0.5631
   68SAPC  H14B 5695   5.443   2.797   5.883 -0.7667 -1.6743  0.6377
   68SAPC  H14C 5696   5.274   2.756   5.844 -0.5362  0.4441 -0.2506
   68SAPC   C15 5697   5.355   2.623   6.055 -0.8584 -0.1818 -0.0592
   68SAPC  H15A 5698   5.283   2.576   5.988  0.0522  1.5921 -2.4089
   68SAPC  H15B 5699   5.454   2.598   6.021 -0.6944 -1.2411  1.1174
   68SAPC  H15C 5700   5.352   2.595   6.159  0.5863  4.5963  1.5346
   68SAPC   C11 5701   5.421   2.805   6.285 -0.5939  0.3163 -0.2095
   68SAPC  H11A 5702   5.320   2.827   6.327  0.9738  1.0271  3.5661
   68SAPC  H11B 5703   5.498   2.875   6.325  1.2487 -2.8976  2.3139
   68SAPC     P 5704   5.615   2.614   6.307  0.4208  0.2527 -0.2249
   68SAPC   O13 5705   5.619   2.481   6.242 -0.2496  0.1307  0.2594
   68SAPC   O14 5706   5.705   2.712   6.247  0.4808 -0.2204 -0.0443
   68SAPC   O12 5707   5.463   2.673   6.311 -0.2067  0.6408 -0.2032
   68SAPC   O11 5708   5.651   2.603   6.463  0.1008  0.4340  0.3806
   68SAPC    C1 5709   5.547   2.560   6.550 -0.6544  0.4937 -0.5001
   68SAPC    HA 5710   5.461   2.630   6.545 -2.1972 -1.1356  1.5344
   68SAPC    HB 5711   5.515   2.455   6.535  1.0813 -0.0379 -0.6669
   68SAPC    C2 5712   5.585   2.577   6.697 -0.4378 -0.8741 -0.3751
   68SAPC    HS 5713   5.614   2.682   6.715  0.5034 -1.5057  2.2224
   68SAPC   O21 5714   5.702   2.495   6.716 -0.0671 -0.1725 -0.1646
   68SAPC   C21 5715   5.800   2.542   6.797  0.7406  0.4948  0.4631
   68SAPC   O22 5716   5.822   2.660   6.821  0.1309  0.6860  0.1362
   68SAPC   C22 5717   5.879   2.421   6.853  0.4169  1.3234  0.1339
   68SAPC   H2R 5718   5.798   2.348   6.875  2.4397 -0.7419  1.2639
   68SAPC   H2S 5719   5.944   2.377   6.775 -0.2412 -1.5222  1.0760
   68SAPC    C3 5720   5.471   2.548   6.806 -0.0685 -0.0486 -0.0991
   68SAPC    HX 5721   5.455   2.439   6.798 -0.2999 -0.0082 -0.1934
   68SAPC    HY 5722   5.379   2.594   6.765 -0.2826 -0.0640  0.3577
   68SAPC   O31 5723   5.492   2.585   6.946 -0.3393 -0.3235 -0.6047
   68SAPC   C31 5724   5.497   2.718   6.954 -0.0588  0.3844 -0.1072
   68SAPC   O32 5725   5.481   2.803   6.864 -0.5495  0.3253 -0.4834
   68SAPC   C32 5726   5.542   2.758   7.097 -0.0147 -0.0097 -0.0486
   68SAPC   H2X 5727   5.488   2.697   7.172  1.1206 -1.3318 -0.2606
   68SAPC   H2Y 5728   5.512   2.864   7.109 -0.0632  0.3484 -2.6866
   68SAPC   C23 5729   5.962   2.455   6.978  0.0133  0.6517 -0.3708
   68SAPC   H3R 5730   5.898   2.491   7.063 -0.5031  1.8491 -1.2300
   68SAPC   H3S 5731   6.023   2.543   6.948  0.0217  0.8566  0.2118
   68SAPC   C24 5732   6.057   2.341   7.013  0.3309 -0.2586  0.5343
   68SAPC   H4R 5733   6.134   2.384   7.080  0.6848 -1.7029  1.0881
   68SAPC   H4S 5734   6.105   2.301   6.921 -1.2661  0.3313 -0.5939
   68SAPC   C25 5735   5.979   2.232   7.089 -0.8631  0.0812  0.1377
   68SAPC   H5R 5736   5.943   2.140   7.040 -2.4176  0.0803  1.2165
   68SAPC   C26 5737   5.949   2.225   7.224  0.3150  0.1104  1.2838
   68SAPC   H6R 5738   5.882   2.143   7.254  0.4765 -0.2993  0.5420
   68SAPC   C27 5739   5.979   2.328   7.326 -0.0950 -0.0542 -0.1673
   68SAPC   H7R 5740   5.881   2.367   7.360  0.7417  0.2838  2.0979
   68SAPC   H7S 5741   6.032   2.421   7.293 -1.2165  0.2695 -1.0963
   68SAPC   C28 5742   6.054   2.266   7.442  0.2866 -0.2017 -0.5275
   68SAPC   H8R 5743   6.095   2.166   7.420 -0.7961 -0.1540 -2.9505
   68SAPC   C29 5744   6.078   2.324   7.559 -0.1770 -0.7528  0.3168
   68SAPC   H9R 5745   6.116   2.264   7.643  0.2343 -1.3966 -0.3213
   68SAPC  C210 5746   6.035   2.461   7.597  0.1214  0.1508  0.6135
   68SAPC  H10R 5747   5.975   2.510   7.518 -1.8317 -1.3079  1.1148
   68SAPC  H10S 5748   6.126   2.523   7.615  0.0689  1.2422 -2.2811
   68SAPC  C211 5749   5.946   2.456   7.716  0.6620 -0.5617  0.0432
   68SAPC  H11R 5750   5.853   2.401   7.695  0.5795 -0.0900 -0.8665
   68SAPC  C212 5751   5.967   2.516   7.839  0.2325  0.2853  1.4486
   68SAPC  H12R 5752   5.892   2.495   7.917 -1.4542 -1.7713 -0.5721
   68SAPC  C213 5753   6.084   2.597   7.885  0.5080  0.0435 -0.0867
   68SAPC  H13R 5754   6.046   2.695   7.923  1.2228  0.3164 -0.0477
   68SAPC  H13S 5755   6.150   2.630   7.802  0.4319  0.2917 -0.0498
   68SAPC  C214 5756   6.158   2.515   7.990 -0.0772  0.1395  0.1015
   68SAPC  H14R 5757   6.239   2.456   7.944 -0.7439  1.5878 -3.1849
   68SAPC  C215 5758   6.132   2.514   8.117  0.2471 -0.7180 -1.0209
   68SAPC  H15R 5759   6.183   2.433   8.171 -0.7122 -0.1317  0.8678
   68SAPC  C216 5760   6.030   2.593   8.202 -0.6780  0.2579  0.1286
   68SAPC  H16R 5761   5.978   2.519   8.267  1.5460 -0.6358  0.9957
   68SAPC  H16S 5762   5.947   2.627   8.136  0.2646  1.1532 -0.6312
   68SAPC  C217 5763   6.096   2.700   8.288  0.5163  0.0623 -0.3983
   68SAPC  H17R 5764   6.024   2.774   8.329  2.4415  2.1996 -0.6228
   68SAPC  H17S 5765   6.169   2.767   8.237 -0.3912  0.6474 -0.9404
   68SAPC  C218 5766   6.161   2.638   8.415  0.6667  0.1311  0.1749
   68SAPC  H18R 5767   6.259   2.598   8.380  0.1165 -1.3236  0.2280
   68SAPC  H18S 5768   6.083   2.565   8.448  0.0823  0.0290 -1.3114
   68SAPC  C219 5769   6.190   2.740   8.534 -0.6648  0.3780  0.6463
   68SAPC  H19R 5770   6.090   2.756   8.580  0.2405 -0.6863  3.1333
   68SAPC  H19S 5771   6.232   2.837   8.500  3.8793 -1.6955 -0.4698
   68SAPC  C220 5772   6.290   2.676   8.634  0.5766  0.1027  0.3418
   68SAPC  H20R 5773   6.367   2.613   8.585 -1.4910 -2.4390  0.1593
   68SAPC  H20S 5774   6.239   2.612   8.709 -0.4131 -0.6388 -0.9214
   68SAPC  H20T 5775   6.343   2.761   8.683  1.1497  0.5898 -1.0508
   68SAPC   C33 5776   5.696   2.773   7.112  0.5287  0.4600 -0.2080
   68SAPC   H3X 5777   5.743   2.832   7.031 -0.9915  1.3408 -0.4862
   68SAPC   H3Y 5778   5.741   2.672   7.096 -1.0167  0.0465 -2.3425
   68SAPC   C34 5779   5.736   2.822   7.248  0.3978 -0.7267  0.0277
   68SAPC   H4X 5780   5.707   2.929   7.248  1.4917 -0.3972 -1.2928
   68SAPC   H4Y 5781   5.846   2.833   7.250  0.1291  3.4109  0.8938
   68SAPC   C35 5782   5.687   2.740   7.362  0.0757 -0.5865  0.4884
   68SAPC   H5X 5783   5.739   2.642   7.351 -2.0943 -1.7045 -0.4786
   68SAPC   H5Y 5784   5.579   2.714   7.358 -1.2054  3.9102  0.2984
   68SAPC   C36 5785   5.711   2.798   7.504  0.0838 -0.3439 -0.1857
   68SAPC   H6X 5786   5.651   2.891   7.500  0.8922  0.1633 -4.1647
   68SAPC   H6Y 5787   5.816   2.829   7.522 -0.5854  1.7550  0.3489
   68SAPC   C37 5788   5.659   2.711   7.621  0.2163  0.2767 -0.5969
   68SAPC   H7X 5789   5.713   2.614   7.632 -0.6885 -0.0603  1.0882
   68SAPC   H7Y 5790   5.551   2.691   7.613  0.3603 -1.7917  1.6447
   68SAPC   C38 5791   5.687   2.795   7.751 -0.1105  0.4388  0.2343
   68SAPC   H8X 5792   5.635   2.892   7.738 -0.9048 -0.1861 -1.5911
   68SAPC   H8Y 5793   5.797   2.815   7.748  0.2419 -1.4283 -0.6448
   68SAPC   C39 5794   5.656   2.731   7.888  0.1031 -0.2473 -0.5776
   68SAPC   H9X 5795   5.745   2.688   7.939 -0.2026  0.8113  0.9506
   68SAPC   H9Y 5796   5.575   2.657   7.876 -0.5505  0.0697  1.4426
   68SAPC  C310 5797   5.605   2.823   7.997 -0.1884  0.1572 -0.2465
   68SAPC  H10X 5798   5.508   2.867   7.967 -0.2609 -0.7206 -1.3543
   68SAPC  H10Y 5799   5.687   2.896   8.013  0.8657 -1.1394  0.4985
   68SAPC  C311 5800   5.584   2.740   8.128  0.3879 -0.6043  0.3068
   68SAPC  H11X 5801   5.669   2.675   8.155  1.5541  0.0797 -1.5534
   68SAPC  H11Y 5802   5.500   2.667   8.126 -0.1248 -0.0094 -0.7335
   68SAPC  C312 5803   5.540   2.828   8.249  0.2968  0.3466  0.5448
   68SAPC  H12X 5804   5.458   2.899   8.224  0.5091  1.1480  2.0221
   68SAPC  H12Y 5805   5.631   2.887   8.273  0.1440  0.7044  0.2525
   68SAPC  C313 5806   5.519   2.730   8.366 -0.3324  0.2055  0.1816
   68SAPC  H13X 5807   5.597   2.652   8.356 -0.4629  0.4096 -4.5206
   68SAPC  H13Y 5808   5.423   2.676   8.377  0.2510 -0.9396 -0.2088
   68SAPC  C314 5809   5.526   2.795   8.510 -0.1823  0.1291  0.9941
   68SAPC  H14X 5810   5.434   2.853   8.533 -0.0145  0.9910 -0.4129
   68SAPC  H14Y 5811   5.614   2.862   8.512  0.1033 -0.2324  0.6760
   68SAPC  C315 5812   5.538   2.689   8.623  0.2935 -0.1889 -0.4424
   68SAPC  H15X 5813   5.637   2.638   8.617 -0.7804 -2.4137 -0.1861
   68SAPC  H15Y 5814   5.465   2.608   8.604 -0.4084  0.4452 -0.4705
   68SAPC  C316 5815   5.518   2.752   8.766  0.1570 -0.1952 -0.4507
   68SAPC  H16X 5816   5.424   2.811   8.768  0.0728 -0.1981  3.1405
   68SAPC  H16Y 5817   5.603   2.821   8.783  0.5595 -1.0860  1.4217
   68SAPC  C317 5818   5.506   2.649   8.879 -0.2785 -0.2760 -0.8596
   68SAPC  H17X 5819   5.609   2.611   8.897  0.7455  3.6161  3.1604
   68SAPC  H17Y 5820   5.429   2.580   8.837  1.9530 -2.6420 -1.3082
   68SAPC  C318 5821   5.447   2.698   9.006 -0.2096 -0.1488 -1.0770
   68SAPC  H18X 5822   5.344   2.736   8.993 -0.4502 -0.2013  0.5225
   68SAPC  H18Y 5823   5.507   2.786   9.040 -0.7867 -0.0123 -0.3730
   68SAPC  H18Z 5824   5.448   2.640   9.100 -1.6083  0.4991 -0.6389
   69SLPC     N 5825   4.616   3.920  11.196 -0.3032 -0.2775 -0.2355
   69SLPC   C13 5826   4.548   4.031  11.126  0.3590  0.3509 -1.0201
   69SLPC  H13A 5827   4.448   4.007  11.094 -0.0926 -0.0463  0.5882
   69SLPC  H13B 5828   4.541   4.114  11.194 -1.7988 -0.2672 -0.4187
   69SLPC  H13C 5829   4.611   4.057  11.042  0.6119 -0.4732 -1.0963
   69SLPC   C14 5830   4.568   3.915  11.341 -0.4809  0.3088 -0.1877
   69SLPC  H14A 5831   4.560   4.014  11.383  0.3855  0.4030 -0.2257
   69SLPC  H14B 5832   4.462   3.891  11.342 -1.0022  2.4125  1.3227
   69SLPC  H14C 5833   4.622   3.843  11.400 -0.5720  0.5545  0.1967
   69SLPC   C15 5834   4.769   3.945  11.198  0.3553  0.4996 -0.5893
   69SLPC  H15A 5835   4.798   3.965  11.096 -1.8748 -0.3329 -1.4419
   69SLPC  H15B 5836   4.799   4.021  11.269  0.7728 -0.0240 -0.2034
   69SLPC  H15C 5837   4.827   3.860  11.230  0.7128  0.7560 -0.5497
   69SLPC   C12 5838   4.585   3.797  11.120 -0.6987 -0.1644 -0.2069
   69SLPC  H12A 5839   4.642   3.715  11.162  2.2266  1.7478 -0.1575
   69SLPC  H12B 5840   4.620   3.808  11.018  1.3467  1.1442  0.5697
   69SLPC   C11 5841   4.435   3.748  11.138  0.2345 -0.2462  0.8339
   69SLPC  H11A 5842   4.408   3.744  11.246 -0.1657  0.1123  0.7511
   69SLPC  H11B 5843   4.429   3.643  11.102  2.1277  0.1512 -0.7803
   69SLPC     P 5844   4.306   3.813  10.919 -0.1755 -0.1809 -0.1861
   69SLPC   O13 5845   4.164   3.849  10.903 -0.7318  0.8437 -0.1899
   69SLPC   O14 5846   4.414   3.882  10.848 -0.0019 -0.5627  0.5599
   69SLPC   O12 5847   4.336   3.823  11.070  0.5713 -0.3791 -1.0581
   69SLPC   O11 5848   4.316   3.658  10.896 -0.4582 -0.2025 -0.3381
   69SLPC    C1 5849   4.415   3.594  10.815  0.3673 -0.0595 -0.4343
   69SLPC    HA 5850   4.513   3.645  10.829  0.8245 -1.0254 -0.0576
   69SLPC    HB 5851   4.424   3.491  10.854  0.7551  1.0282  2.6171
   69SLPC    C2 5852   4.367   3.588  10.659  0.6965 -0.8001 -0.4169
   69SLPC    HS 5853   4.445   3.524  10.612  0.9130 -1.1485  0.3932
   69SLPC   O21 5854   4.352   3.719  10.607  0.4035  0.2107  0.3951
   69SLPC   C21 5855   4.375   3.741  10.478 -0.7518  0.6483  0.4525
   69SLPC   O22 5856   4.398   3.657  10.394  0.4044 -0.5733  0.0095
   69SLPC   C22 5857   4.382   3.891  10.449 -0.1183  0.0114  0.4795
   69SLPC   H2R 5858   4.388   3.934  10.551 -0.4936  0.0461  0.4870
   69SLPC   H2S 5859   4.466   3.918  10.381 -0.2402  0.5339  0.5350
   69SLPC    C3 5860   4.228   3.519  10.660 -0.2934  0.4587 -0.0721
   69SLPC    HX 5861   4.146   3.589  10.686 -0.5518  0.4460 -0.8401
   69SLPC    HY 5862   4.223   3.440  10.739  0.9997  0.7919  0.3806
   69SLPC   O31 5863   4.202   3.456  10.533 -0.1519 -0.6519  0.3730
   69SLPC   C31 5864   4.125   3.520  10.452  0.8534  0.0677  0.4311
   69SLPC   O32 5865   4.063   3.624  10.472  1.0181 -0.1169  0.2069
   69SLPC   C32 5866   4.105   3.449  10.317 -0.4656 -0.0200 -0.4322
   69SLPC   H2X 5867   3.999   3.417  10.318 -1.0617  1.8001  1.8615
   69SLPC   H2Y 5868   4.148   3.347  10.323 -2.6261 -0.9678 -0.2103
   69SLPC   C23 5869   4.249   3.945  10.390  0.6514 -0.8678  0.3728
   69SLPC   H3R 5870   4.259   4.056  10.384 -0.6272 -0.7782 -0.3276
   69SLPC   H3S 5871   4.156   3.924  10.447  1.4357 -2.0687  1.2636
   69SLPC   C24 5872   4.218   3.897  10.243 -0.3692  0.6145 -0.1608
   69SLPC   H4R 5873   4.112   3.930  10.233 -0.1061  1.3458 -0.5972
   69SLPC   H4S 5874   4.224   3.786  10.238 -0.5365  0.5783  0.3687
   69SLPC   C25 5875   4.318   3.952  10.145  0.5968 -0.7615 -0.7462
   69SLPC   H5R 5876   4.420   3.913  10.167  1.0517  0.3480 -0.8037
   69SLPC   H5S 5877   4.328   4.062  10.157 -1.6780 -0.6050  0.2041
   69SLPC   C26 5878   4.285   3.908  10.009  0.0322 -0.4230  0.2520
   69SLPC   H6R 5879   4.183   3.946   9.986  0.3320  0.5600  0.4909
   69SLPC   H6S 5880   4.285   3.797  10.001 -0.3725 -0.4515  0.5680
   69SLPC   C27 5881   4.380   3.967   9.909  0.2434  0.0788  0.3700
   69SLPC   H7R 5882   4.481   3.942   9.948  0.4135 -0.5973 -0.4803
   69SLPC   H7S 5883   4.360   4.076   9.916 -1.3262 -0.1084 -0.7264
   69SLPC   C28 5884   4.367   3.920   9.771 -0.0927 -0.2275 -0.2934
   69SLPC   H8R 5885   4.258   3.907   9.752 -0.1119 -2.2097  0.8473
   69SLPC   H8S 5886   4.407   3.817   9.759  1.8009  0.5989 -1.4661
   69SLPC   C29 5887   4.449   4.003   9.676 -0.2357 -0.3330 -0.4176
   69SLPC   H9R 5888   4.551   4.025   9.711  0.0762 -0.3656 -1.2791
   69SLPC  C210 5889   4.397   4.042   9.561  0.0454 -0.5023  1.3663
   69SLPC  H10R 5890   4.460   4.109   9.501  0.9533 -1.7641  0.8455
   69SLPC  C211 5891   4.263   3.997   9.500 -1.2521 -0.3393  1.2492
   69SLPC  H11R 5892   4.178   3.984   9.569  0.0781  0.5593  3.1362
   69SLPC  H11S 5893   4.275   3.904   9.440  0.5821 -0.2386  1.4034
   69SLPC  C212 5894   4.215   4.100   9.401  0.4620  0.4692  0.2470
   69SLPC  H12R 5895   4.263   4.092   9.302 -0.1163 -1.7999  0.1065
   69SLPC  C213 5896   4.118   4.196   9.408 -0.0889 -0.3537 -0.7625
   69SLPC  H13R 5897   4.112   4.265   9.323 -1.6150  0.1950 -0.2393
   69SLPC  C214 5898   4.034   4.238   9.530  0.3990 -0.1580 -0.2308
   69SLPC  H14R 5899   4.075   4.187   9.620 -0.4995  0.7627  0.7316
   69SLPC  H14S 5900   3.925   4.217   9.523  0.2483  0.9914 -1.7261
   69SLPC  C215 5901   4.044   4.389   9.545 -0.2635 -0.9597 -0.8924
   69SLPC  H15R 5902   4.144   4.430   9.519 -0.6004  1.7322  1.5108
   69SLPC  H15S 5903   4.020   4.415   9.650  0.5228 -2.1335 -0.3997
   69SLPC  C216 5904   3.949   4.464   9.446  0.0397 -0.5914  0.5536
   69SLPC  H16R 5905   3.960   4.415   9.347  0.0715 -2.9677  1.6440
   69SLPC  H16S 5906   3.992   4.566   9.441 -1.3784  0.0313  0.5154
   69SLPC  C217 5907   3.798   4.476   9.492  0.5011  0.8298 -0.0156
   69SLPC  H17R 5908   3.803   4.494   9.602 -0.3434 -2.3263  0.6209
   69SLPC  H17S 5909   3.746   4.380   9.472 -0.2224  1.6623 -2.4253
   69SLPC  C218 5910   3.718   4.593   9.436  0.6748 -0.0149  0.7977
   69SLPC  H18R 5911   3.700   4.570   9.329  3.5886  1.6522 -0.1700
   69SLPC  H18S 5912   3.775   4.689   9.442  2.2583 -0.8085 -0.7644
   69SLPC  H18T 5913   3.615   4.606   9.475  0.4507 -2.1180  1.0158
   69SLPC   C33 5914   4.141   3.529  10.194 -0.4121  0.1698  0.5363
   69SLPC   H3X 5915   4.247   3.562  10.188 -0.4493  0.1366 -0.4021
   69SLPC   H3Y 5916   4.084   3.625  10.201  1.0724  1.1276 -0.0772
   69SLPC   C34 5917   4.098   3.452  10.067 -1.0208 -0.0604  0.3570
   69SLPC   H4X 5918   3.987   3.454  10.070 -1.1477 -0.0872 -2.0615
   69SLPC   H4Y 5919   4.128   3.345  10.071 -0.3314  0.1274  0.4555
   69SLPC   C35 5920   4.136   3.525   9.933  0.2480 -0.1290 -0.4128
   69SLPC   H5X 5921   4.245   3.511   9.916  0.1982 -2.4052  0.7139
   69SLPC   H5Y 5922   4.110   3.631   9.957 -0.6027  0.4725 -3.6195
   69SLPC   C36 5923   4.054   3.487   9.809 -0.2723  0.7331 -0.5745
   69SLPC   H6X 5924   3.946   3.508   9.823 -0.5118 -0.2343 -0.8318
   69SLPC   H6Y 5925   4.060   3.379   9.782 -1.0948  1.3649 -3.7271
   69SLPC   C37 5926   4.094   3.564   9.688  0.1392 -0.1203  0.9918
   69SLPC   H7X 5927   4.200   3.540   9.664  0.0605  0.2299  0.2809
   69SLPC   H7Y 5928   4.068   3.671   9.703  2.6618  0.7190 -0.1105
   69SLPC   C38 5929   4.013   3.521   9.560  0.0655 -0.3291  0.1779
   69SLPC   H8X 5930   3.904   3.513   9.577 -0.1916 -0.2650 -1.3108
   69SLPC   H8Y 5931   4.039   3.414   9.543  0.6536 -0.0464 -0.7487
   69SLPC   C39 5932   4.051   3.590   9.427  0.0314 -0.0614  0.6903
   69SLPC   H9X 5933   4.155   3.628   9.434  0.5936 -1.5995  1.0979
   69SLPC   H9Y 5934   3.987   3.674   9.392  2.8852  2.1662  0.4807
   69SLPC  C310 5935   4.059   3.505   9.295  0.3921 -0.0341 -0.2598
   69SLPC  H10X 5936   3.958   3.460   9.284  1.1876 -3.3396  3.5985
   69SLPC  H10Y 5937   4.126   3.417   9.298 -0.7021 -0.9152 -0.8692
   69SLPC  C311 5938   4.099   3.591   9.173 -1.0011  0.4082  0.7272
   69SLPC  H11X 5939   4.210   3.589   9.168 -0.9564  1.4328  1.0198
   69SLPC  H11Y 5940   4.062   3.695   9.184  1.3858  1.1852  2.2633
   69SLPC  C312 5941   4.051   3.547   9.035  0.1925 -0.2445 -0.5098
   69SLPC  H12X 5942   4.053   3.638   8.972  3.2067  1.0083  1.1438
   69SLPC  H12Y 5943   3.946   3.512   9.036  0.0914 -0.3243  3.5019
   69SLPC  C313 5944   4.140   3.442   8.972  0.0157  0.2877  0.7196
   69SLPC  H13X 5945   4.164   3.360   9.043 -1.1185 -2.6871 -2.1271
   69SLPC  H13Y 5946   4.231   3.504   8.957 -0.6795  1.1604  0.0070
   69SLPC  C314 5947   4.097   3.395   8.830  0.4084 -0.3924 -0.3188
   69SLPC  H14X 5948   4.176   3.325   8.795  0.9077  0.9873 -2.1039
   69SLPC  H14Y 5949   4.084   3.484   8.765 -1.5020 -1.4649 -1.4908
   69SLPC  C315 5950   3.969   3.313   8.834  0.2909  0.9051 -0.3136
   69SLPC  H15X 5951   3.893   3.359   8.900  0.6587  2.8687 -1.1708
   69SLPC  H15Y 5952   3.992   3.215   8.882 -1.3730  0.2980 -0.6800
   69SLPC  C316 5953   3.906   3.266   8.699 -0.0050 -0.5208 -1.0731
   69SLPC  H16X 5954   3.876   3.358   8.646  1.9738  1.1355  0.5048
   69SLPC  H16Y 5955   3.809   3.215   8.718 -1.0765  1.6059 -0.5497
   69SLPC  C317 5956   3.997   3.183   8.610 -0.2471  0.4285  0.0068
   69SLPC  H17X 5957   4.024   3.088   8.662  0.3857  2.0842  2.9512
   69SLPC  H17Y 5958   4.099   3.225   8.605 -0.5924  1.1923 -0.9520
   69SLPC  C318 5959   3.941   3.156   8.465 -0.1016  0.3440  0.2577
   69SLPC  H18X 5960   3.989   3.068   8.418 -0.6919  1.1492 -2.0173
   69SLPC  H18Y 5961   3.959   3.248   8.405  0.6822 -0.4033 -0.6832
   69SLPC  H18Z 5962   3.834   3.132   8.483  0.0441  0.3200  1.1115
   70SLPC     N 5963   6.620   4.914  11.125  0.5124 -0.2682 -0.0325
   70SLPC   C13 5964   6.615   4.837  11.253  0.0191 -0.1817  0.4902
   70SLPC  H13A 5965   6.515   4.813  11.286 -0.7265  0.7926 -0.9819
   70SLPC  H13B 5966   6.668   4.744  11.240  0.6658  0.1820  0.4684
   70SLPC  H13C 5967   6.655   4.895  11.335 -0.1539  1.1485 -0.3425
   70SLPC   C14 5968   6.765   4.920  11.082 -0.5571  0.1448  0.7466
   70SLPC  H14A 5969   6.813   5.001  11.136 -0.1657  0.0012  0.6228
   70SLPC  H14B 5970   6.824   4.834  11.109 -1.0932 -0.4974 -0.1011
   70SLPC  H14C 5971   6.770   4.942  10.977  0.3778  2.3072  1.1851
   70SLPC   C15 5972   6.566   5.053  11.139  0.3909  0.6120 -0.1653
   70SLPC  H15A 5973   6.606   5.090  11.232 -1.0765 -0.3910  0.9142
   70SLPC  H15B 5974   6.592   5.103  11.047 -0.2204 -0.2117 -0.8039
   70SLPC  H15C 5975   6.458   5.054  11.138  0.3122  0.6591  2.1332
   70SLPC   C12 5976   6.529   4.846  11.015 -0.0878  0.5128  0.4895
   70SLPC  H12A 5977   6.433   4.879  11.052  0.6990  0.1440  3.1046
   70SLPC  H12B 5978   6.539   4.740  11.030 -0.1558  0.4128 -0.1753
   70SLPC   C11 5979   6.553   4.886  10.864 -0.2489 -0.3714 -0.3233
   70SLPC  H11A 5980   6.498   4.813  10.801 -0.2010  0.8140 -1.7880
   70SLPC  H11B 5981   6.661   4.867  10.848  0.2386 -1.9771  3.6491
   70SLPC     P 5982   6.380   5.074  10.802  0.1782 -0.1823 -0.2617
   70SLPC   O13 5983   6.299   4.963  10.749 -0.1354 -0.5287  0.0146
   70SLPC   O14 5984   6.315   5.137  10.921 -0.2336 -0.4853 -0.3816
   70SLPC   O12 5985   6.522   5.020  10.837  0.2339  0.3006  0.0959
   70SLPC   O11 5986   6.398   5.185  10.689  0.0355 -0.3093 -0.1702
   70SLPC    C1 5987   6.512   5.202  10.599  0.3392 -0.0374 -0.0459
   70SLPC    HA 5988   6.549   5.306  10.586 -4.2372  1.4783 -4.2503
   70SLPC    HB 5989   6.589   5.124  10.617 -0.9165 -1.2715  0.1578
   70SLPC    C2 5990   6.469   5.171  10.455 -0.7811 -0.2988  0.7439
   70SLPC    HS 5991   6.391   5.239  10.415 -1.3022 -1.5715 -0.4835
   70SLPC   O21 5992   6.426   5.035  10.444  0.1455 -0.8308 -0.4134
   70SLPC   C21 5993   6.344   5.005  10.348  0.2621 -0.0305 -0.4302
   70SLPC   O22 5994   6.321   5.079  10.253  0.5042  0.7063  0.2486
   70SLPC   C22 5995   6.281   4.866  10.373 -0.4798 -0.2839  0.4745
   70SLPC   H2R 5996   6.283   4.853  10.483 -0.6722  2.3263  0.8558
   70SLPC   H2S 5997   6.179   4.887  10.335 -0.6207 -0.0210  0.9925
   70SLPC    C3 5998   6.593   5.183  10.354  0.1840 -0.3194  0.2897
   70SLPC    HX 5999   6.555   5.176  10.250 -0.4277 -0.0110  0.4845
   70SLPC    HY 6000   6.658   5.096  10.374 -0.1050 -0.6527 -0.1855
   70SLPC   O31 6001   6.654   5.315  10.364  0.3419 -0.0892  0.3692
   70SLPC   C31 6002   6.780   5.322  10.331 -0.6120  0.0338 -0.3326
   70SLPC   O32 6003   6.844   5.230  10.278  0.5526  0.2697 -0.1910
   70SLPC   C32 6004   6.832   5.458  10.382 -0.1990 -0.9765  0.2982
   70SLPC   H2X 6005   6.939   5.468  10.353 -0.0749  3.3760  1.4883
   70SLPC   H2Y 6006   6.826   5.454  10.493 -0.3955  0.2343  0.3391
   70SLPC   C23 6007   6.361   4.765  10.296  0.4293 -0.4591  0.5023
   70SLPC   H3R 6008   6.353   4.666  10.347  0.8511  0.3496  2.1982
   70SLPC   H3S 6009   6.470   4.785  10.302  0.3076 -0.0565  1.7749
   70SLPC   C24 6010   6.323   4.745  10.148 -0.1480  0.3550  0.2801
   70SLPC   H4R 6011   6.333   4.835  10.084 -1.6061 -1.4085 -2.6108
   70SLPC   H4S 6012   6.215   4.722  10.144 -0.0101 -0.6288  1.5757
   70SLPC   C25 6013   6.405   4.629  10.098 -0.5900  0.3492 -0.3086
   70SLPC   H5R 6014   6.393   4.541  10.164 -0.5040  0.9692  0.5382
   70SLPC   H5S 6015   6.512   4.660  10.100 -0.9637  1.6507  1.3855
   70SLPC   C26 6016   6.359   4.584   9.954 -0.3289  0.0324  0.2536
   70SLPC   H6R 6017   6.369   4.668   9.882 -1.0634 -0.1966 -0.1286
   70SLPC   H6S 6018   6.251   4.559   9.960 -1.3119  3.8551  1.5298
   70SLPC   C27 6019   6.451   4.466   9.900 -0.0031 -0.9662  0.5197
   70SLPC   H7R 6020   6.440   4.374   9.960 -2.0088 -1.4446 -0.4778
   70SLPC   H7S 6021   6.552   4.511   9.910  0.6791 -2.2218 -0.3882
   70SLPC   C28 6022   6.418   4.423   9.759  0.4693 -0.3822 -0.0358
   70SLPC   H8R 6023   6.307   4.420   9.758  0.4616 -0.9417  1.1103
   70SLPC   H8S 6024   6.463   4.321   9.756  1.4555  0.0392  0.0817
   70SLPC   C29 6025   6.465   4.509   9.638 -0.5387  0.2688 -0.4731
   70SLPC   H9R 6026   6.451   4.617   9.650  0.0533  0.0748  3.1897
   70SLPC  C210 6027   6.512   4.471   9.518  0.2963 -0.0277  0.5085
   70SLPC  H10R 6028   6.540   4.546   9.443 -1.2411  0.8701  0.8054
   70SLPC  C211 6029   6.542   4.331   9.468  0.0651 -0.1797 -0.1146
   70SLPC  H11R 6030   6.530   4.265   9.556 -1.1395 -0.1159 -0.2219
   70SLPC  H11S 6031   6.652   4.332   9.449  0.0170 -2.3512 -0.7241
   70SLPC  C212 6032   6.472   4.291   9.338  0.5341  0.4113  0.6247
   70SLPC  H12R 6033   6.367   4.264   9.352 -0.2458  2.1520 -1.3383
   70SLPC  C213 6034   6.529   4.287   9.212 -0.0057  0.1158 -0.0763
   70SLPC  H13R 6035   6.469   4.257   9.125 -1.6951  3.5571 -0.2506
   70SLPC  C214 6036   6.668   4.329   9.168 -1.0659  0.4819  0.1364
   70SLPC  H14R 6037   6.749   4.305   9.240 -0.6141  0.5854 -0.3282
   70SLPC  H14S 6038   6.678   4.439   9.158  0.8411  0.5374  1.8705
   70SLPC  C215 6039   6.708   4.245   9.042  0.8396  0.1914 -0.6767
   70SLPC  H15R 6040   6.677   4.140   9.061 -0.3337  0.7576  0.7270
   70SLPC  H15S 6041   6.818   4.239   9.026  0.7664 -4.3653 -0.7289
   70SLPC  C216 6042   6.647   4.291   8.914 -0.2418 -0.0791  0.0756
   70SLPC  H16R 6043   6.664   4.398   8.888 -2.4226  0.5099  0.8837
   70SLPC  H16S 6044   6.537   4.276   8.913 -0.5546  1.8739 -0.0386
   70SLPC  C217 6045   6.694   4.202   8.795  0.1025  0.9850  0.6786
   70SLPC  H17R 6046   6.637   4.110   8.817 -1.7115  2.8762  5.3256
   70SLPC  H17S 6047   6.803   4.182   8.807  0.3828  1.1935 -1.2639
   70SLPC  C218 6048   6.670   4.263   8.664  0.3614  0.8431  0.3141
   70SLPC  H18R 6049   6.736   4.350   8.641 -1.1068  1.8508 -0.2604
   70SLPC  H18S 6050   6.565   4.298   8.664 -0.7313 -2.1870 -0.2373
   70SLPC  H18T 6051   6.672   4.192   8.579 -2.4496  2.8083 -1.5794
   70SLPC   C33 6052   6.748   5.572  10.322  0.1835  0.1686 -0.2743
   70SLPC   H3X 6053   6.795   5.658  10.375 -1.5795  1.1432 -0.2010
   70SLPC   H3Y 6054   6.641   5.571  10.352 -0.5368  0.9292 -2.5925
   70SLPC   C34 6055   6.750   5.585  10.164  0.0071  0.7438 -0.3489
   70SLPC   H4X 6056   6.698   5.678  10.131 -0.6661  0.3084 -0.5301
   70SLPC   H4Y 6057   6.706   5.501  10.107  1.0782  0.9769 -1.5673
   70SLPC   C35 6058   6.894   5.590  10.106  0.4138 -0.9783 -0.2763
   70SLPC   H5X 6059   6.941   5.495  10.138  1.1872 -0.2247  0.9309
   70SLPC   H5Y 6060   6.946   5.674  10.156 -0.6078 -0.7824  0.4908
   70SLPC   C36 6061   6.901   5.609   9.954 -0.7560  1.0895  0.0483
   70SLPC   H6X 6062   7.011   5.620   9.941 -0.7895  0.6228 -0.7089
   70SLPC   H6Y 6063   6.852   5.705   9.927  2.0425  2.0910 -1.9763
   70SLPC   C37 6064   6.854   5.492   9.877  0.4994  0.3103  0.4050
   70SLPC   H7X 6065   6.746   5.475   9.896  0.6661 -0.8701  0.3780
   70SLPC   H7Y 6066   6.909   5.402   9.913 -2.1117 -1.7353 -0.3723
   70SLPC   C38 6067   6.861   5.509   9.722 -0.0060 -0.3305  0.0870
   70SLPC   H8X 6068   6.959   5.556   9.697 -1.2027  1.6892 -1.2022
   70SLPC   H8Y 6069   6.798   5.594   9.687  0.6606  0.0902 -0.0994
   70SLPC   C39 6070   6.852   5.382   9.647 -0.1931  0.0472 -0.5970
   70SLPC   H9X 6071   6.755   5.335   9.674  0.5559 -0.9107  0.4994
   70SLPC   H9Y 6072   6.925   5.307   9.684 -0.6041  0.3690  0.9165
   70SLPC  C310 6073   6.864   5.395   9.496 -0.2236 -0.1999 -0.6151
   70SLPC  H10X 6074   6.968   5.423   9.470 -0.7769  1.5416 -1.0442
   70SLPC  H10Y 6075   6.802   5.482   9.468  0.0740 -0.3042 -1.6165
   70SLPC  C311 6076   6.810   5.276   9.411  0.1435 -0.1807 -0.0304
   70SLPC  H11X 6077   6.714   5.240   9.455 -1.2656  2.5589 -0.6438
   70SLPC  H11Y 6078   6.887   5.196   9.424  2.6321  1.8311 -1.4630
   70SLPC  C312 6079   6.780   5.307   9.264  0.3171 -0.4386  0.5994
   70SLPC  H12X 6080   6.698   5.382   9.255 -0.0563 -0.8805  0.2621
   70SLPC  H12Y 6081   6.733   5.213   9.229 -1.1287 -0.0810  1.4986
   70SLPC  C313 6082   6.902   5.338   9.176  0.4572 -0.2504 -0.4168
   70SLPC  H13X 6083   6.975   5.395   9.238  1.4673 -2.4197  0.5153
   70SLPC  H13Y 6084   6.872   5.409   9.097 -0.7890  0.2700  0.5008
   70SLPC  C314 6085   6.972   5.221   9.107  0.4846 -0.0518 -0.0134
   70SLPC  H14X 6086   6.892   5.175   9.046  2.2637  0.5112 -2.9576
   70SLPC  H14Y 6087   7.015   5.143   9.174 -0.8925 -0.8142  0.0164
   70SLPC  C315 6088   7.076   5.260   9.004  0.2506 -0.2488  0.8686
   70SLPC  H15X 6089   7.170   5.275   9.063 -0.0132 -0.1878  1.2811
   70SLPC  H15Y 6090   7.043   5.350   8.947  1.4414 -0.6174 -0.4559
   70SLPC  C316 6091   7.105   5.156   8.898 -0.0118  0.2402 -0.4874
   70SLPC  H16X 6092   7.011   5.118   8.853 -0.3877  1.2565 -0.5860
   70SLPC  H16Y 6093   7.156   5.072   8.950 -0.2519  0.1020 -0.4751
   70SLPC  C317 6094   7.192   5.204   8.783  0.2672 -0.2006  0.2588
   70SLPC  H17X 6095   7.265   5.277   8.823 -1.6353  2.4625 -0.8750
   70SLPC  H17Y 6096   7.119   5.243   8.709 -0.7555 -1.7406  0.4039
   70SLPC  C318 6097   7.261   5.087   8.708 -0.4747  0.1140 -0.0893
   70SLPC  H18X 6098   7.287   5.122   8.606 -0.5474 -0.7337 -0.4072
   70SLPC  H18Y 6099   7.194   4.998   8.700 -0.9887  0.2422  2.0943
   70SLPC  H18Z 6100   7.339   5.057   8.781  0.7658  2.0410 -0.5624
   71SLPC     N 6101   1.497   0.897  10.990 -0.3520  0.5814  0.5052
   71SLPC   C13 6102   1.413   0.817  11.090  0.1739  0.6327 -0.1621
   71SLPC  H13A 6103   1.461   0.727  11.125  0.1870  0.3684 -0.8249
   71SLPC  H13B 6104   1.392   0.874  11.179  2.8241 -0.3685  1.2125
   71SLPC  H13C 6105   1.322   0.784  11.042  0.6933  1.0071 -1.4639
   71SLPC   C14 6106   1.599   0.800  10.932 -0.4742  1.0040  0.6062
   71SLPC  H14A 6107   1.540   0.720  10.888 -0.0642  0.6582  0.6791
   71SLPC  H14B 6108   1.652   0.840  10.846 -1.0716 -0.7399 -0.6414
   71SLPC  H14C 6109   1.668   0.768  11.008  0.7235 -4.7238 -2.2609
   71SLPC   C15 6110   1.578   0.999  11.057  0.1619 -0.2101 -0.1680
   71SLPC  H15A 6111   1.630   1.068  10.992 -1.0813  0.9585  0.0395
   71SLPC  H15B 6112   1.516   1.065  11.117 -0.4011 -1.3750  0.5642
   71SLPC  H15C 6113   1.653   0.958  11.123 -1.1961 -0.1874  1.4533
   71SLPC   C12 6114   1.404   0.959  10.890 -0.1074  0.2077  0.2690
   71SLPC  H12A 6115   1.353   1.047  10.927 -2.4351 -0.8368 -0.2783
   71SLPC  H12B 6116   1.326   0.886  10.874  1.5397 -1.1521 -2.0530
   71SLPC   C11 6117   1.457   0.987  10.746  0.5833 -0.4858  0.1715
   71SLPC  H11A 6118   1.365   1.011  10.688  1.3139  1.9791 -0.0837
   71SLPC  H11B 6119   1.503   0.899  10.697 -0.1868 -0.5877 -0.3803
   71SLPC     P 6120   1.489   1.252  10.750 -0.0415 -0.2889 -0.1995
   71SLPC   O13 6121   1.354   1.249  10.805  0.3761  0.1141  0.0345
   71SLPC   O14 6122   1.582   1.347  10.819  0.1132 -0.0477 -0.5619
   71SLPC   O12 6123   1.550   1.104  10.741 -0.3518  0.5603  0.8740
   71SLPC   O11 6124   1.475   1.284  10.594  0.2786  0.4351  0.0308
   71SLPC    C1 6125   1.487   1.186  10.488 -1.0432 -0.3670  0.2170
   71SLPC    HA 6126   1.553   1.099  10.509  0.5344  0.9559  0.9651
   71SLPC    HB 6127   1.383   1.166  10.455 -1.9884  2.0607  1.4565
   71SLPC    C2 6128   1.556   1.255  10.362  0.1576 -0.0425  0.0197
   71SLPC    HS 6129   1.584   1.167  10.300  2.2983 -1.2234  2.4219
   71SLPC   O21 6130   1.678   1.334  10.390  0.3445 -0.0750  0.6566
   71SLPC   C21 6131   1.781   1.270  10.430 -0.3932 -0.0604  0.0128
   71SLPC   O22 6132   1.785   1.151  10.449 -0.1134  0.0287  0.2918
   71SLPC   C22 6133   1.896   1.377  10.431 -0.4476 -0.4735  0.4146
   71SLPC   H2R 6134   1.887   1.433  10.336  1.4705 -1.3135 -0.3104
   71SLPC   H2S 6135   1.882   1.451  10.513  1.0981  0.7379 -0.3727
   71SLPC    C3 6136   1.457   1.343  10.287 -0.0998  0.3824 -0.0224
   71SLPC    HX 6137   1.458   1.439  10.342 -0.1507 -0.2828  1.1557
   71SLPC    HY 6138   1.361   1.289  10.296  0.3734 -0.3517  0.7339
   71SLPC   O31 6139   1.488   1.371  10.148  0.2974  0.2431  0.5835
   71SLPC   C31 6140   1.455   1.269  10.057 -0.5700 -0.3312 -0.1284
   71SLPC   O32 6141   1.392   1.171  10.083 -0.3753  0.4834  0.1997
   71SLPC   C32 6142   1.512   1.307   9.920 -0.0689 -0.4222  0.4541
   71SLPC   H2X 6143   1.619   1.335   9.920 -0.4430  1.1022  0.1991
   71SLPC   H2Y 6144   1.450   1.391   9.881  1.9489  0.2816 -1.4096
   71SLPC   C23 6145   2.034   1.317  10.434 -0.0751  0.0544 -0.0002
   71SLPC   H3R 6146   2.061   1.245  10.513 -0.1995 -3.1977 -2.7005
   71SLPC   H3S 6147   2.111   1.394  10.454  1.2157 -2.0272  4.0386
   71SLPC   C24 6148   2.067   1.233  10.301 -0.2439  0.4092  0.4431
   71SLPC   H4R 6149   2.007   1.142  10.319  1.9477 -1.3065 -0.4189
   71SLPC   H4S 6150   2.177   1.219  10.313  0.4641  2.7575 -2.0423
   71SLPC   C25 6151   2.029   1.291  10.161 -1.3704  0.1679  0.0594
   71SLPC   H5R 6152   2.069   1.393  10.146  1.3890 -0.8679 -0.2693
   71SLPC   H5S 6153   1.918   1.295  10.161 -1.3659  0.2873 -0.4827
   71SLPC   C26 6154   2.067   1.205  10.037 -0.1738  0.5334  0.0848
   71SLPC   H6R 6155   1.990   1.233   9.962 -1.2628 -1.0645  0.5578
   71SLPC   H6S 6156   2.060   1.095  10.052  2.0265  0.2081 -0.8512
   71SLPC   C27 6157   2.191   1.251   9.969  0.1021 -0.2064  0.0382
   71SLPC   H7R 6158   2.273   1.203  10.027 -1.2056  2.0283  4.1485
   71SLPC   H7S 6159   2.211   1.360   9.976 -1.2993 -0.0145  3.2778
   71SLPC   C28 6160   2.194   1.201   9.828 -0.4401  0.4151  0.6290
   71SLPC   H8R 6161   2.133   1.108   9.830 -0.2937  0.3297  1.6297
   71SLPC   H8S 6162   2.300   1.190   9.796  0.0059 -0.4243  2.3012
   71SLPC   C29 6163   2.121   1.306   9.742  0.3761  0.0392 -0.3887
   71SLPC   H9R 6164   2.052   1.374   9.793  1.7414  2.9213 -2.1326
   71SLPC  C210 6165   2.135   1.324   9.610 -0.5055 -0.3578  0.1529
   71SLPC  H10R 6166   2.075   1.400   9.558 -1.4582 -0.4474  1.1047
   71SLPC  C211 6167   2.222   1.244   9.521 -0.4898  0.2395 -0.0382
   71SLPC  H11R 6168   2.260   1.157   9.579  1.0960  2.4393  2.4673
   71SLPC  H11S 6169   2.316   1.301   9.502 -1.3099  1.4071 -0.7089
   71SLPC  C212 6170   2.175   1.207   9.384  0.4672  0.5939  0.6975
   71SLPC  H12R 6171   2.066   1.199   9.368  0.5802  2.8766 -2.0196
   71SLPC  C213 6172   2.247   1.184   9.268  0.2890  0.5949 -0.4092
   71SLPC  H13R 6173   2.189   1.161   9.177 -0.4468 -0.8741  0.3922
   71SLPC  C214 6174   2.394   1.192   9.249 -0.0425 -0.6788  0.4015
   71SLPC  H14R 6175   2.432   1.090   9.225 -0.4307 -0.7661  0.1452
   71SLPC  H14S 6176   2.451   1.218   9.340  0.9953 -1.3574 -0.0352
   71SLPC  C215 6177   2.447   1.280   9.134  0.8656  0.1079 -0.1845
   71SLPC  H15R 6178   2.556   1.265   9.148  0.3544 -0.7437  4.2144
   71SLPC  H15S 6179   2.428   1.387   9.155 -0.0732  0.0173 -0.5018
   71SLPC  C216 6180   2.407   1.237   8.990  0.3605 -0.2155  0.0624
   71SLPC  H16R 6181   2.301   1.267   8.978  0.7992  0.8504 -1.4272
   71SLPC  H16S 6182   2.429   1.128   8.985  4.5842  0.5290 -1.1724
   71SLPC  C217 6183   2.489   1.308   8.884 -0.2971 -0.0121  0.0154
   71SLPC  H17R 6184   2.594   1.321   8.917 -0.0735 -0.4584 -0.5128
   71SLPC  H17S 6185   2.468   1.417   8.879 -0.2041 -0.0067 -0.2612
   71SLPC  C218 6186   2.480   1.265   8.738 -0.1912  0.3754 -0.1227
   71SLPC  H18R 6187   2.512   1.160   8.716  2.1850  1.5821 -3.1296
   71SLPC  H18S 6188   2.545   1.321   8.668  0.3383 -0.8598 -0.6639
   71SLPC  H18T 6189   2.376   1.276   8.701 -0.5786  3.0548  1.4902
   71SLPC   C33 6190   1.472   1.205   9.805 -0.4876 -0.1927 -0.5052
   71SLPC   H3X 6191   1.364   1.180   9.801 -0.6908 -0.2811  2.6973
   71SLPC   H3Y 6192   1.523   1.111   9.836 -0.2117  0.5673  1.5189
   71SLPC   C34 6193   1.523   1.261   9.669  0.0939 -0.1544  0.2374
   71SLPC   H4X 6194   1.632   1.272   9.687 -0.2702  2.8146  1.1481
   71SLPC   H4Y 6195   1.484   1.365   9.664 -1.0499 -0.5082  1.4262
   71SLPC   C35 6196   1.482   1.184   9.547 -0.3204  0.0229  0.0253
   71SLPC   H5X 6197   1.371   1.177   9.540 -0.3658 -0.2477  0.8941
   71SLPC   H5Y 6198   1.505   1.080   9.579 -1.9248  0.3235  2.4050
   71SLPC   C36 6199   1.545   1.222   9.417  0.4261 -0.7292  0.5584
   71SLPC   H6X 6200   1.656   1.224   9.420  0.5168 -1.2662 -1.2474
   71SLPC   H6Y 6201   1.518   1.329   9.400 -1.7963 -1.4540 -0.9014
   71SLPC   C37 6202   1.499   1.134   9.301 -0.1147  0.2363  0.4328
   71SLPC   H7X 6203   1.392   1.165   9.302  0.2100  1.4070  1.7808
   71SLPC   H7Y 6204   1.509   1.027   9.329  1.5054 -0.1964 -1.5614
   71SLPC   C38 6205   1.556   1.182   9.162  1.0471 -0.0061 -0.4949
   71SLPC   H8X 6206   1.665   1.197   9.179  0.3807  3.0112  1.8531
   71SLPC   H8Y 6207   1.519   1.284   9.143 -2.1249 -1.1833 -1.2857
   71SLPC   C39 6208   1.527   1.097   9.038  0.1804 -0.0864  0.8045
   71SLPC   H9X 6209   1.569   0.996   9.059 -0.2390 -0.5954 -0.6714
   71SLPC   H9Y 6210   1.580   1.141   8.951 -1.6211 -0.2722 -0.4383
   71SLPC  C310 6211   1.377   1.077   8.999  0.3770 -0.7125 -0.0363
   71SLPC  H10X 6212   1.335   1.173   8.962 -0.7938 -1.1458  0.1286
   71SLPC  H10Y 6213   1.322   1.049   9.091  2.5815 -0.2292  1.5149
   71SLPC  C311 6214   1.358   0.983   8.882  0.9383 -0.4513  0.3648
   71SLPC  H11X 6215   1.390   0.881   8.912 -0.7986 -1.9955 -2.5776
   71SLPC  H11Y 6216   1.413   1.015   8.791 -3.3957  0.4116 -2.2462
   71SLPC  C312 6217   1.205   0.953   8.840 -0.7758 -0.3094  1.4861
   71SLPC  H12X 6218   1.160   0.935   8.940 -2.3254  0.1285  0.9041
   71SLPC  H12Y 6219   1.195   0.868   8.768  2.1649  0.0977  0.4405
   71SLPC  C313 6220   1.118   1.069   8.789 -0.1953  0.0379  0.4729
   71SLPC  H13X 6221   1.109   1.143   8.871  0.6319  0.6952 -0.0126
   71SLPC  H13Y 6222   1.016   1.033   8.765  0.1718  0.8508 -2.7923
   71SLPC  C314 6223   1.181   1.136   8.662 -0.0143  0.2960 -0.4021
   71SLPC  H14X 6224   1.212   1.057   8.590 -1.0030  2.8281 -3.8502
   71SLPC  H14Y 6225   1.267   1.203   8.681  0.1652 -0.5819  2.3524
   71SLPC  C315 6226   1.080   1.224   8.583  0.2386  0.5946  0.5627
   71SLPC  H15X 6227   1.077   1.316   8.645  1.6238 -1.3880  3.8600
   71SLPC  H15Y 6228   0.978   1.182   8.573  1.0877 -1.4749  0.0929
   71SLPC  C316 6229   1.132   1.267   8.445 -0.6661 -0.2242  0.1643
   71SLPC  H16X 6230   1.229   1.322   8.441 -0.3130 -0.8718 -0.2587
   71SLPC  H16Y 6231   1.055   1.336   8.405 -1.3072 -0.3849  1.0996
   71SLPC  C317 6232   1.147   1.150   8.344 -0.6716 -0.3647  0.2725
   71SLPC  H17X 6233   1.053   1.091   8.357 -0.9889 -0.1122 -0.7920
   71SLPC  H17Y 6234   1.239   1.091   8.362 -1.0421 -0.6804  1.2407
   71SLPC  C318 6235   1.170   1.213   8.206 -0.5786 -0.4267  0.2259
   71SLPC  H18X 6236   1.091   1.278   8.163  0.2511  1.2090  1.0897
   71SLPC  H18Y 6237   1.188   1.133   8.130 -1.5109 -0.0141 -0.4528
   71SLPC  H18Z 6238   1.263   1.273   8.213  0.2871 -1.5924 -0.8040
   72SLPC     N 6239   5.461   3.874  11.263  0.1504  0.6524 -0.2306
   72SLPC   C13 6240   5.581   3.890  11.179 -0.8848 -0.1887 -0.4167
   72SLPC  H13A 6241   5.600   3.796  11.129  0.7823 -1.5613  2.5359
   72SLPC  H13B 6242   5.596   3.968  11.106  1.3078 -2.0915 -2.1778
   72SLPC  H13C 6243   5.665   3.894  11.247 -1.4276  2.9660  0.2214
   72SLPC   C14 6244   5.446   4.006  11.341 -1.0259  0.6658 -0.1844
   72SLPC  H14A 6245   5.443   4.090  11.274 -0.4423  1.8637  1.2489
   72SLPC  H14B 6246   5.355   4.005  11.400 -0.9502  0.3345 -0.0652
   72SLPC  H14C 6247   5.534   4.017  11.402 -1.3036  0.7060  0.2149
   72SLPC   C15 6248   5.480   3.761  11.356 -0.0152  0.3436 -0.2637
   72SLPC  H15A 6249   5.462   3.663  11.314 -3.3444 -0.3112  2.1847
   72SLPC  H15B 6250   5.580   3.760  11.396 -0.2983 -1.4962  0.5214
   72SLPC  H15C 6251   5.407   3.756  11.436  0.8996  1.7765  0.6901
   72SLPC   C12 6252   5.333   3.857  11.175  0.1763 -0.4003  0.5589
   72SLPC  H12A 6253   5.330   3.946  11.114  2.7617 -0.6342 -0.0685
   72SLPC  H12B 6254   5.251   3.849  11.244 -0.7693 -2.5705 -0.6962
   72SLPC   C11 6255   5.327   3.731  11.083 -0.9625  0.6025  0.2452
   72SLPC  H11A 6256   5.234   3.709  11.027 -0.3778  2.4996 -1.5928
   72SLPC  H11B 6257   5.329   3.645  11.153  0.2967  0.3486 -0.0759
   72SLPC     P 6258   5.458   3.816  10.857  0.2518  0.0942 -0.1025
   72SLPC   O13 6259   5.443   3.954  10.893 -0.3627 -0.1228  0.0222
   72SLPC   O14 6260   5.585   3.771  10.791 -0.1181 -0.1212  0.0750
   72SLPC   O12 6261   5.445   3.726  10.994  0.1836  0.2109  0.2863
   72SLPC   O11 6262   5.342   3.777  10.763  0.5996  0.1739 -0.0754
   72SLPC    C1 6263   5.292   3.638  10.755 -0.3974 -0.4429  0.3390
   72SLPC    HA 6264   5.280   3.595  10.857 -4.6524 -2.2227 -0.7094
   72SLPC    HB 6265   5.189   3.644  10.715  0.0637 -0.5361 -0.9135
   72SLPC    C2 6266   5.380   3.547  10.666  0.0962 -0.4530 -0.7058
   72SLPC    HS 6267   5.488   3.566  10.680 -0.2768  0.9813  0.4387
   72SLPC   O21 6268   5.332   3.559  10.534 -0.0880  0.6994 -0.4227
   72SLPC   C21 6269   5.406   3.623  10.452  0.8954 -0.8143  0.9072
   72SLPC   O22 6270   5.519   3.662  10.473  0.3923 -0.3219  0.7750
   72SLPC   C22 6271   5.310   3.667  10.339  0.0086  0.5554 -0.3107
   72SLPC   H2R 6272   5.271   3.573  10.294 -0.3923  0.1459  0.8677
   72SLPC   H2S 6273   5.224   3.728  10.374 -0.8280 -1.7194  1.9060
   72SLPC    C3 6274   5.347   3.399  10.709  0.2179  0.5085 -0.0125
   72SLPC    HX 6275   5.236   3.392  10.703  0.2388 -0.0441  0.1675
   72SLPC    HY 6276   5.381   3.379  10.813  2.2064 -0.2215 -0.7522
   72SLPC   O31 6277   5.397   3.305  10.614 -0.4967 -0.0248 -0.0092
   72SLPC   C31 6278   5.529   3.277  10.626  0.3243 -0.0356  0.7533
   72SLPC   O32 6279   5.596   3.315  10.718  0.2650  0.0459 -0.0586
   72SLPC   C32 6280   5.569   3.193  10.504  0.5425  0.0821 -0.2461
   72SLPC   H2X 6281   5.490   3.200  10.427  2.3466  0.4276 -2.1583
   72SLPC   H2Y 6282   5.563   3.094  10.555 -2.0891  0.9788  1.4071
   72SLPC   C23 6283   5.391   3.740  10.230 -0.6351 -0.1608 -0.2694
   72SLPC   H3R 6284   5.480   3.680  10.203 -0.5350 -0.3899  0.5440
   72SLPC   H3S 6285   5.427   3.840  10.261 -1.9155  0.6413 -1.2457
   72SLPC   C24 6286   5.311   3.759  10.095 -0.5321  0.1652 -0.1599
   72SLPC   H4R 6287   5.365   3.826  10.025  1.0726 -0.3753  0.5105
   72SLPC   H4S 6288   5.211   3.802  10.116 -1.4989 -2.4682  1.1084
   72SLPC   C25 6289   5.290   3.621  10.010 -0.2317  0.5937  0.2574
   72SLPC   H5R 6290   5.272   3.530  10.071 -1.3596  0.6880  0.0940
   72SLPC   H5S 6291   5.384   3.594   9.957 -0.0049  0.2853  0.8118
   72SLPC   C26 6292   5.182   3.630   9.900  1.0300 -0.0182  0.2318
   72SLPC   H6R 6293   5.175   3.731   9.853 -0.6683 -0.6420 -0.9751
   72SLPC   H6S 6294   5.086   3.609   9.952  0.0647  3.6222  0.2470
   72SLPC   C27 6295   5.227   3.542   9.780 -0.1298  0.0208 -1.1292
   72SLPC   H7R 6296   5.256   3.444   9.824 -0.0021 -0.3172 -1.9423
   72SLPC   H7S 6297   5.298   3.588   9.708  0.6438  1.2780  0.3680
   72SLPC   C28 6298   5.104   3.515   9.702  0.3044  0.4938 -0.2616
   72SLPC   H8R 6299   5.066   3.616   9.674  0.4254  0.5895 -0.0817
   72SLPC   H8S 6300   5.030   3.461   9.765  0.5608 -1.5018 -1.5586
   72SLPC   C29 6301   5.135   3.424   9.592 -0.5300 -0.2106 -0.4184
   72SLPC   H9R 6302   5.155   3.319   9.618 -0.0562 -0.2391 -0.8855
   72SLPC  C210 6303   5.164   3.456   9.468  0.4115 -0.6257 -0.0246
   72SLPC  H10R 6304   5.183   3.373   9.397  0.3785  2.1229 -3.5563
   72SLPC  C211 6305   5.154   3.591   9.405 -0.2926  0.6786 -0.4697
   72SLPC  H11R 6306   5.220   3.657   9.465 -0.3478  0.6552 -0.3829
   72SLPC  H11S 6307   5.049   3.627   9.415 -0.9117 -1.1617  0.2768
   72SLPC  C212 6308   5.200   3.598   9.262 -0.0830 -0.3888  0.1467
   72SLPC  H12R 6309   5.302   3.634   9.243  0.2217 -1.2928  0.0118
   72SLPC  C213 6310   5.122   3.576   9.160  0.1287  0.1991 -0.1942
   72SLPC  H13R 6311   5.163   3.590   9.059 -0.2335 -0.5989 -0.4567
   72SLPC  C214 6312   4.973   3.542   9.159 -0.4262 -0.0113  0.1981
   72SLPC  H14R 6313   4.924   3.588   9.247 -0.8254  1.0968 -0.5969
   72SLPC  H14S 6314   4.973   3.432   9.174 -2.3753  0.0409  0.8006
   72SLPC  C215 6315   4.905   3.572   9.020 -0.4633  0.3810 -0.4528
   72SLPC  H15R 6316   4.916   3.673   8.975  1.0464  0.5708  0.2668
   72SLPC  H15S 6317   4.801   3.545   9.046  0.2538 -2.5916 -0.3229
   72SLPC  C216 6318   4.951   3.477   8.908 -0.5182  0.1681  0.3254
   72SLPC  H16R 6319   4.950   3.371   8.942  3.1619  0.3716  1.5243
   72SLPC  H16S 6320   5.058   3.496   8.882 -0.0174 -0.5942  1.6938
   72SLPC  C217 6321   4.873   3.499   8.778 -0.0278 -0.2151  0.2546
   72SLPC  H17R 6322   4.768   3.467   8.795  0.0724 -1.1812 -0.8103
   72SLPC  H17S 6323   4.906   3.422   8.705  1.5209  0.0692  0.6105
   72SLPC  C218 6324   4.880   3.640   8.720  0.5505 -0.3988 -0.1809
   72SLPC  H18R 6325   4.823   3.648   8.625  0.1976  1.0695  0.1188
   72SLPC  H18S 6326   4.986   3.672   8.706 -0.1201  1.1845 -2.2366
   72SLPC  H18T 6327   4.841   3.713   8.794 -0.1355 -0.8553 -0.0860
   72SLPC   C33 6328   5.705   3.219  10.446 -1.4755 -0.1217  0.8829
   72SLPC   H3X 6329   5.733   3.131  10.385 -1.8987 -0.8800  1.7505
   72SLPC   H3Y 6330   5.782   3.227  10.526  0.0794  0.1743 -0.5842
   72SLPC   C34 6331   5.728   3.355  10.371 -0.1486 -0.2038 -0.0979
   72SLPC   H4X 6332   5.834   3.361  10.339 -0.8029  1.1879 -2.2289
   72SLPC   H4Y 6333   5.722   3.434  10.450  1.2078 -1.2680  1.1247
   72SLPC   C35 6334   5.631   3.380  10.255  0.0696  0.3197  0.2893
   72SLPC   H5X 6335   5.649   3.485  10.225 -0.3941  0.8585  1.8093
   72SLPC   H5Y 6336   5.523   3.377  10.281 -0.1595 -1.5848 -0.6667
   72SLPC   C36 6337   5.663   3.296  10.130  0.5740 -0.1359 -0.0741
   72SLPC   H6X 6338   5.672   3.192  10.167 -1.7973  0.5804  2.9791
   72SLPC   H6Y 6339   5.752   3.333  10.075  0.3213  0.0024 -0.3890
   72SLPC   C37 6340   5.549   3.296  10.023 -0.0240 -0.1224 -0.7792
   72SLPC   H7X 6341   5.513   3.401  10.024  2.9830  1.0346  0.0149
   72SLPC   H7Y 6342   5.467   3.233  10.062  0.1049  0.5875  0.7143
   72SLPC   C38 6343   5.598   3.238   9.893 -0.0682 -0.2213  0.9979
   72SLPC   H8X 6344   5.641   3.138   9.915 -1.5018 -1.3810 -1.0973
   72SLPC   H8Y 6345   5.681   3.297   9.850 -1.6695  0.7549 -0.9410
   72SLPC   C39 6346   5.494   3.249   9.779 -0.1751  0.5772  0.1595
   72SLPC   H9X 6347   5.456   3.353   9.768 -1.0322  0.4688  1.8044
   72SLPC   H9Y 6348   5.413   3.175   9.794 -0.6036  1.0775  0.3635
   72SLPC  C310 6349   5.561   3.204   9.645 -0.2909 -0.3210 -0.4390
   72SLPC  H10X 6350   5.587   3.097   9.658 -1.1663 -0.3841  1.0567
   72SLPC  H10Y 6351   5.648   3.272   9.634 -0.0211 -0.2672  1.6532
   72SLPC  C311 6352   5.476   3.231   9.527 -0.0244 -0.2068 -0.1701
   72SLPC  H11X 6353   5.479   3.340   9.505  0.2127 -0.0448  0.6343
   72SLPC  H11Y 6354   5.369   3.218   9.556 -0.0733  0.5016 -0.0136
   72SLPC  C312 6355   5.504   3.135   9.413  0.7948  0.0657  0.1928
   72SLPC  H12X 6356   5.465   3.033   9.437  0.3097  0.1520 -0.2103
   72SLPC  H12Y 6357   5.614   3.126   9.401  0.9961 -0.6320  2.1096
   72SLPC  C313 6358   5.435   3.181   9.285  0.2455  0.4510 -0.0409
   72SLPC  H13X 6359   5.478   3.271   9.237  0.8849 -0.6672 -1.6406
   72SLPC  H13Y 6360   5.328   3.202   9.310  0.1977 -0.4739  0.5893
   72SLPC  C314 6361   5.419   3.065   9.183 -0.2507  0.1945 -0.2151
   72SLPC  H14X 6362   5.348   2.996   9.233 -1.4538  0.4505 -1.5238
   72SLPC  H14Y 6363   5.519   3.016   9.173 -0.8082 -1.2032  0.6903
   72SLPC  C315 6364   5.363   3.108   9.044  0.0751 -0.2259  0.3106
   72SLPC  H15X 6365   5.420   3.069   8.958 -0.3111  2.5591 -1.3418
   72SLPC  H15Y 6366   5.383   3.217   9.034  0.3341 -0.3203 -0.2053
   72SLPC  C316 6367   5.213   3.095   9.039  0.5244 -0.0808  0.1925
   72SLPC  H16X 6368   5.191   3.161   8.952  0.8454  1.5201  1.2841
   72SLPC  H16Y 6369   5.151   3.132   9.124 -0.7828 -0.5567 -0.5257
   72SLPC  C317 6370   5.179   2.946   9.009  1.0099 -0.3688  0.0186
   72SLPC  H17X 6371   5.210   2.879   9.092  0.3736  0.9395  1.3698
   72SLPC  H17Y 6372   5.235   2.936   8.914 -3.3742  1.2442 -3.0969
   72SLPC  C318 6373   5.024   2.929   8.980  0.1134 -0.9636 -0.4702
   72SLPC  H18X 6374   4.995   2.997   8.897 -0.6342 -1.3141 -0.5072
   72SLPC  H18Y 6375   4.972   2.951   9.076  1.0232  1.8163 -0.5440
   72SLPC  H18Z 6376   4.989   2.827   8.952 -2.2794 -0.4563  0.3524
   73SLPC     N 6377   4.757   0.162  10.764 -0.4340  0.3789  0.3843
   73SLPC   C13 6378   4.843   0.040  10.776  0.7625 -0.5241 -0.2784
   73SLPC  H13A 6379   4.797  -0.048  10.732  0.9733 -0.3471 -0.8540
   73SLPC  H13B 6380   4.940   0.050  10.730  0.3194  2.1316 -0.7853
   73SLPC  H13C 6381   4.862   0.025  10.881  0.6389 -0.0781 -0.1920
   73SLPC   C14 6382   4.844   0.286  10.777 -0.2647  0.5074 -0.0271
   73SLPC  H14A 6383   4.903   0.287  10.868 -1.1925  2.8432  0.6165
   73SLPC  H14B 6384   4.913   0.297  10.694 -0.7729  0.9219 -0.3998
   73SLPC  H14C 6385   4.779   0.370  10.763 -0.6370 -0.1215 -2.7394
   73SLPC   C15 6386   4.655   0.159  10.873  0.6737  0.4241 -0.3143
   73SLPC  H15A 6387   4.577   0.233  10.858 -0.4934 -0.7376 -0.1293
   73SLPC  H15B 6388   4.622   0.057  10.887  0.4552  0.0110 -3.1802
   73SLPC  H15C 6389   4.702   0.191  10.965  0.8717  0.2687 -0.3607
   73SLPC   C12 6390   4.688   0.162  10.633  0.2902  0.9676  0.6668
   73SLPC  H12A 6391   4.615   0.082  10.628 -0.1127  1.3906 -3.2407
   73SLPC  H12B 6392   4.764   0.144  10.559 -1.7861 -1.1675 -1.1366
   73SLPC   C11 6393   4.611   0.283  10.576  0.1985 -0.1882 -0.5276
   73SLPC  H11A 6394   4.521   0.310  10.636  0.1731  1.1685 -1.1325
   73SLPC  H11B 6395   4.558   0.251  10.485 -0.0594  0.4829 -0.6217
   73SLPC     P 6396   4.799   0.415  10.444  0.2898 -0.5984  0.3352
   73SLPC   O13 6397   4.905   0.489  10.514 -0.0423  0.1197  0.0653
   73SLPC   O14 6398   4.836   0.282  10.403  0.0897  0.5126  0.3187
   73SLPC   O12 6399   4.682   0.402  10.550  0.2260  0.0140 -0.0258
   73SLPC   O11 6400   4.740   0.503  10.324 -0.4999  0.0738 -0.1381
   73SLPC    C1 6401   4.621   0.483  10.258  0.3623  0.0341 -0.2967
   73SLPC    HA 6402   4.646   0.429  10.164  1.3068  0.7556 -0.4727
   73SLPC    HB 6403   4.553   0.413  10.312 -0.9699  1.4542 -0.0698
   73SLPC    C2 6404   4.548   0.619  10.229  0.3439 -0.6046  0.4231
   73SLPC    HS 6405   4.440   0.597  10.228  0.6301 -2.3544 -2.2205
   73SLPC   O21 6406   4.590   0.661  10.092  1.1126 -0.2355 -0.6257
   73SLPC   C21 6407   4.484   0.709  10.025  0.6078  0.4751 -0.3335
   73SLPC   O22 6408   4.369   0.721  10.060 -0.3500 -0.0788 -0.0334
   73SLPC   C22 6409   4.546   0.750   9.888  0.3828  0.5146  0.3015
   73SLPC   H2R 6410   4.592   0.849   9.908 -0.8689  1.3660 -0.8280
   73SLPC   H2S 6411   4.621   0.675   9.856  0.8698  0.6421  1.1039
   73SLPC    C3 6412   4.575   0.733  10.339  0.2754 -0.0342  0.2723
   73SLPC    HX 6413   4.683   0.759  10.336 -0.1262  1.6897 -0.3664
   73SLPC    HY 6414   4.544   0.684  10.434  1.3436 -3.0353 -0.7816
   73SLPC   O31 6415   4.488   0.844  10.308 -0.2467 -0.0620  0.8638
   73SLPC   C31 6416   4.521   0.961  10.363  0.1645  0.6481 -0.4192
   73SLPC   O32 6417   4.624   0.975  10.426  0.1384 -0.3696 -0.0043
   73SLPC   C32 6418   4.421   1.066  10.334  0.3316 -0.1256 -0.5450
   73SLPC   H2X 6419   4.397   1.132  10.420  1.0100 -0.9686  0.3249
   73SLPC   H2Y 6420   4.323   1.023  10.306  1.1338 -0.3547 -3.2910
   73SLPC   C23 6421   4.418   0.750   9.800  0.2673 -0.0058  0.2487
   73SLPC   H3R 6422   4.353   0.838   9.814  0.2058 -0.1807  1.1174
   73SLPC   H3S 6423   4.350   0.663   9.815 -2.8915  1.7814 -2.4405
   73SLPC   C24 6424   4.468   0.732   9.660  0.2539 -0.1079  0.3401
   73SLPC   H4R 6425   4.514   0.632   9.643 -2.3189 -0.9829 -2.4570
   73SLPC   H4S 6426   4.549   0.806   9.641  1.3536 -1.6741 -1.5262
   73SLPC   C25 6427   4.366   0.745   9.548 -0.6824  0.5624 -0.0172
   73SLPC   H5R 6428   4.301   0.832   9.571  0.3326  0.9831  1.3770
   73SLPC   H5S 6429   4.301   0.658   9.573 -1.2526  1.0948  0.3988
   73SLPC   C26 6430   4.414   0.743   9.404 -0.7938  0.5824  0.2557
   73SLPC   H6R 6431   4.330   0.735   9.333 -2.0335  0.7390  1.6667
   73SLPC   H6S 6432   4.487   0.663   9.378 -1.3281  1.2000 -3.6910
   73SLPC   C27 6433   4.488   0.883   9.371 -1.0135 -0.4149 -0.6025
   73SLPC   H7R 6434   4.569   0.904   9.444 -0.1392  0.5605 -1.8359
   73SLPC   H7S 6435   4.415   0.967   9.370 -0.4497  0.0821 -0.5788
   73SLPC   C28 6436   4.571   0.887   9.241  0.1121  0.0746  0.8684
   73SLPC   H8R 6437   4.502   0.899   9.154  1.5897  3.0916 -0.0537
   73SLPC   H8S 6438   4.627   0.792   9.231  0.4964  0.2156  1.5987
   73SLPC   C29 6439   4.664   0.997   9.228  0.1825 -0.8825 -0.3489
   73SLPC   H9R 6440   4.702   1.027   9.327 -2.5484 -1.4947  0.9773
   73SLPC  C210 6441   4.695   1.070   9.121 -0.5817 -0.5795 -0.4330
   73SLPC  H10R 6442   4.776   1.145   9.123  0.1471 -1.3063 -1.5974
   73SLPC  C211 6443   4.645   1.039   8.987  0.3909 -0.0618  0.6349
   73SLPC  H11R 6444   4.613   0.934   8.967  1.8982 -0.2946 -0.7684
   73SLPC  H11S 6445   4.732   1.056   8.921  0.8855 -0.6053  1.1319
   73SLPC  C212 6446   4.523   1.124   8.960  0.9825  0.1638  0.0970
   73SLPC  H12R 6447   4.447   1.102   9.037  0.7456 -1.0006 -0.4394
   73SLPC  C213 6448   4.500   1.221   8.865  0.0299 -0.1943 -0.5151
   73SLPC  H13R 6449   4.400   1.260   8.845  0.0738  0.5686  0.6551
   73SLPC  C214 6450   4.610   1.279   8.782 -0.2102  0.1554 -0.5418
   73SLPC  H14R 6451   4.710   1.251   8.821 -0.5122 -0.2464 -0.0313
   73SLPC  H14S 6452   4.612   1.390   8.776  1.6268  0.1477 -0.6179
   73SLPC  C215 6453   4.599   1.217   8.637 -0.0186 -0.3914  0.0140
   73SLPC  H15R 6454   4.502   1.233   8.585 -0.5899 -0.7660  0.9486
   73SLPC  H15S 6455   4.619   1.108   8.641  1.6897 -0.2089 -1.8375
   73SLPC  C216 6456   4.716   1.266   8.549 -0.7587 -0.1142 -1.0128
   73SLPC  H16R 6457   4.703   1.204   8.457 -2.2644  0.2271 -1.0548
   73SLPC  H16S 6458   4.812   1.248   8.601 -0.7804  0.9014 -0.6046
   73SLPC  C217 6459   4.723   1.407   8.495  0.6871 -0.5115 -0.0882
   73SLPC  H17R 6460   4.806   1.415   8.421 -0.5458  1.2903 -1.3617
   73SLPC  H17S 6461   4.758   1.483   8.568  0.5641  1.7232 -2.2582
   73SLPC  C218 6462   4.593   1.442   8.427 -0.6244 -0.6696  0.4470
   73SLPC  H18R 6463   4.507   1.447   8.496 -2.9994 -2.0154 -2.1839
   73SLPC  H18S 6464   4.559   1.362   8.358 -1.0719 -0.3737  0.3201
   73SLPC  H18T 6465   4.609   1.539   8.376 -0.1117 -0.6020  0.7308
   73SLPC   C33 6466   4.462   1.168  10.216 -0.0902  0.8848 -0.6106
   73SLPC   H3X 6467   4.565   1.200  10.242 -0.4421  1.1050  0.5563
   73SLPC   H3Y 6468   4.393   1.254  10.229  0.4317  1.3261 -0.7669
   73SLPC   C34 6469   4.459   1.105  10.078  0.1030 -0.1712  0.4683
   73SLPC   H4X 6470   4.355   1.067  10.068 -0.0892  0.6339 -0.8455
   73SLPC   H4Y 6471   4.535   1.024  10.079 -1.0896 -1.3075  1.1390
   73SLPC   C35 6472   4.494   1.223   9.980 -0.1943  0.1103 -0.3513
   73SLPC   H5X 6473   4.594   1.261  10.010  0.6628 -0.6099 -2.1433
   73SLPC   H5Y 6474   4.427   1.307  10.007  0.2132 -0.3946  2.6770
   73SLPC   C36 6475   4.489   1.184   9.831 -0.2554 -0.5380  0.8374
   73SLPC   H6X 6476   4.391   1.134   9.818 -1.0480  1.2947 -0.8540
   73SLPC   H6Y 6477   4.558   1.104   9.795 -0.2326  0.2335 -0.9703
   73SLPC   C37 6478   4.496   1.308   9.747 -0.3617 -0.2357  0.6503
   73SLPC   H7X 6479   4.583   1.375   9.765 -0.4802  0.7569 -2.0101
   73SLPC   H7Y 6480   4.404   1.368   9.764  0.0313  1.4098 -2.4102
   73SLPC   C38 6481   4.499   1.283   9.595 -1.4342 -0.0276 -1.0615
   73SLPC   H8X 6482   4.398   1.252   9.560 -1.6007  0.7459 -1.2781
   73SLPC   H8Y 6483   4.564   1.197   9.569 -1.4327 -0.5864  0.6514
   73SLPC   C39 6484   4.542   1.405   9.521 -0.3195 -0.6876 -0.2796
   73SLPC   H9X 6485   4.644   1.428   9.558 -0.0480  0.0454 -1.4297
   73SLPC   H9Y 6486   4.478   1.495   9.535  1.3498  0.7051 -1.3287
   73SLPC  C310 6487   4.556   1.395   9.372  0.3931  0.3252  0.8450
   73SLPC  H10X 6488   4.454   1.403   9.330  0.5026  0.7433  0.6564
   73SLPC  H10Y 6489   4.589   1.292   9.346 -0.5975  0.0974  0.4543
   73SLPC  C311 6490   4.658   1.495   9.309  0.3152 -0.2128 -0.2993
   73SLPC  H11X 6491   4.750   1.504   9.370 -0.3918  0.7626  0.6542
   73SLPC  H11Y 6492   4.609   1.594   9.318  1.2171  0.2767 -0.6578
   73SLPC  C312 6493   4.695   1.464   9.164 -0.2406 -0.5605 -0.5610
   73SLPC  H12X 6494   4.610   1.475   9.092  0.0901  0.9442 -0.7376
   73SLPC  H12Y 6495   4.724   1.357   9.157 -1.5697 -1.2329  2.4881
   73SLPC  C313 6496   4.805   1.556   9.120 -0.3501  0.0725 -0.4127
   73SLPC  H13X 6497   4.905   1.543   9.167 -0.1763 -2.9557 -1.4142
   73SLPC  H13Y 6498   4.792   1.666   9.125  0.7084  0.1563  2.3367
   73SLPC  C314 6499   4.834   1.523   8.972 -0.1032 -0.2160  0.0663
   73SLPC  H14X 6500   4.756   1.567   8.907 -0.8963 -3.3630 -1.3057
   73SLPC  H14Y 6501   4.843   1.413   8.960  0.7092 -0.1119 -0.3699
   73SLPC  C315 6502   4.973   1.588   8.939 -0.1062  0.3109 -0.2086
   73SLPC  H15X 6503   5.053   1.530   8.988 -0.6363  0.0104  0.3216
   73SLPC  H15Y 6504   4.970   1.695   8.969 -2.2602  0.5017 -0.8526
   73SLPC  C316 6505   5.008   1.569   8.796  0.2279  0.0203 -0.1374
   73SLPC  H16X 6506   4.974   1.467   8.768  1.3447 -0.2964 -0.3917
   73SLPC  H16Y 6507   5.119   1.579   8.794  0.5076 -2.3635 -3.2507
   73SLPC  C317 6508   4.952   1.662   8.689  0.1041 -0.2316  0.6641
   73SLPC  H17X 6509   4.843   1.672   8.705 -0.2118 -3.1301  0.9582
   73SLPC  H17Y 6510   4.961   1.615   8.588 -0.4115 -2.7222  1.6942
   73SLPC  C318 6511   5.022   1.799   8.676  0.3380 -0.2717 -0.1688
   73SLPC  H18X 6512   5.020   1.854   8.773 -0.5761  2.1245 -1.4812
   73SLPC  H18Y 6513   4.989   1.860   8.589 -3.5267 -1.3006  0.3641
   73SLPC  H18Z 6514   5.132   1.791   8.665  0.3404 -0.6026  0.0564
   74SLPC     N 6515   4.807   1.803  10.893  0.3371  0.2680 -0.1445
   74SLPC   C13 6516   4.778   1.938  10.937  0.4227 -0.2936 -0.4602
   74SLPC  H13A 6517   4.685   1.964  10.888  0.3337 -0.6606 -0.4885
   74SLPC  H13B 6518   4.776   1.951  11.044 -0.2567 -1.4822 -0.3086
   74SLPC  H13C 6519   4.854   2.001  10.893  1.0801  0.5976  1.8119
   74SLPC   C14 6520   4.704   1.710  10.958 -0.9041  0.2880  0.0720
   74SLPC  H14A 6521   4.740   1.708  11.060 -0.6175  1.5232  0.0148
   74SLPC  H14B 6522   4.605   1.748  10.939  0.2471  1.7727 -4.0994
   74SLPC  H14C 6523   4.719   1.611  10.919  2.3002  0.3825  0.7758
   74SLPC   C15 6524   4.941   1.777  10.940  0.6332  0.3056 -0.2647
   74SLPC  H15A 6525   4.967   1.672  10.937  0.1748  0.1620  0.5160
   74SLPC  H15B 6526   5.011   1.817  10.867 -0.6172  1.8541 -0.6731
   74SLPC  H15C 6527   4.957   1.806  11.043 -2.5032 -1.4626  0.8682
   74SLPC   C12 6528   4.800   1.791  10.745 -0.0251 -0.0453  0.1224
   74SLPC  H12A 6529   4.693   1.792  10.729 -0.6336  0.8047  3.4823
   74SLPC  H12B 6530   4.845   1.699  10.711 -0.6488 -0.1328 -0.5000
   74SLPC   C11 6531   4.857   1.910  10.665 -0.6930 -0.1394 -1.0910
   74SLPC  H11A 6532   4.800   2.003  10.686 -1.1428 -0.6179 -0.1030
   74SLPC  H11B 6533   4.849   1.884  10.558 -3.1281  1.4884 -1.3849
   74SLPC     P 6534   5.110   1.836  10.652 -0.3958 -0.1113 -0.2287
   74SLPC   O13 6535   5.236   1.895  10.698 -0.2627 -0.3498 -0.1040
   74SLPC   O14 6536   5.077   1.698  10.670  0.2847 -0.1801  0.0718
   74SLPC   O12 6537   4.994   1.928  10.692  0.0956  0.0323  0.0322
   74SLPC   O11 6538   5.116   1.859  10.500 -0.0309 -0.3556 -0.1123
   74SLPC    C1 6539   5.102   1.985  10.438 -0.5680 -0.1284 -0.0044
   74SLPC    HA 6540   5.076   2.059  10.516  0.5140 -0.3256  0.5620
   74SLPC    HB 6541   5.198   2.022  10.394  0.4785  1.2550  3.1657
   74SLPC    C2 6542   4.987   1.992  10.330 -0.1277 -0.8241 -0.1684
   74SLPC    HS 6543   4.901   1.922  10.335  0.1919 -1.2143 -0.0702
   74SLPC   O21 6544   5.049   1.989  10.197 -0.2082 -0.6239 -0.0646
   74SLPC   C21 6545   5.042   1.875  10.125  0.4088  0.5576  0.1258
   74SLPC   O22 6546   4.965   1.779  10.150  0.5863 -0.0636 -0.1227
   74SLPC   C22 6547   5.137   1.885  10.006 -0.0557  0.2750  0.0893
   74SLPC   H2R 6548   5.124   1.990   9.971 -1.7940 -0.4084 -1.4708
   74SLPC   H2S 6549   5.236   1.876  10.056 -0.1821 -0.5567  0.2063
   74SLPC    C3 6550   4.904   2.125  10.338 -0.2807  0.1769  0.4366
   74SLPC    HX 6551   4.966   2.208  10.299  1.3200 -0.6626  1.0633
   74SLPC    HY 6552   4.877   2.150  10.443 -1.4752 -0.7996  0.3840
   74SLPC   O31 6553   4.786   2.117  10.251  0.3589  0.2405 -0.2127
   74SLPC   C31 6554   4.676   2.062  10.307  0.1113  0.5453  0.4732
   74SLPC   O32 6555   4.666   2.014  10.416  0.4125 -0.1903 -0.2637
   74SLPC   C32 6556   4.575   2.050  10.189  0.1938 -0.6868 -0.3345
   74SLPC   H2X 6557   4.546   1.945  10.165 -0.0826 -1.3505  2.5184
   74SLPC   H2Y 6558   4.624   2.099  10.103  1.9135 -0.4564  0.7234
   74SLPC   C23 6559   5.097   1.761   9.913  0.3732 -0.1735 -0.4745
   74SLPC   H3R 6560   5.037   1.676   9.950  0.1469 -0.2629 -1.0326
   74SLPC   H3S 6561   5.194   1.723   9.874  0.9331 -0.2677  0.9299
   74SLPC   C24 6562   5.014   1.814   9.796  0.3155 -0.1860  0.0439
   74SLPC   H4R 6563   5.059   1.913   9.774 -0.2990 -0.0550 -0.6555
   74SLPC   H4S 6564   4.906   1.827   9.818 -0.4728 -2.4130 -2.0827
   74SLPC   C25 6565   5.018   1.729   9.660 -0.2034 -0.8955 -0.2249
   74SLPC   H5R 6566   4.963   1.634   9.677  0.7665 -1.7207 -1.5291
   74SLPC   H5S 6567   5.122   1.705   9.630  0.4114  1.1074  0.1640
   74SLPC   C26 6568   4.940   1.788   9.542 -0.0582 -0.3641  0.2197
   74SLPC   H6R 6569   4.841   1.820   9.581  0.3899  0.5240  0.6686
   74SLPC   H6S 6570   4.921   1.716   9.460 -1.3179  0.2039 -0.0134
   74SLPC   C27 6571   4.997   1.917   9.485 -0.1499 -0.1264  0.6359
   74SLPC   H7R 6572   5.107   1.925   9.501 -0.0400  2.5818 -0.7508
   74SLPC   H7S 6573   4.950   2.014   9.515  2.0060  0.6090  1.9239
   74SLPC   C28 6574   4.993   1.917   9.331  0.2401  0.0858 -0.3725
   74SLPC   H8R 6575   5.054   1.830   9.296 -0.3278  0.4339 -2.3307
   74SLPC   H8S 6576   5.048   2.009   9.304 -0.5899  0.4627 -0.7977
   74SLPC   C29 6577   4.858   1.915   9.269 -0.5617 -0.0686 -0.1243
   74SLPC   H9R 6578   4.795   1.829   9.298 -0.8816  0.8383  2.0242
   74SLPC  C210 6579   4.812   2.015   9.180  0.1444 -0.0863 -0.0237
   74SLPC  H10R 6580   4.704   2.015   9.162 -0.1570  1.2218  1.5379
   74SLPC  C211 6581   4.890   2.131   9.137 -0.1440 -0.1704  0.7424
   74SLPC  H11R 6582   4.911   2.190   9.229  2.5150 -1.5318  1.1002
   74SLPC  H11S 6583   4.818   2.191   9.078 -1.4783 -0.4996  1.9864
   74SLPC  C212 6584   5.012   2.104   9.047  0.3593 -0.6616 -0.3471
   74SLPC  H12R 6585   5.105   2.069   9.095 -0.1797 -1.8916 -0.1705
   74SLPC  C213 6586   5.019   2.129   8.912  0.3198 -0.0275 -0.4952
   74SLPC  H13R 6587   5.117   2.098   8.873  1.3304 -0.4344  2.1437
   74SLPC  C214 6588   4.910   2.187   8.820 -0.4031 -0.5007  0.4172
   74SLPC  H14R 6589   4.814   2.181   8.875 -1.0515  0.3345 -0.5903
   74SLPC  H14S 6590   4.903   2.132   8.725  1.1576 -0.6362  0.3444
   74SLPC  C215 6591   4.938   2.330   8.768  0.1700  0.2156  0.1426
   74SLPC  H15R 6592   4.966   2.399   8.851  2.3776  0.0203 -0.3690
   74SLPC  H15S 6593   4.835   2.363   8.744  0.0630  0.2614  0.6569
   74SLPC  C216 6594   5.022   2.344   8.634  0.1541 -0.1811 -0.2302
   74SLPC  H16R 6595   4.955   2.316   8.550 -1.2203  2.8266 -0.2582
   74SLPC  H16S 6596   5.104   2.269   8.634 -1.7659 -2.4338 -1.1281
   74SLPC  C217 6597   5.069   2.488   8.622 -0.1146 -0.0021 -0.4868
   74SLPC  H17R 6598   5.125   2.524   8.710  2.8410 -0.0844 -2.1909
   74SLPC  H17S 6599   4.984   2.555   8.598 -1.5994 -1.9233 -0.7848
   74SLPC  C218 6600   5.172   2.501   8.508  0.3875  0.8307  0.0555
   74SLPC  H18R 6601   5.113   2.471   8.419  0.2747 -1.2713  0.7995
   74SLPC  H18S 6602   5.248   2.422   8.524  0.4627  1.2320  1.8999
   74SLPC  H18T 6603   5.216   2.603   8.503  0.5229  0.9767  2.8921
   74SLPC   C33 6604   4.447   2.142  10.220  0.3152  0.5950  0.2798
   74SLPC   H3X 6605   4.476   2.250  10.216 -1.8481  1.2293  0.3030
   74SLPC   H3Y 6606   4.404   2.112  10.318  0.9714 -1.7230 -0.0877
   74SLPC   C34 6607   4.343   2.112  10.116  1.0845 -0.1616 -0.5403
   74SLPC   H4X 6608   4.318   2.004  10.111  0.4244 -0.0418  0.1814
   74SLPC   H4Y 6609   4.384   2.135  10.015 -1.3669 -0.0163 -1.5750
   74SLPC   C35 6610   4.220   2.206  10.135 -0.6724  0.0250 -0.0370
   74SLPC   H5X 6611   4.256   2.310  10.152 -1.6261  0.7096 -1.9817
   74SLPC   H5Y 6612   4.172   2.179  10.232  0.5687  2.6507  1.4264
   74SLPC   C36 6613   4.120   2.184  10.028 -0.1820  0.4891 -0.1710
   74SLPC   H6X 6614   4.018   2.223  10.049 -1.3263 -3.1780  2.0437
   74SLPC   H6Y 6615   4.117   2.073  10.021  2.7047  0.3181 -0.1779
   74SLPC   C37 6616   4.158   2.247   9.893  0.2613  0.3396 -0.1643
   74SLPC   H7X 6617   4.246   2.193   9.852  0.2055 -0.5823  0.8838
   74SLPC   H7Y 6618   4.185   2.353   9.908 -4.1630  1.4978  0.9502
   74SLPC   C38 6619   4.045   2.226   9.790  0.1244  0.0184  0.5183
   74SLPC   H8X 6620   3.981   2.317   9.786 -0.0436 -0.0774  0.9460
   74SLPC   H8Y 6621   3.993   2.139   9.835  0.3757 -0.9483 -1.0130
   74SLPC   C39 6622   4.083   2.164   9.653 -0.3790 -0.0263  0.5496
   74SLPC   H9X 6623   4.143   2.075   9.683  0.2261  0.5682  1.1620
   74SLPC   H9Y 6624   4.145   2.243   9.606 -0.9774  0.3822  0.4357
   74SLPC  C310 6625   3.957   2.147   9.569 -0.6510 -0.0014  0.5736
   74SLPC  H10X 6626   3.903   2.242   9.551 -1.8611 -1.2238 -2.9947
   74SLPC  H10Y 6627   3.891   2.080   9.627 -0.0702 -0.6972  0.4531
   74SLPC  C311 6628   4.003   2.080   9.434  0.4460 -0.1618  0.1285
   74SLPC  H11X 6629   4.056   1.983   9.444 -0.3269 -0.9308 -2.4368
   74SLPC  H11Y 6630   4.067   2.146   9.370  0.5526  0.4293  0.8297
   74SLPC  C312 6631   3.868   2.024   9.363 -0.4332  1.0547 -0.1534
   74SLPC  H12X 6632   3.809   2.118   9.355  1.3291  2.1782 -0.4363
   74SLPC  H12Y 6633   3.822   1.951   9.433  0.2589  1.1275  0.3906
   74SLPC  C313 6634   3.917   1.969   9.231  0.5242  0.7290  0.7471
   74SLPC  H13X 6635   3.983   1.885   9.261  0.1556 -0.0261 -0.5200
   74SLPC  H13Y 6636   3.994   2.030   9.179 -0.2825 -0.4402 -1.9872
   74SLPC  C314 6637   3.815   1.940   9.121 -1.4328 -1.0481 -0.2585
   74SLPC  H14X 6638   3.797   2.034   9.065 -1.5460 -1.2885 -0.6318
   74SLPC  H14Y 6639   3.720   1.917   9.175 -0.0689 -2.4091  1.7282
   74SLPC  C315 6640   3.852   1.824   9.030 -0.3576 -0.3596  0.1158
   74SLPC  H15X 6641   3.885   1.736   9.089  0.4811  2.5687  4.3993
   74SLPC  H15Y 6642   3.948   1.853   8.983 -1.0237  0.0304 -1.0503
   74SLPC  C316 6643   3.737   1.788   8.942  0.0245  0.0852  0.8553
   74SLPC  H16X 6644   3.714   1.878   8.882  1.0705 -0.8110 -0.9931
   74SLPC  H16Y 6645   3.645   1.760   8.997 -0.3936 -1.5593 -0.5821
   74SLPC  C317 6646   3.782   1.681   8.842  0.1794 -0.9509 -0.1122
   74SLPC  H17X 6647   3.848   1.621   8.908 -0.2905 -1.4511 -0.0912
   74SLPC  H17Y 6648   3.825   1.733   8.754 -2.2924  0.3222 -0.6592
   74SLPC  C318 6649   3.666   1.598   8.795  0.4679  0.6542 -0.4003
   74SLPC  H18X 6650   3.586   1.666   8.759 -2.6591 -0.4713  3.6945
   74SLPC  H18Y 6651   3.611   1.556   8.882  0.4074  1.8342  0.1487
   74SLPC  H18Z 6652   3.705   1.527   8.718  1.0677  3.6596 -3.0951
   75SLPC     N 6653   6.175   1.456   6.021  0.8758  0.2494  0.6115
   75SLPC   C13 6654   6.249   1.525   5.914  0.2569 -0.3587 -0.5002
   75SLPC  H13A 6655   6.250   1.631   5.934  1.4527 -0.2967 -0.8470
   75SLPC  H13B 6656   6.352   1.496   5.909 -0.0776 -2.1034  1.4782
   75SLPC  H13C 6657   6.202   1.498   5.820 -0.7317 -0.4720  0.0086
   75SLPC   C14 6658   6.223   1.322   6.050  0.1055 -0.1481  0.0449
   75SLPC  H14A 6659   6.318   1.330   6.102  1.7661  0.3854 -2.8756
   75SLPC  H14B 6660   6.155   1.274   6.120 -0.4294 -0.6115 -0.7823
   75SLPC  H14C 6661   6.223   1.272   5.954 -0.8436  2.6118 -1.4888
   75SLPC   C15 6662   6.031   1.439   5.979 -0.1513  0.4961  0.3913
   75SLPC  H15A 6663   6.022   1.376   5.892  1.3691  2.4458 -1.2462
   75SLPC  H15B 6664   5.971   1.384   6.051  0.4809  0.1028  0.6264
   75SLPC  H15C 6665   5.987   1.533   5.950  0.8339  0.3370 -1.8043
   75SLPC   C12 6666   6.177   1.548   6.148  0.1848 -0.1929 -0.2832
   75SLPC  H12A 6667   6.148   1.644   6.107 -0.5577 -0.1896  0.2419
   75SLPC  H12B 6668   6.277   1.565   6.185  0.1244 -2.2179  0.9438
   75SLPC   C11 6669   6.100   1.506   6.270 -0.5825  0.3573  0.3476
   75SLPC  H11A 6670   5.990   1.493   6.256 -0.6155  1.5168 -0.5866
   75SLPC  H11B 6671   6.106   1.596   6.334  1.7140  0.7594 -0.3468
   75SLPC     P 6672   6.300   1.396   6.407 -0.2297  0.0419 -0.0761
   75SLPC   O13 6673   6.343   1.258   6.440  0.0123  0.1121  0.1552
   75SLPC   O14 6674   6.397   1.479   6.334 -0.4318 -0.1771  0.4012
   75SLPC   O12 6675   6.162   1.391   6.331  0.7367  0.2696 -0.0367
   75SLPC   O11 6676   6.258   1.463   6.548  0.3752  0.3641  0.2286
   75SLPC    C1 6677   6.355   1.539   6.625 -0.7024  0.2240 -0.3455
   75SLPC    HA 6678   6.381   1.488   6.720  1.3383  0.3286 -0.8047
   75SLPC    HB 6679   6.444   1.558   6.561 -0.2981  2.5298  0.8011
   75SLPC    C2 6680   6.290   1.672   6.654 -0.1652 -0.2139 -0.0233
   75SLPC    HS 6681   6.252   1.713   6.557  1.1436  0.8123 -0.1275
   75SLPC   O21 6682   6.388   1.760   6.715  0.4561 -0.3147  0.2460
   75SLPC   C21 6683   6.353   1.885   6.710 -0.4576  0.0163 -0.9544
   75SLPC   O22 6684   6.266   1.933   6.638 -0.3324  0.0045 -0.2428
   75SLPC   C22 6685   6.426   1.961   6.827  0.8497  0.0586  0.0297
   75SLPC   H2R 6686   6.519   1.904   6.848  0.2785 -0.0097  2.6969
   75SLPC   H2S 6687   6.448   2.063   6.788  0.5650  0.3080  0.5102
   75SLPC    C3 6688   6.170   1.650   6.753 -0.4375  1.4670 -0.1507
   75SLPC    HX 6689   6.218   1.626   6.850 -1.3659  1.8113  0.4096
   75SLPC    HY 6690   6.119   1.555   6.727  0.9306  0.5389  0.4301
   75SLPC   O31 6691   6.085   1.762   6.785 -0.0306 -0.4871 -0.0861
   75SLPC   C31 6692   5.966   1.773   6.728  0.5327  0.0983 -0.6793
   75SLPC   O32 6693   5.919   1.695   6.643 -0.0249 -0.4378 -0.3409
   75SLPC   C32 6694   5.872   1.874   6.793 -0.7623 -0.5810 -0.4901
   75SLPC   H2X 6695   5.914   1.971   6.760  1.1357 -0.7763  1.1855
   75SLPC   H2Y 6696   5.876   1.856   6.903  1.3452  0.6214 -0.3268
   75SLPC   C23 6697   6.348   1.994   6.955  0.3219  0.1819  0.1517
   75SLPC   H3R 6698   6.247   2.019   6.915  1.8540  2.5770 -2.6964
   75SLPC   H3S 6699   6.398   2.082   7.002 -1.6699  0.5788  1.6661
   75SLPC   C24 6700   6.350   1.886   7.072 -0.7507 -0.1319  0.1607
   75SLPC   H4R 6701   6.456   1.859   7.094 -1.1073 -3.8028 -1.8185
   75SLPC   H4S 6702   6.289   1.801   7.035 -0.4295  1.0690 -3.4640
   75SLPC   C25 6703   6.290   1.947   7.199 -0.5941 -0.1613  0.4577
   75SLPC   H5R 6704   6.181   1.965   7.182 -0.3166  1.8397  0.5444
   75SLPC   H5S 6705   6.340   2.045   7.217  1.2047 -0.8918 -0.3708
   75SLPC   C26 6706   6.312   1.865   7.324 -0.3903  0.3799  0.4202
   75SLPC   H6R 6707   6.421   1.844   7.328 -0.1685  0.8421 -1.8946
   75SLPC   H6S 6708   6.273   1.765   7.294  0.3747  0.6653 -1.7191
   75SLPC   C27 6709   6.237   1.909   7.458  0.3462 -0.4204  0.1965
   75SLPC   H7R 6710   6.231   2.020   7.468 -0.8196 -0.5512  1.1990
   75SLPC   H7S 6711   6.300   1.872   7.541  1.4216 -1.0948 -0.8930
   75SLPC   C28 6712   6.093   1.853   7.471  0.5436 -1.0047 -0.5972
   75SLPC   H8R 6713   6.108   1.744   7.462  0.1940 -1.2056  1.0365
   75SLPC   H8S 6714   6.029   1.886   7.386  0.2281 -0.0727 -0.0178
   75SLPC   C29 6715   6.028   1.891   7.610 -0.4548 -0.2872 -0.0032
   75SLPC   H9R 6716   6.091   1.870   7.698  0.8418  1.1083 -0.5537
   75SLPC  C210 6717   5.906   1.950   7.619  0.3332  0.3787 -0.4763
   75SLPC  H10R 6718   5.858   1.970   7.716 -0.0776 -0.3676 -0.5119
   75SLPC  C211 6719   5.809   1.985   7.507 -0.0481  0.3912 -0.2271
   75SLPC  H11R 6720   5.855   1.967   7.407 -0.3521 -1.0844 -0.1257
   75SLPC  H11S 6721   5.791   2.094   7.507  2.1263  0.7876  0.1278
   75SLPC  C212 6722   5.680   1.910   7.503  0.8324  0.2257 -0.3270
   75SLPC  H12R 6723   5.634   1.887   7.600  0.0908  2.5180 -0.0899
   75SLPC  C213 6724   5.619   1.860   7.390 -0.5496 -0.4247  0.0914
   75SLPC  H13R 6725   5.525   1.804   7.401  0.5871 -2.5175 -0.3134
   75SLPC  C214 6726   5.673   1.879   7.244  0.3764 -0.5995  0.0386
   75SLPC  H14R 6727   5.705   1.985   7.234 -2.2038  0.3860  1.3484
   75SLPC  H14S 6728   5.589   1.874   7.172 -3.0142  1.8354  3.4475
   75SLPC  C215 6729   5.778   1.773   7.215 -0.0881 -0.2774  0.7002
   75SLPC  H15R 6730   5.850   1.771   7.300 -0.6951  1.7933  1.3087
   75SLPC  H15S 6731   5.825   1.821   7.126 -1.9210  2.4884  1.0939
   75SLPC  C216 6732   5.718   1.632   7.191  0.2451  0.0065 -0.4388
   75SLPC  H16R 6733   5.619   1.629   7.241  0.1830 -1.5123 -0.6138
   75SLPC  H16S 6734   5.776   1.557   7.248  0.1841  1.2581  1.3379
   75SLPC  C217 6735   5.704   1.606   7.038  0.3225 -0.3163 -0.3165
   75SLPC  H17R 6736   5.647   1.688   6.991  0.7230  0.1707  0.0347
   75SLPC  H17S 6737   5.645   1.515   7.012 -0.4418  0.3771 -1.0581
   75SLPC  C218 6738   5.831   1.579   6.958 -0.0189 -0.4504  0.3768
   75SLPC  H18R 6739   5.873   1.483   6.993  0.7369 -0.0748  0.5180
   75SLPC  H18S 6740   5.898   1.665   6.979 -0.3786  0.3046 -1.4306
   75SLPC  H18T 6741   5.810   1.567   6.850 -0.5601  2.1374  0.1252
   75SLPC   C33 6742   5.727   1.879   6.740  0.3267  0.2788 -0.8090
   75SLPC   H3X 6743   5.719   1.866   6.630  0.6397  0.0244 -0.8015
   75SLPC   H3Y 6744   5.676   1.795   6.792 -0.9499  1.3048 -0.3512
   75SLPC   C34 6745   5.650   2.013   6.773  0.2676 -0.2361  0.0728
   75SLPC   H4X 6746   5.548   2.010   6.729  0.3518  1.2623 -0.2874
   75SLPC   H4Y 6747   5.696   2.096   6.715  0.4231  0.5484  1.2706
   75SLPC   C35 6748   5.650   2.053   6.915  0.9436  0.1602 -0.0816
   75SLPC   H5X 6749   5.750   2.092   6.945  0.5554  1.8842 -0.8591
   75SLPC   H5Y 6750   5.623   1.967   6.980 -1.2826 -0.9106 -2.2557
   75SLPC   C36 6751   5.552   2.169   6.944  0.0380  0.4391  0.2569
   75SLPC   H6X 6752   5.448   2.141   6.916 -0.4633  0.5468  1.9054
   75SLPC   H6Y 6753   5.582   2.249   6.872 -1.3960  1.5721  0.8575
   75SLPC   C37 6754   5.552   2.211   7.094 -0.1324  0.1200  0.8285
   75SLPC   H7X 6755   5.635   2.282   7.118 -0.1385  0.3726  0.1246
   75SLPC   H7Y 6756   5.576   2.115   7.144  2.4092 -0.4997 -1.3711
   75SLPC   C38 6757   5.413   2.256   7.147 -0.4743  0.3984 -0.4690
   75SLPC   H8X 6758   5.366   2.158   7.170  3.0844 -1.6785 -1.1924
   75SLPC   H8Y 6759   5.349   2.312   7.075 -0.6155  1.5087  0.5027
   75SLPC   C39 6760   5.417   2.336   7.279  0.1675  0.1002  0.0418
   75SLPC   H9X 6761   5.317   2.317   7.322  0.1584  1.7378  0.8083
   75SLPC   H9Y 6762   5.425   2.444   7.255 -0.2672 -0.1460 -1.3132
   75SLPC  C310 6763   5.528   2.309   7.383 -0.1371  0.0569  0.5542
   75SLPC  H10X 6764   5.629   2.329   7.340  1.3292 -1.0003  3.2792
   75SLPC  H10Y 6765   5.516   2.201   7.403  1.4689 -0.0570  1.0196
   75SLPC  C311 6766   5.510   2.374   7.523 -0.4825 -0.3918  0.2478
   75SLPC  H11X 6767   5.410   2.396   7.564 -1.0387 -1.1972 -0.6323
   75SLPC  H11Y 6768   5.558   2.474   7.511 -0.1002 -0.4672  1.1214
   75SLPC  C312 6769   5.588   2.293   7.632  0.0854 -0.0780 -0.8555
   75SLPC  H12X 6770   5.696   2.301   7.607  0.6007 -0.0756  1.1542
   75SLPC  H12Y 6771   5.545   2.190   7.631 -0.4545  0.1369 -0.1058
   75SLPC  C313 6772   5.570   2.357   7.771  0.3494 -0.0694  0.2614
   75SLPC  H13X 6773   5.461   2.351   7.792  0.0824 -2.7581 -1.4340
   75SLPC  H13Y 6774   5.594   2.465   7.758 -2.0742  0.6559  1.1673
   75SLPC  C314 6775   5.655   2.298   7.877 -0.5795  0.7789 -0.4977
   75SLPC  H14X 6776   5.754   2.339   7.847 -0.6464 -0.1665 -2.0995
   75SLPC  H14Y 6777   5.673   2.188   7.870  0.9151  0.7189  2.5666
   75SLPC  C315 6778   5.622   2.350   8.019 -0.0032  0.5110  0.2228
   75SLPC  H15X 6779   5.600   2.457   8.040 -0.3750  0.4322  0.2429
   75SLPC  H15Y 6780   5.710   2.322   8.079  0.2068  0.2295 -0.2137
   75SLPC  C316 6781   5.503   2.270   8.078  0.1353  0.2746  0.8741
   75SLPC  H16X 6782   5.510   2.165   8.044 -2.3906 -0.0969  1.2629
   75SLPC  H16Y 6783   5.410   2.321   8.044  0.5342 -2.6753 -6.4556
   75SLPC  C317 6784   5.489   2.242   8.226 -0.2160 -0.2486  0.0927
   75SLPC  H17X 6785   5.568   2.174   8.263 -0.7739  0.3596  2.6116
   75SLPC  H17Y 6786   5.392   2.192   8.249 -0.3209 -0.7505 -1.3661
   75SLPC  C318 6787   5.500   2.364   8.324  0.0213 -0.1644 -0.1335
   75SLPC  H18X 6788   5.417   2.435   8.305  2.2422  2.2676 -1.4355
   75SLPC  H18Y 6789   5.595   2.420   8.307  0.0573  0.2912  1.4627
   75SLPC  H18Z 6790   5.489   2.331   8.429 -0.7661 -1.1953 -0.5233
   76SLPC     N 6791   2.211   4.032   5.885 -0.7043  0.2885  0.7179
   76SLPC   C13 6792   2.332   3.958   5.831  0.2451  0.1215 -0.1732
   76SLPC  H13A 6793   2.422   4.006   5.866  0.3560  0.6101 -1.0941
   76SLPC  H13B 6794   2.331   3.859   5.874 -0.7544  1.0390  2.0832
   76SLPC  H13C 6795   2.332   3.951   5.723  0.6260 -0.1459 -0.1559
   76SLPC   C14 6796   2.096   3.961   5.829 -0.1684  0.4567 -0.1713
   76SLPC  H14A 6797   2.072   4.004   5.733  1.3813  1.8021  0.0021
   76SLPC  H14B 6798   2.119   3.856   5.813  4.1399  1.2822 -0.5182
   76SLPC  H14C 6799   2.003   3.980   5.880 -0.4108  0.9988 -0.8070
   76SLPC   C15 6800   2.216   4.167   5.829  0.0768  0.1008  0.2744
   76SLPC  H15A 6801   2.126   4.223   5.849 -0.4562 -1.0368  1.1168
   76SLPC  H15B 6802   2.304   4.209   5.877  2.5453 -2.6644 -1.5302
   76SLPC  H15C 6803   2.238   4.172   5.724  0.6647  0.1512  0.3952
   76SLPC   C12 6804   2.200   4.032   6.037  0.2898  0.5901  0.7514
   76SLPC  H12A 6805   2.179   3.932   6.072  1.1819  0.3705  0.6798
   76SLPC  H12B 6806   2.122   4.101   6.065 -0.1363 -0.4156  2.1797
   76SLPC   C11 6807   2.317   4.077   6.123 -0.6869  0.1954 -0.3307
   76SLPC  H11A 6808   2.405   4.014   6.098  0.8655  1.6693  1.0776
   76SLPC  H11B 6809   2.295   4.069   6.232 -1.2322  0.8263 -0.3880
   76SLPC     P 6810   2.263   4.320   6.179 -0.4949 -0.0461  0.0683
   76SLPC   O13 6811   2.299   4.457   6.134 -0.3662  0.6567 -0.6507
   76SLPC   O14 6812   2.123   4.280   6.167 -0.5766 -0.0785 -1.0115
   76SLPC   O12 6813   2.351   4.213   6.097  0.0799 -0.4617  0.6903
   76SLPC   O11 6814   2.302   4.298   6.329 -0.7670 -0.5556  0.0824
   76SLPC    C1 6815   2.437   4.273   6.361 -0.3026  0.9949 -0.0529
   76SLPC    HA 6816   2.472   4.175   6.325 -0.4564  0.8229  0.2558
   76SLPC    HB 6817   2.501   4.354   6.320  0.5620  0.7618  0.7959
   76SLPC    C2 6818   2.439   4.267   6.520 -0.8033 -0.2906 -0.3262
   76SLPC    HS 6819   2.542   4.245   6.555 -1.4306 -0.0459  1.8181
   76SLPC   O21 6820   2.357   4.162   6.573 -0.1232  0.2983  0.7807
   76SLPC   C21 6821   2.394   4.032   6.549  0.2803 -0.3720 -0.8742
   76SLPC   O22 6822   2.503   3.996   6.511  0.4873  0.0508  0.1516
   76SLPC   C22 6823   2.281   3.936   6.586  0.0880 -0.3826 -0.6203
   76SLPC   H2R 6824   2.221   3.981   6.668  1.7925  0.1022  0.4033
   76SLPC   H2S 6825   2.227   3.920   6.490 -0.0424 -1.1492 -0.4277
   76SLPC    C3 6826   2.404   4.402   6.590 -0.0987  0.9425  0.3630
   76SLPC    HX 6827   2.327   4.447   6.525  0.4440 -1.6350 -2.2965
   76SLPC    HY 6828   2.494   4.467   6.581 -1.9487  3.2952 -3.7774
   76SLPC   O31 6829   2.336   4.382   6.721 -0.0887  0.2600  0.2049
   76SLPC   C31 6830   2.429   4.375   6.817  0.0294 -0.7866  0.2766
   76SLPC   O32 6831   2.546   4.392   6.802 -0.2383  0.1713 -0.0034
   76SLPC   C32 6832   2.355   4.350   6.946  0.3690 -0.2546 -0.0302
   76SLPC   H2X 6833   2.247   4.373   6.939  0.1007 -1.1108  1.0873
   76SLPC   H2Y 6834   2.397   4.418   7.024 -0.5629  1.7194 -1.1805
   76SLPC   C23 6835   2.355   3.801   6.615 -0.5188 -0.3167 -0.1238
   76SLPC   H3R 6836   2.420   3.771   6.530 -1.0596  0.1445 -0.7082
   76SLPC   H3S 6837   2.279   3.720   6.623  0.5352 -1.2897  0.5409
   76SLPC   C24 6838   2.432   3.800   6.754 -0.2171 -0.3865 -0.0174
   76SLPC   H4R 6839   2.466   3.904   6.775  1.2628 -1.0105  0.7602
   76SLPC   H4S 6840   2.514   3.726   6.748  1.5053  1.0957  3.1973
   76SLPC   C25 6841   2.347   3.754   6.875 -0.0745 -0.4498  0.4731
   76SLPC   H5R 6842   2.334   3.646   6.854  0.2076 -0.2225 -0.9947
   76SLPC   H5S 6843   2.246   3.799   6.885 -0.3102 -1.1947  1.6116
   76SLPC   C26 6844   2.415   3.761   7.012 -0.3951 -0.0949 -0.3869
   76SLPC   H6R 6845   2.427   3.864   7.051  1.1192  0.0797 -1.2211
   76SLPC   H6S 6846   2.516   3.715   7.013  0.1774  0.9948 -2.1276
   76SLPC   C27 6847   2.336   3.683   7.113 -0.6681 -0.4055  0.0544
   76SLPC   H7R 6848   2.327   3.584   7.063 -0.9372 -0.7136  0.7009
   76SLPC   H7S 6849   2.235   3.728   7.118 -0.2933  1.8399 -5.3520
   76SLPC   C28 6850   2.410   3.650   7.246  0.0645  0.6909  0.3728
   76SLPC   H8R 6851   2.360   3.563   7.292  1.2838 -0.7402 -0.9046
   76SLPC   H8S 6852   2.511   3.612   7.220 -0.1136 -0.1915  0.9295
   76SLPC   C29 6853   2.422   3.770   7.341 -0.8529  0.4031 -0.1831
   76SLPC   H9R 6854   2.334   3.837   7.337 -2.1977 -1.1943  1.2141
   76SLPC  C210 6855   2.520   3.790   7.435  0.3703  0.2346  0.4861
   76SLPC  H10R 6856   2.515   3.889   7.483  0.1325  1.3094 -1.6150
   76SLPC  C211 6857   2.645   3.708   7.438  0.0278  0.3260 -0.2915
   76SLPC  H11R 6858   2.675   3.684   7.334 -0.1458  0.3190 -0.3418
   76SLPC  H11S 6859   2.618   3.605   7.471  2.2049 -0.0616  0.4012
   76SLPC  C212 6860   2.748   3.780   7.521  0.1723  0.2084 -0.2705
   76SLPC  H12R 6861   2.747   3.890   7.519 -0.8915  0.2036 -0.8651
   76SLPC  C213 6862   2.833   3.721   7.613 -0.2357 -0.5047 -0.1191
   76SLPC  H13R 6863   2.911   3.771   7.673 -0.6796 -2.2677  2.1029
   76SLPC  C214 6864   2.835   3.574   7.647  0.5079 -0.4093 -0.0962
   76SLPC  H14R 6865   2.936   3.547   7.685  0.4857 -0.0616  0.2075
   76SLPC  H14S 6866   2.815   3.524   7.550  0.7104  2.2876 -1.6381
   76SLPC  C215 6867   2.730   3.545   7.762 -0.1187  1.1837  0.4681
   76SLPC  H15R 6868   2.719   3.434   7.762 -0.7322  1.2286 -0.7835
   76SLPC  H15S 6869   2.635   3.591   7.727  0.6452  0.5618 -2.8219
   76SLPC  C216 6870   2.780   3.583   7.900 -0.3791  0.3261 -0.4098
   76SLPC  H16R 6871   2.776   3.693   7.911 -1.8602  0.3338 -0.8823
   76SLPC  H16S 6872   2.890   3.566   7.908 -0.2180  1.6191  0.3894
   76SLPC  C217 6873   2.711   3.513   8.026  0.1103  0.5111 -0.1773
   76SLPC  H17R 6874   2.600   3.523   8.026  0.2045  2.2708  1.8808
   76SLPC  H17S 6875   2.745   3.580   8.107 -0.3447  1.6455 -0.8891
   76SLPC  C218 6876   2.757   3.365   8.045 -0.0858 -0.2805  0.2275
   76SLPC  H18R 6877   2.707   3.325   8.136 -2.3852  1.6682 -0.0770
   76SLPC  H18S 6878   2.867   3.359   8.053  0.0081 -0.5963 -1.0830
   76SLPC  H18T 6879   2.724   3.303   7.958  1.5291 -0.4695 -0.2803
   76SLPC   C33 6880   2.361   4.203   6.999  0.3598  0.0477  0.2217
   76SLPC   H3X 6881   2.454   4.198   7.060  1.5501 -0.5321 -1.5468
   76SLPC   H3Y 6882   2.392   4.139   6.914 -0.5054  0.3571 -0.3294
   76SLPC   C34 6883   2.232   4.147   7.048  1.2963 -0.3603  0.4205
   76SLPC   H4X 6884   2.216   4.048   6.999 -0.2203 -0.9090  1.9259
   76SLPC   H4Y 6885   2.146   4.207   7.013  0.8359 -1.9029 -1.2063
   76SLPC   C35 6886   2.236   4.114   7.194 -0.0817  0.7769 -0.9471
   76SLPC   H5X 6887   2.312   4.032   7.202 -1.8397 -0.8153  0.4114
   76SLPC   H5Y 6888   2.139   4.065   7.218  0.2289  0.6128  0.0381
   76SLPC   C36 6889   2.277   4.225   7.296 -0.0551 -0.5769  0.4015
   76SLPC   H6X 6890   2.205   4.309   7.288 -0.7363 -1.0798  1.0678
   76SLPC   H6Y 6891   2.381   4.258   7.273 -1.0146  1.8418 -0.7391
   76SLPC   C37 6892   2.279   4.180   7.446  0.3412  0.7045 -0.4444
   76SLPC   H7X 6893   2.273   4.275   7.503 -0.7404 -0.6010  1.7722
   76SLPC   H7Y 6894   2.380   4.138   7.469  1.1442  3.0998  0.6685
   76SLPC   C38 6895   2.154   4.100   7.497 -0.2876 -0.1374  0.0896
   76SLPC   H8X 6896   2.140   4.010   7.434  1.3577  0.3622 -1.0643
   76SLPC   H8Y 6897   2.060   4.157   7.483  0.3814  1.5954  2.1199
   76SLPC   C39 6898   2.151   4.081   7.650 -0.5361  0.4518 -0.3871
   76SLPC   H9X 6899   2.070   4.012   7.681  1.4204 -1.4799  0.6750
   76SLPC   H9Y 6900   2.124   4.178   7.696  1.7864 -0.0037  2.2444
   76SLPC  C310 6901   2.281   4.024   7.711  0.2331 -0.4260 -0.6409
   76SLPC  H10X 6902   2.342   4.116   7.723 -1.1279  0.1257  3.3561
   76SLPC  H10Y 6903   2.332   3.952   7.644  1.0605 -1.0505  0.6280
   76SLPC  C311 6904   2.247   3.976   7.845  0.2843 -0.6003 -0.1459
   76SLPC  H11X 6905   2.172   3.894   7.843 -0.8473  0.3346  1.5077
   76SLPC  H11Y 6906   2.200   4.067   7.888  1.1050  1.0518 -2.5552
   76SLPC  C312 6907   2.369   3.934   7.921  0.5728 -0.2826 -0.4482
   76SLPC  H12X 6908   2.397   4.015   7.992 -0.2659 -0.4496  0.0988
   76SLPC  H12Y 6909   2.450   3.910   7.849 -1.3591 -0.2164 -2.7869
   76SLPC  C313 6910   2.345   3.804   7.998 -0.0896  0.2430 -0.1147
   76SLPC  H13X 6911   2.439   3.748   8.021  0.6137  0.7353 -1.6427
   76SLPC  H13Y 6912   2.281   3.727   7.951 -0.8674  0.3399  0.7645
   76SLPC  C314 6913   2.291   3.844   8.139 -0.1044 -0.2682  0.8441
   76SLPC  H14X 6914   2.211   3.920   8.133 -0.2802 -0.3370  2.0328
   76SLPC  H14Y 6915   2.373   3.898   8.192 -1.0012  3.1619 -0.9569
   76SLPC  C315 6916   2.233   3.729   8.226 -0.4397  0.3493 -0.5746
   76SLPC  H15X 6917   2.281   3.634   8.194 -0.6618  0.0238  0.0540
   76SLPC  H15Y 6918   2.131   3.723   8.181 -0.0339 -1.0643 -1.3416
   76SLPC  C316 6919   2.238   3.754   8.374 -0.0418  0.0871  0.9044
   76SLPC  H16X 6920   2.346   3.768   8.396  0.5604  1.3786 -2.2841
   76SLPC  H16Y 6921   2.195   3.668   8.430 -0.0626 -0.1359  0.5447
   76SLPC  C317 6922   2.173   3.887   8.425 -0.5552  1.0459  0.4775
   76SLPC  H17X 6923   2.237   3.975   8.404  0.4587  0.2131 -0.0167
   76SLPC  H17Y 6924   2.172   3.873   8.535 -2.6756  0.4901  0.4381
   76SLPC  C318 6925   2.026   3.903   8.377  0.1427 -0.3112 -0.1714
   76SLPC  H18X 6926   1.982   3.808   8.412  1.8622 -1.4712 -1.0361
   76SLPC  H18Y 6927   2.020   3.917   8.267 -1.2557  1.2731  0.0682
   76SLPC  H18Z 6928   1.967   3.987   8.420  0.7262  0.5217 -0.9448
   77SLPC     N 6929   4.090   0.865   6.501 -0.1086  1.2050 -0.3512
   77SLPC   C13 6930   4.020   0.991   6.552  0.4413  0.1999  0.1714
   77SLPC  H13A 6931   4.080   1.082   6.548  0.4143  0.2577  0.8641
   77SLPC  H13B 6932   3.938   1.020   6.488  0.0039  2.1711  1.5127
   77SLPC  H13C 6933   3.974   0.958   6.644 -1.4433 -3.3763 -1.8307
   77SLPC   C14 6934   4.153   0.899   6.369 -0.4334 -0.7185  0.4127
   77SLPC  H14A 6935   4.195   0.813   6.318  0.3218  0.6279 -1.3228
   77SLPC  H14B 6936   4.081   0.938   6.299 -0.0128 -0.6366  0.0223
   77SLPC  H14C 6937   4.239   0.963   6.374 -0.4485 -0.5252 -1.2356
   77SLPC   C15 6938   3.977   0.767   6.482  0.1152  0.3940  0.3479
   77SLPC  H15A 6939   3.940   0.738   6.579  0.0709 -1.0336 -0.0711
   77SLPC  H15B 6940   3.897   0.805   6.419  1.0217  2.6549  0.4688
   77SLPC  H15C 6941   4.012   0.676   6.435  0.6188 -0.3751  2.1306
   77SLPC   C12 6942   4.189   0.817   6.610 -0.6371  0.3112 -0.7887
   77SLPC  H12A 6943   4.136   0.768   6.690 -0.0330 -1.3133 -1.3202
   77SLPC  H12B 6944   4.241   0.905   6.645 -1.3256 -0.0891  1.3414
   77SLPC   C11 6945   4.303   0.719   6.563 -0.2865 -0.1111  0.8852
   77SLPC  H11A 6946   4.357   0.671   6.647  1.2918 -1.2116 -0.6737
   77SLPC  H11B 6947   4.377   0.786   6.515 -0.8812 -1.0548 -1.5027
   77SLPC     P 6948   4.325   0.559   6.357 -0.6812 -0.2647  0.1254
   77SLPC   O13 6949   4.257   0.427   6.323 -0.1285 -0.2573  0.7129
   77SLPC   O14 6950   4.343   0.659   6.248  0.2485  0.1982  0.5281
   77SLPC   O12 6951   4.238   0.618   6.476 -0.1895  0.1587  0.1084
   77SLPC   O11 6952   4.463   0.533   6.443  0.0621 -0.0618  0.0706
   77SLPC    C1 6953   4.481   0.397   6.493  0.2804 -0.6425 -0.0362
   77SLPC    HA 6954   4.383   0.351   6.519 -0.8222  1.3300 -0.4995
   77SLPC    HB 6955   4.528   0.331   6.416  1.3621  0.4552 -0.3553
   77SLPC    C2 6956   4.577   0.391   6.617  0.1629 -0.4024 -0.0339
   77SLPC    HS 6957   4.607   0.287   6.638 -0.3241 -0.6024 -0.3186
   77SLPC   O21 6958   4.538   0.462   6.740  0.8030 -0.2291  0.1147
   77SLPC   C21 6959   4.432   0.415   6.794 -0.0855  0.0520 -0.4701
   77SLPC   O22 6960   4.363   0.323   6.751  0.2350  0.4616  0.2148
   77SLPC   C22 6961   4.417   0.482   6.933  0.0050 -0.4468  0.1685
   77SLPC   H2R 6962   4.519   0.493   6.976  0.7130 -2.8997 -0.7182
   77SLPC   H2S 6963   4.380   0.585   6.913  0.2089 -0.7321 -1.8536
   77SLPC    C3 6964   4.717   0.458   6.584 -0.6717  0.5484 -0.8262
   77SLPC    HX 6965   4.699   0.562   6.550 -1.1847  0.6945 -0.1132
   77SLPC    HY 6966   4.750   0.400   6.495  1.2420  1.1535 -0.5573
   77SLPC   O31 6967   4.817   0.459   6.695  0.1526 -0.0210 -0.0411
   77SLPC   C31 6968   4.893   0.564   6.717  0.4169 -0.2066  0.2943
   77SLPC   O32 6969   4.906   0.657   6.640  0.1016 -0.4877 -0.0683
   77SLPC   C32 6970   4.967   0.546   6.840  0.0126 -0.3259 -0.6956
   77SLPC   H2X 6971   5.077   0.553   6.826 -0.0581  0.7133 -0.8185
   77SLPC   H2Y 6972   4.944   0.448   6.885  0.0944 -0.8623 -1.7936
   77SLPC   C23 6973   4.325   0.401   7.030  0.3860 -0.0199  0.0451
   77SLPC   H3R 6974   4.344   0.292   7.015 -0.3172 -0.1908  0.3781
   77SLPC   H3S 6975   4.218   0.423   7.013  0.0632 -0.2343  1.6176
   77SLPC   C24 6976   4.359   0.416   7.180 -0.3817  0.2558 -0.8342
   77SLPC   H4R 6977   4.468   0.439   7.185 -0.4739  1.2684 -2.6274
   77SLPC   H4S 6978   4.351   0.313   7.222 -0.6759  0.4025 -0.5245
   77SLPC   C25 6979   4.278   0.512   7.264  0.4474 -0.3367 -0.3702
   77SLPC   H5R 6980   4.174   0.476   7.281  0.5830  0.6714  3.4980
   77SLPC   H5S 6981   4.268   0.609   7.210  3.5121  0.1438 -0.2256
   77SLPC   C26 6982   4.326   0.532   7.410 -0.5990 -1.1452  0.5596
   77SLPC   H6R 6983   4.245   0.592   7.457 -1.4797 -0.8901 -1.2109
   77SLPC   H6S 6984   4.420   0.591   7.411 -2.2472  1.7591 -1.3165
   77SLPC   C27 6985   4.347   0.403   7.493  0.2088  0.3448 -0.2238
   77SLPC   H7R 6986   4.445   0.360   7.461  0.7143  0.5373  1.0001
   77SLPC   H7S 6987   4.268   0.333   7.458 -1.1835  1.8398 -0.1669
   77SLPC   C28 6988   4.340   0.433   7.644 -0.2496 -0.5807 -0.0986
   77SLPC   H8R 6989   4.361   0.340   7.701 -0.3915  0.8448  2.4139
   77SLPC   H8S 6990   4.231   0.442   7.663 -0.6162  1.0368 -2.5145
   77SLPC   C29 6991   4.418   0.550   7.686 -0.0990 -0.3471  0.8956
   77SLPC   H9R 6992   4.458   0.612   7.605 -0.9735  0.1934  0.8737
   77SLPC  C210 6993   4.441   0.575   7.816 -0.0286 -0.2235  0.4942
   77SLPC  H10R 6994   4.509   0.660   7.830  1.7355 -1.5137  0.2048
   77SLPC  C211 6995   4.401   0.503   7.939  0.7265  0.1925 -0.7589
   77SLPC  H11R 6996   4.464   0.539   8.024  0.8608 -2.2654  0.2774
   77SLPC  H11S 6997   4.419   0.394   7.934 -0.5308 -0.1980  1.5536
   77SLPC  C212 6998   4.256   0.503   7.978 -0.5372  0.0703 -0.5659
   77SLPC  H12R 6999   4.191   0.442   7.913 -0.0169 -1.3672  0.2230
   77SLPC  C213 7000   4.207   0.550   8.092 -0.5133 -0.3249  0.0250
   77SLPC  H13R 7001   4.098   0.538   8.106 -0.1597 -2.1579  1.6071
   77SLPC  C214 7002   4.271   0.629   8.206 -0.2845  0.4454 -0.6540
   77SLPC  H14R 7003   4.224   0.728   8.225  0.8175  0.7184  0.8463
   77SLPC  H14S 7004   4.377   0.648   8.180  0.7202 -1.1396  1.9304
   77SLPC  C215 7005   4.256   0.544   8.335  0.5576 -0.2274  0.2659
   77SLPC  H15R 7006   4.149   0.511   8.330  1.6620 -4.1867 -1.2564
   77SLPC  H15S 7007   4.285   0.605   8.423 -1.4768 -0.3407  1.0690
   77SLPC  C216 7008   4.337   0.411   8.331 -0.7043 -0.0979  0.0347
   77SLPC  H16R 7009   4.446   0.426   8.346 -0.6340  0.9098 -1.3362
   77SLPC  H16S 7010   4.337   0.368   8.229  1.9051  0.8252 -0.4322
   77SLPC  C217 7011   4.278   0.318   8.442 -1.0974 -0.1971  0.3203
   77SLPC  H17R 7012   4.168   0.302   8.439 -0.9354 -1.5857  0.7954
   77SLPC  H17S 7013   4.298   0.373   8.536 -1.1736  0.2244  0.0888
   77SLPC  C218 7014   4.347   0.181   8.455 -0.1287  0.7165  0.1065
   77SLPC  H18R 7015   4.288   0.114   8.520 -1.3121  0.7561 -0.8882
   77SLPC  H18S 7016   4.453   0.202   8.484  0.2019  1.1454 -1.3319
   77SLPC  H18T 7017   4.354   0.138   8.353  1.9624  1.7032 -0.2206
   77SLPC   C33 7018   4.928   0.652   6.953 -0.0994  0.3623 -0.1018
   77SLPC   H3X 7019   4.822   0.648   6.986 -0.1066 -0.8766 -0.2346
   77SLPC   H3Y 7020   4.945   0.755   6.917 -1.3809 -0.4261 -3.3315
   77SLPC   C34 7021   5.016   0.634   7.069  0.6516  0.7348  0.7522
   77SLPC   H4X 7022   5.119   0.628   7.027  0.5903 -1.1374  0.7648
   77SLPC   H4Y 7023   5.002   0.534   7.116 -0.5910  0.8597  0.6734
   77SLPC   C35 7024   5.006   0.751   7.169 -0.8360 -0.4512  0.7077
   77SLPC   H5X 7025   4.908   0.771   7.217  0.4578  2.2113  2.4598
   77SLPC   H5Y 7026   5.045   0.845   7.124  0.7109 -1.6732 -0.6296
   77SLPC   C36 7027   5.101   0.736   7.289 -0.0654 -0.0889  0.8266
   77SLPC   H6X 7028   5.203   0.740   7.247 -1.2995  0.7503 -2.4242
   77SLPC   H6Y 7029   5.086   0.641   7.345 -0.6807 -1.1053 -0.9978
   77SLPC   C37 7030   5.094   0.852   7.397 -0.1796 -0.0428 -0.0169
   77SLPC   H7X 7031   4.990   0.856   7.436 -0.4725  2.0991 -0.8634
   77SLPC   H7Y 7032   5.101   0.950   7.344  0.8579  0.7021  1.4351
   77SLPC   C38 7033   5.195   0.841   7.517 -0.4128 -1.1429 -0.0209
   77SLPC   H8X 7034   5.292   0.872   7.473  0.3649 -2.2347  0.8629
   77SLPC   H8Y 7035   5.223   0.735   7.537  0.5901 -0.6644  1.2077
   77SLPC   C39 7036   5.137   0.919   7.637  0.4129 -0.3176 -0.2008
   77SLPC   H9X 7037   5.035   0.883   7.662 -0.8986  1.9332 -1.9069
   77SLPC   H9Y 7038   5.119   1.024   7.606  0.1472 -0.0142  0.9235
   77SLPC  C310 7039   5.225   0.899   7.758 -0.0796  0.5105  0.6796
   77SLPC  H10X 7040   5.320   0.944   7.722 -1.2428  1.9897 -0.6738
   77SLPC  H10Y 7041   5.240   0.793   7.789 -0.2492  0.5261  0.8162
   77SLPC  C311 7042   5.164   0.970   7.877 -0.1202 -0.4574  0.2331
   77SLPC  H11X 7043   5.056   0.949   7.895 -0.8152  2.0884 -0.4581
   77SLPC  H11Y 7044   5.165   1.080   7.858 -1.5373 -0.3108  0.8102
   77SLPC  C312 7045   5.249   0.947   8.002 -0.4583  0.3318 -0.3214
   77SLPC  H12X 7046   5.349   0.992   7.987 -0.3837 -0.6436 -3.4979
   77SLPC  H12Y 7047   5.267   0.839   8.017 -1.4376  0.2686  0.5328
   77SLPC  C313 7048   5.190   1.011   8.124  0.5632 -0.3674  0.1523
   77SLPC  H13X 7049   5.091   0.962   8.136 -0.5731  1.3876 -1.5082
   77SLPC  H13Y 7050   5.169   1.116   8.095 -0.4691  0.1347  2.4520
   77SLPC  C314 7051   5.287   0.992   8.244  0.3133  0.8924 -0.2873
   77SLPC  H14X 7052   5.373   1.051   8.207 -0.1267  1.5722 -0.2477
   77SLPC  H14Y 7053   5.302   0.883   8.255 -2.7747  0.3583 -0.2286
   77SLPC  C315 7054   5.238   1.054   8.374 -0.2286  0.2025 -0.0700
   77SLPC  H15X 7055   5.239   1.164   8.358  2.5768 -0.1107 -2.9265
   77SLPC  H15Y 7056   5.311   1.031   8.454 -0.6978  0.8254  0.5544
   77SLPC  C316 7057   5.094   1.024   8.421  0.2144 -0.3750 -0.9573
   77SLPC  H16X 7058   5.020   1.062   8.348  2.2227  2.4590 -1.6527
   77SLPC  H16Y 7059   5.068   1.093   8.503  0.0537 -2.9487  1.3045
   77SLPC  C317 7060   5.080   0.883   8.464  1.0796  0.7370  0.3820
   77SLPC  H17X 7061   5.114   0.863   8.568 -0.6352 -1.6243  0.5823
   77SLPC  H17Y 7062   5.140   0.818   8.397 -0.9709 -1.7572  0.8169
   77SLPC  C318 7063   4.938   0.822   8.460 -0.6449  0.4708 -0.2838
   77SLPC  H18X 7064   4.901   0.805   8.357 -2.0897 -0.2766  0.3225
   77SLPC  H18Y 7065   4.876   0.903   8.505 -0.1693  2.5249 -3.1064
   77SLPC  H18Z 7066   4.944   0.730   8.523  2.2561  0.3331 -0.6240
   78SLPC     N 7067   5.890   0.334   6.135 -0.3577 -0.0133 -0.5006
   78SLPC   C13 7068   5.980   0.386   6.026  0.1308  0.5441 -0.3417
   78SLPC  H13A 7069   6.050   0.452   6.075  0.8503  0.7802 -1.6289
   78SLPC  H13B 7070   6.052   0.317   5.984  0.3180  1.5685 -1.8226
   78SLPC  H13C 7071   5.926   0.441   5.950 -0.3666  0.8448  0.2260
   78SLPC   C14 7072   5.786   0.251   6.072  0.0462  0.0471  0.1155
   78SLPC  H14A 7073   5.699   0.237   6.134 -1.6952  1.9796 -1.7157
   78SLPC  H14B 7074   5.749   0.287   5.977  1.0959 -1.5090 -0.9459
   78SLPC  H14C 7075   5.825   0.151   6.057 -0.6304 -0.6084  2.3367
   78SLPC   C15 7076   5.830   0.456   6.193  0.3204 -0.5351 -0.0599
   78SLPC  H15A 7077   5.784   0.511   6.112 -2.6910  0.0415  1.8663
   78SLPC  H15B 7078   5.747   0.425   6.255 -0.1605 -0.2690 -0.5612
   78SLPC  H15C 7079   5.900   0.516   6.248 -0.4703 -1.0178  1.5172
   78SLPC   C12 7080   5.957   0.261   6.244  0.3155  0.1224  0.7132
   78SLPC  H12A 7081   5.883   0.227   6.315 -0.1054  0.3030  0.3653
   78SLPC  H12B 7082   6.022   0.330   6.295  0.0655  3.6139 -3.1301
   78SLPC   C11 7083   6.043   0.136   6.210  0.3327  0.7843  0.2141
   78SLPC  H11A 7084   6.096   0.103   6.302  1.1850 -0.5847 -0.7219
   78SLPC  H11B 7085   6.127   0.169   6.146 -1.0171  3.2252 -0.4278
   78SLPC     P 7086   5.878  -0.069   6.234 -0.1389 -0.2116  0.0308
   78SLPC   O13 7087   5.767  -0.116   6.154  0.2940 -0.0768  0.8997
   78SLPC   O14 7088   5.962  -0.182   6.284 -0.3121 -0.2958  0.4559
   78SLPC   O12 7089   5.961   0.032   6.145 -0.3780  0.4702  0.3279
   78SLPC   O11 7090   5.835   0.031   6.352  0.7847  0.5997  0.2364
   78SLPC    C1 7091   5.878   0.019   6.482 -0.1801 -0.3059 -0.9165
   78SLPC    HA 7092   5.989   0.017   6.488 -0.1795 -2.6414 -0.6895
   78SLPC    HB 7093   5.863   0.118   6.530  2.8527  0.2320 -0.9141
   78SLPC    C2 7094   5.822  -0.103   6.560 -0.3924 -0.2326  0.1823
   78SLPC    HS 7095   5.817  -0.193   6.494 -0.8297 -0.4024  0.4394
   78SLPC   O21 7096   5.691  -0.065   6.603 -0.0367 -0.3066 -0.1640
   78SLPC   C21 7097   5.588  -0.115   6.538 -0.2288 -0.1130 -0.3962
   78SLPC   O22 7098   5.594  -0.182   6.437 -0.3096  0.0646 -0.5393
   78SLPC   C22 7099   5.456  -0.080   6.608 -0.3987 -0.4013  0.1035
   78SLPC   H2R 7100   5.465   0.026   6.641  0.1483 -0.2882 -0.3921
   78SLPC   H2S 7101   5.371  -0.084   6.537  0.1748 -0.5867 -0.5884
   78SLPC    C3 7102   5.915  -0.146   6.683 -0.6345 -0.3377  0.8959
   78SLPC    HX 7103   5.923  -0.054   6.745  0.7786  0.0791  0.1364
   78SLPC    HY 7104   6.015  -0.168   6.641 -2.1261 -1.1534 -2.5977
   78SLPC   O31 7105   5.862  -0.258   6.754  0.0671  0.3589  0.1499
   78SLPC   C31 7106   5.913  -0.266   6.875 -0.3052 -0.0203  0.4942
   78SLPC   O32 7107   5.996  -0.192   6.921  0.4186 -0.4606 -0.1316
   78SLPC   C32 7108   5.850  -0.375   6.962 -0.8326  0.3375  0.2243
   78SLPC   H2X 7109   5.900  -0.471   6.939 -0.1577  0.8332 -0.4574
   78SLPC   H2Y 7110   5.742  -0.379   6.936 -1.0302  1.6529  0.7726
   78SLPC   C23 7111   5.425  -0.172   6.727 -0.7848  0.6084 -0.4030
   78SLPC   H3R 7112   5.445  -0.281   6.720 -0.2034  0.4486  2.4392
   78SLPC   H3S 7113   5.316  -0.154   6.737 -1.4981 -2.3488 -1.7123
   78SLPC   C24 7114   5.493  -0.125   6.853 -0.0800  0.4246  0.5237
   78SLPC   H4R 7115   5.466  -0.019   6.871 -0.3300  0.4943 -0.2331
   78SLPC   H4S 7116   5.603  -0.132   6.843 -0.2378  0.0062 -1.2137
   78SLPC   C25 7117   5.446  -0.213   6.969  0.4073 -0.1689 -0.8684
   78SLPC   H5R 7118   5.507  -0.302   6.993 -1.1332 -0.8619  0.7408
   78SLPC   H5S 7119   5.348  -0.251   6.933 -0.0123 -2.5222  2.3314
   78SLPC   C26 7120   5.412  -0.147   7.114 -0.1526  0.3312  0.5474
   78SLPC   H6R 7121   5.397  -0.233   7.182  1.4988 -0.5170 -0.1101
   78SLPC   H6S 7122   5.311  -0.101   7.105 -0.5477 -0.8547 -1.7320
   78SLPC   C27 7123   5.521  -0.057   7.177  0.7206  0.3122  0.0541
   78SLPC   H7R 7124   5.540   0.028   7.109 -1.8757  1.3712  0.5072
   78SLPC   H7S 7125   5.620  -0.106   7.185  1.0598  0.6663 -1.6538
   78SLPC   C28 7126   5.476   0.005   7.311  0.2071 -0.9986 -0.3466
   78SLPC   H8R 7127   5.557   0.066   7.356 -0.3205 -1.8246  1.8366
   78SLPC   H8S 7128   5.445  -0.082   7.373  1.2831 -2.4112 -1.7219
   78SLPC   C29 7129   5.356   0.099   7.302 -0.4042  0.5203  0.5822
   78SLPC   H9R 7130   5.335   0.111   7.195  2.2474 -1.1036 -0.2130
   78SLPC  C210 7131   5.282   0.152   7.398  0.4590  0.2272 -0.7001
   78SLPC  H10R 7132   5.206   0.219   7.356 -0.7690 -0.6089  0.1423
   78SLPC  C211 7133   5.289   0.132   7.548  0.0592  0.5644  1.0053
   78SLPC  H11R 7134   5.252   0.219   7.607 -1.0422  0.2230  0.8386
   78SLPC  H11S 7135   5.395   0.118   7.577  0.9583 -0.1878 -2.1816
   78SLPC  C212 7136   5.211   0.007   7.588 -0.0243 -0.5810 -0.6290
   78SLPC  H12R 7137   5.152  -0.044   7.510 -0.8088 -1.3805  0.4497
   78SLPC  C213 7138   5.188  -0.033   7.714  0.8468  0.5680  0.4009
   78SLPC  H13R 7139   5.137  -0.130   7.725  3.4327 -0.8857  0.2625
   78SLPC  C214 7140   5.235   0.033   7.841  0.0141  0.0128  0.2515
   78SLPC  H14R 7141   5.176   0.009   7.932  0.0397 -0.9713  0.0196
   78SLPC  H14S 7142   5.234   0.143   7.828  0.7239  0.0107  0.1332
   78SLPC  C215 7143   5.385   0.004   7.876 -0.3058 -0.2106  0.6124
   78SLPC  H15R 7144   5.414   0.066   7.963 -0.8797 -0.8119  1.2427
   78SLPC  H15S 7145   5.448   0.026   7.787 -1.1462 -1.7626 -0.4232
   78SLPC  C216 7146   5.425  -0.143   7.919  0.5733 -0.2357 -0.3957
   78SLPC  H16R 7147   5.527  -0.132   7.960  0.3854  2.2778 -0.3936
   78SLPC  H16S 7148   5.416  -0.207   7.829 -1.9836  0.3394 -0.6325
   78SLPC  C217 7149   5.338  -0.191   8.035  0.0033 -0.3441  0.2969
   78SLPC  H17R 7150   5.391  -0.276   8.082 -1.8009 -1.6482  0.1027
   78SLPC  H17S 7151   5.239  -0.230   8.001 -0.0330 -0.3372  0.3928
   78SLPC  C218 7152   5.313  -0.094   8.151 -0.5985 -0.3279  0.0445
   78SLPC  H18R 7153   5.235  -0.020   8.125 -0.2493  0.0775  0.1228
   78SLPC  H18S 7154   5.410  -0.048   8.181  0.0173 -1.7449  0.2993
   78SLPC  H18T 7155   5.287  -0.136   8.251  1.2959 -1.1991  0.2098
   78SLPC   C33 7156   5.876  -0.352   7.109  0.5438 -0.0404 -0.7411
   78SLPC   H3X 7157   5.820  -0.261   7.142  0.5872 -0.8335  1.7465
   78SLPC   H3Y 7158   5.979  -0.336   7.147  0.5463 -2.6276  0.5735
   78SLPC   C34 7159   5.829  -0.476   7.184  0.2163  0.2999 -0.6842
   78SLPC   H4X 7160   5.889  -0.563   7.151  1.8262  1.4797 -0.9760
   78SLPC   H4Y 7161   5.725  -0.497   7.152  0.4028 -0.4478 -0.8026
   78SLPC   C35 7162   5.828  -0.448   7.337 -0.8626 -0.2516  0.1256
   78SLPC   H5X 7163   5.932  -0.426   7.368 -0.6704 -2.2479  1.0560
   78SLPC   H5Y 7164   5.801  -0.544   7.386 -0.2100 -1.5468 -1.9322
   78SLPC   C36 7165   5.719  -0.356   7.384  0.5553  0.5627 -0.2851
   78SLPC   H6X 7166   5.632  -0.333   7.318 -1.2935 -0.9606  1.4783
   78SLPC   H6Y 7167   5.777  -0.262   7.382  1.1834  0.2077 -3.2060
   78SLPC   C37 7168   5.669  -0.385   7.523  0.6096 -0.4305  0.3453
   78SLPC   H7X 7169   5.632  -0.490   7.526  0.0377 -0.2835 -0.8202
   78SLPC   H7Y 7170   5.584  -0.316   7.536  3.0641  2.6036  1.4352
   78SLPC   C38 7171   5.765  -0.368   7.633 -1.0933 -0.0315 -0.3743
   78SLPC   H8X 7172   5.808  -0.266   7.637 -2.6197  0.6700 -0.8989
   78SLPC   H8Y 7173   5.849  -0.439   7.624 -1.2404 -0.1483 -0.8740
   78SLPC   C39 7174   5.694  -0.390   7.768 -0.3657  0.1053  0.1242
   78SLPC   H9X 7175   5.675  -0.499   7.769  0.8060 -0.1205 -0.4076
   78SLPC   H9Y 7176   5.596  -0.337   7.772  0.2525  1.3016 -0.1521
   78SLPC  C310 7177   5.787  -0.349   7.885  0.3390 -1.0538  0.3672
   78SLPC  H10X 7178   5.804  -0.239   7.877  0.1833 -1.0078  0.6694
   78SLPC  H10Y 7179   5.892  -0.384   7.882  1.5501  2.1711  0.4792
   78SLPC  C311 7180   5.727  -0.387   8.019  0.3765 -1.0068 -0.3025
   78SLPC  H11X 7181   5.716  -0.498   8.018  1.8250 -1.1847  0.1547
   78SLPC  H11Y 7182   5.627  -0.342   8.029 -0.0986 -1.4677 -2.4543
   78SLPC  C312 7183   5.818  -0.353   8.129  0.2503 -0.3099 -0.2951
   78SLPC  H12X 7184   5.922  -0.335   8.093  0.8933 -0.4856  1.3370
   78SLPC  H12Y 7185   5.823  -0.439   8.200  3.0412 -0.5927 -0.6866
   78SLPC  C313 7186   5.780  -0.232   8.218 -0.2508 -0.3741  0.6761
   78SLPC  H13X 7187   5.708  -0.281   8.287  2.3177 -1.2290  2.9089
   78SLPC  H13Y 7188   5.738  -0.151   8.154  0.9804  0.0055  0.3326
   78SLPC  C314 7189   5.892  -0.187   8.310 -0.0207 -0.6635 -0.1777
   78SLPC  H14X 7190   5.969  -0.125   8.260 -0.9656 -0.9617 -2.0971
   78SLPC  H14Y 7191   5.949  -0.274   8.350  0.2380 -0.7976 -0.8390
   78SLPC  C315 7192   5.843  -0.114   8.444  0.0142 -0.4149 -0.0863
   78SLPC  H15X 7193   5.771  -0.176   8.502 -0.7330  0.3504 -0.1687
   78SLPC  H15Y 7194   5.773  -0.036   8.406 -2.0678 -2.9394 -1.8354
   78SLPC  C316 7195   5.945  -0.052   8.536  0.1241 -0.6749  0.3180
   78SLPC  H16X 7196   6.004   0.013   8.468 -0.5891 -1.8826 -1.5541
   78SLPC  H16Y 7197   6.022  -0.125   8.570 -1.8103 -2.7809  0.4170
   78SLPC  C317 7198   5.896   0.013   8.666 -1.5615  0.4339 -0.2612
   78SLPC  H17X 7199   5.844  -0.061   8.730 -1.4747  2.1127  1.8716
   78SLPC  H17Y 7200   5.817   0.085   8.635 -0.2460  1.4115 -1.4945
   78SLPC  C318 7201   6.010   0.086   8.741  0.1178  0.1927 -0.0226
   78SLPC  H18X 7202   6.055   0.006   8.804  0.5822  0.5553  0.1133
   78SLPC  H18Y 7203   5.967   0.166   8.805 -3.5716 -0.5664 -1.3051
   78SLPC  H18Z 7204   6.077   0.140   8.671  0.8432  1.2433  1.4282
   79SLPC     N 7205   0.748   1.733   6.026 -0.4152  0.5248 -0.4389
   79SLPC   C13 7206   0.745   1.661   5.898 -0.3421 -0.3791 -0.1739
   79SLPC  H13A 7207   0.648   1.615   5.887 -1.6680  1.8719  1.4377
   79SLPC  H13B 7208   0.736   1.725   5.811 -2.6916 -1.1951 -0.6174
   79SLPC  H13C 7209   0.825   1.590   5.887 -1.4086 -1.8174  0.8895
   79SLPC   C14 7210   0.725   1.625   6.127 -0.3197 -0.0697  0.7801
   79SLPC  H14A 7211   0.801   1.549   6.136 -0.1475 -0.0485 -0.3453
   79SLPC  H14B 7212   0.721   1.668   6.226  0.7815 -1.6452  1.5580
   79SLPC  H14C 7213   0.631   1.573   6.115 -0.3202 -0.2668  1.6010
   79SLPC   C15 7214   0.646   1.838   6.028  0.8795 -0.0170 -0.0198
   79SLPC  H15A 7215   0.660   1.893   6.120 -0.4278  1.4105 -0.6376
   79SLPC  H15B 7216   0.656   1.904   5.944 -2.3471 -0.3480 -0.8181
   79SLPC  H15C 7217   0.550   1.788   6.029  1.0901 -0.4344 -0.1227
   79SLPC   C12 7218   0.887   1.796   6.042 -0.1810  1.1307 -0.3971
   79SLPC  H12A 7219   0.888   1.863   6.126  0.2699  1.4610 -0.6603
   79SLPC  H12B 7220   0.914   1.849   5.952 -0.8605  1.1226 -0.6074
   79SLPC   C11 7221   1.012   1.695   6.050  0.3054 -0.6768  0.1705
   79SLPC  H11A 7222   1.109   1.748   6.039  0.1198 -0.4713 -0.5143
   79SLPC  H11B 7223   1.011   1.633   5.958 -2.1235  0.2987 -0.5445
   79SLPC     P 7224   1.071   1.670   6.293  0.0723  0.1020 -0.1995
   79SLPC   O13 7225   0.949   1.704   6.378 -0.2795  0.1078  0.4182
   79SLPC   O14 7226   1.167   1.576   6.354  0.0546  0.0567 -0.3763
   79SLPC   O12 7227   1.017   1.605   6.157 -0.5217  0.1769 -0.0480
   79SLPC   O11 7228   1.152   1.800   6.254  0.2725 -0.1328 -0.9317
   79SLPC    C1 7229   1.293   1.824   6.267  0.4603 -0.5126  0.0043
   79SLPC    HA 7230   1.355   1.751   6.211  0.9337  1.8014 -2.7044
   79SLPC    HB 7231   1.322   1.922   6.224 -1.5967 -0.7774 -2.1409
   79SLPC    C2 7232   1.335   1.827   6.417  0.5075  0.1091  0.1199
   79SLPC    HS 7233   1.321   1.723   6.453 -2.9506  0.6546  0.7539
   79SLPC   O21 7234   1.246   1.915   6.489 -0.7157 -0.0035  0.0134
   79SLPC   C21 7235   1.203   1.877   6.610 -0.5570  0.5489 -0.5170
   79SLPC   O22 7236   1.233   1.771   6.673  0.0916 -0.1873  0.2622
   79SLPC   C22 7237   1.107   1.986   6.658  0.1440 -0.4437 -0.4481
   79SLPC   H2R 7238   1.169   2.078   6.669  0.7376 -0.8600 -0.2799
   79SLPC   H2S 7239   1.037   2.003   6.574 -2.1582 -2.0533  1.0510
   79SLPC    C3 7240   1.475   1.873   6.433  0.2890 -0.0505 -0.4104
   79SLPC    HX 7241   1.462   1.981   6.411 -2.0139 -0.4781 -1.3741
   79SLPC    HY 7242   1.548   1.843   6.355  0.4213  0.8929 -0.6627
   79SLPC   O31 7243   1.506   1.838   6.576 -0.4568  0.0156  0.2885
   79SLPC   C31 7244   1.557   1.718   6.584  0.3380  0.1459  0.2717
   79SLPC   O32 7245   1.573   1.644   6.489 -0.7331  0.0013 -0.3189
   79SLPC   C32 7246   1.598   1.691   6.729  0.0304  0.1931 -0.1092
   79SLPC   H2X 7247   1.574   1.780   6.792  1.3083 -0.4293  1.3093
   79SLPC   H2Y 7248   1.707   1.677   6.736 -0.1987 -1.5252  0.5249
   79SLPC   C23 7249   1.031   1.954   6.793 -0.3514  0.0709  0.5933
   79SLPC   H3R 7250   0.950   1.883   6.765  0.6279 -0.5324 -0.8187
   79SLPC   H3S 7251   0.983   2.051   6.817 -0.5404  0.6487 -1.7885
   79SLPC   C24 7252   1.113   1.915   6.910 -0.9319  0.3400  0.5565
   79SLPC   H4R 7253   1.205   1.976   6.913  0.5565 -1.5636 -2.2145
   79SLPC   H4S 7254   1.135   1.807   6.893 -1.4927  0.3624 -0.3879
   79SLPC   C25 7255   1.032   1.943   7.033  0.5582  0.2782  0.3877
   79SLPC   H5R 7256   0.939   1.882   7.028 -0.6364  1.6583  3.1991
   79SLPC   H5S 7257   0.997   2.048   7.041  0.1429  0.1380  0.4439
   79SLPC   C26 7258   1.099   1.900   7.164 -0.3193 -0.5730  0.1432
   79SLPC   H6R 7259   1.028   1.911   7.249 -3.0637  1.4161 -2.1884
   79SLPC   H6S 7260   1.174   1.982   7.173 -0.5902 -0.0359 -1.8972
   79SLPC   C27 7261   1.163   1.762   7.166  0.6781 -0.3368  0.2230
   79SLPC   H7R 7262   1.232   1.757   7.080 -0.9779  2.1711 -1.3570
   79SLPC   H7S 7263   1.089   1.679   7.161  0.8929 -0.6809  1.9844
   79SLPC   C28 7264   1.226   1.739   7.299  0.6154 -0.2660 -0.1561
   79SLPC   H8R 7265   1.232   1.629   7.314 -2.2664 -0.5562 -0.5406
   79SLPC   H8S 7266   1.154   1.770   7.378  0.7357  0.1082 -0.1951
   79SLPC   C29 7267   1.361   1.801   7.317 -0.2932 -0.4810  0.5749
   79SLPC   H9R 7268   1.413   1.805   7.220 -2.5313  2.7065 -0.6445
   79SLPC  C210 7269   1.407   1.866   7.428 -0.2826  0.1850  0.1442
   79SLPC  H10R 7270   1.512   1.899   7.431  0.2625 -1.4358 -0.2048
   79SLPC  C211 7271   1.336   1.880   7.559  0.5943  0.2872  0.8114
   79SLPC  H11R 7272   1.225   1.881   7.545  0.4688  1.2724  1.7394
   79SLPC  H11S 7273   1.356   1.983   7.595  0.7428  0.9542 -1.0791
   79SLPC  C212 7274   1.372   1.785   7.667  0.1291  0.1648 -0.5082
   79SLPC  H12R 7275   1.383   1.681   7.632 -1.9089  0.5416 -2.5073
   79SLPC  C213 7276   1.383   1.807   7.802  0.6147  0.3814 -0.1563
   79SLPC  H13R 7277   1.408   1.718   7.861 -1.0991 -0.2722 -0.3537
   79SLPC  C214 7278   1.362   1.935   7.876  0.0164 -0.1504  0.1134
   79SLPC  H14R 7279   1.265   1.943   7.929 -0.9838  0.7824 -1.7840
   79SLPC  H14S 7280   1.359   2.028   7.815  1.0991  1.3562  2.2345
   79SLPC  C215 7281   1.476   1.967   7.981  0.6891 -0.1387  0.3827
   79SLPC  H15R 7282   1.560   2.021   7.932  2.1254 -1.5177  1.2428
   79SLPC  H15S 7283   1.508   1.874   8.033 -1.6161 -0.7180  0.8781
   79SLPC  C216 7284   1.418   2.063   8.082  0.3558 -0.5338  0.1903
   79SLPC  H16R 7285   1.321   2.017   8.112  0.8371 -1.0011  1.0693
   79SLPC  H16S 7286   1.398   2.162   8.036  0.8817 -1.2888 -1.7937
   79SLPC  C217 7287   1.505   2.074   8.211 -0.0504  0.4222  0.5114
   79SLPC  H17R 7288   1.558   1.977   8.220  0.2495  0.6010  0.7010
   79SLPC  H17S 7289   1.435   2.089   8.296 -1.6899  0.6252 -0.8336
   79SLPC  C218 7290   1.595   2.192   8.196  0.3029 -0.7103 -0.5454
   79SLPC  H18R 7291   1.679   2.199   8.268  0.7255 -1.9631 -0.8863
   79SLPC  H18S 7292   1.529   2.281   8.205 -0.8756 -1.4606 -1.4460
   79SLPC  H18T 7293   1.642   2.191   8.095  3.2674 -0.0560  0.7152
   79SLPC   C33 7294   1.520   1.571   6.789  0.0247  0.1462  0.1527
   79SLPC   H3X 7295   1.550   1.476   6.739 -2.1012  1.1242 -3.3505
   79SLPC   H3Y 7296   1.411   1.588   6.770 -0.1886  0.0562  1.2218
   79SLPC   C34 7297   1.546   1.551   6.937  1.1629  0.7485  0.6549
   79SLPC   H4X 7298   1.489   1.626   6.996 -0.5347  1.2252 -1.4829
   79SLPC   H4Y 7299   1.653   1.564   6.966  0.9191  0.1201  1.8816
   79SLPC   C35 7300   1.495   1.408   6.984 -0.0438  0.3809  0.6817
   79SLPC   H5X 7301   1.514   1.343   6.896  1.2026  2.9246 -1.0507
   79SLPC   H5Y 7302   1.386   1.419   6.999 -0.3768 -0.7567 -0.6368
   79SLPC   C36 7303   1.571   1.361   7.111 -0.0715  0.4237  0.4043
   79SLPC   H6X 7304   1.681   1.358   7.098  0.1682  1.2687  1.9702
   79SLPC   H6Y 7305   1.549   1.255   7.137 -2.6314  0.2932 -1.8201
   79SLPC   C37 7306   1.536   1.451   7.229 -0.1218  0.4453 -0.0364
   79SLPC   H7X 7307   1.428   1.442   7.252 -0.1412  0.7322 -0.0117
   79SLPC   H7Y 7308   1.569   1.553   7.199 -2.5366  1.2059 -0.3505
   79SLPC   C38 7309   1.619   1.420   7.359  0.4364 -0.0606  0.8701
   79SLPC   H8X 7310   1.723   1.437   7.326  0.4078  0.0709  0.8476
   79SLPC   H8Y 7311   1.601   1.316   7.396 -0.8515 -0.3113 -0.3591
   79SLPC   C39 7312   1.598   1.528   7.461 -0.2970  0.5316 -0.5617
   79SLPC   H9X 7313   1.489   1.533   7.482  0.0264  0.2182  1.4347
   79SLPC   H9Y 7314   1.633   1.625   7.418 -0.7413  0.8197 -0.2868
   79SLPC  C310 7315   1.679   1.521   7.593  0.0422  0.1233  0.2356
   79SLPC  H10X 7316   1.787   1.505   7.575  0.1438 -0.6089  1.3900
   79SLPC  H10Y 7317   1.647   1.436   7.656 -1.8020  0.1771 -0.5540
   79SLPC  C311 7318   1.652   1.640   7.691  0.0527  0.2773 -0.0374
   79SLPC  H11X 7319   1.557   1.607   7.738  0.4967 -1.0598 -0.0452
   79SLPC  H11Y 7320   1.646   1.739   7.641  0.6403  0.4116  0.1485
   79SLPC  C312 7321   1.759   1.634   7.802  0.2209 -0.0256  0.1587
   79SLPC  H12X 7322   1.861   1.656   7.763  1.1892  0.0950  2.5875
   79SLPC  H12Y 7323   1.761   1.528   7.835 -0.0503  0.2862  1.2134
   79SLPC  C313 7324   1.726   1.717   7.927  0.3220  0.0669  0.2656
   79SLPC  H13X 7325   1.631   1.683   7.972  0.8228 -1.6855  0.0669
   79SLPC  H13Y 7326   1.701   1.820   7.895 -1.2289 -0.1879  0.5790
   79SLPC  C314 7327   1.847   1.726   8.029  0.3461  0.8815 -0.4875
   79SLPC  H14X 7328   1.945   1.755   7.985  1.2892 -0.4614  0.6281
   79SLPC  H14Y 7329   1.856   1.619   8.057 -3.2072  0.5679 -0.1239
   79SLPC  C315 7330   1.805   1.806   8.159  0.6474  0.4438  0.7119
   79SLPC  H15X 7331   1.716   1.752   8.197 -0.6906 -0.5762 -3.3846
   79SLPC  H15Y 7332   1.780   1.913   8.144 -1.4367  0.0856  1.2833
   79SLPC  C316 7333   1.906   1.792   8.274  0.4692 -0.4031  0.4799
   79SLPC  H16X 7334   2.012   1.817   8.252  0.8768 -0.6486  2.0443
   79SLPC  H16Y 7335   1.903   1.690   8.319  0.2827  0.4859  2.6323
   79SLPC  C317 7336   1.864   1.876   8.402 -0.1550 -0.6948 -0.0334
   79SLPC  H17X 7337   1.757   1.853   8.422  0.4169 -3.2297  0.4892
   79SLPC  H17Y 7338   1.882   1.983   8.379 -0.7636 -0.9812 -2.1068
   79SLPC  C318 7339   1.933   1.836   8.536  0.4237  0.3762  1.5040
   79SLPC  H18X 7340   1.937   1.726   8.546 -0.6339  0.2160  0.3679
   79SLPC  H18Y 7341   1.870   1.868   8.621 -3.1680  0.1307 -0.8454
   79SLPC  H18Z 7342   2.038   1.872   8.542 -0.1642  2.3940  0.6605
   80SLPC     N 7343   4.358   6.674   6.351 -0.9967  0.4040 -0.5065
   80SLPC   C13 7344   4.245   6.746   6.422  0.3587 -0.5576 -0.4215
   80SLPC  H13A 7345   4.271   6.740   6.527  1.1492 -1.0560 -0.6445
   80SLPC  H13B 7346   4.233   6.852   6.401  1.1930  0.1537  2.2844
   80SLPC  H13C 7347   4.153   6.691   6.409  0.4284 -0.7252 -0.2177
   80SLPC   C14 7348   4.360   6.697   6.212  0.6323  0.5363  0.1408
   80SLPC  H14A 7349   4.271   6.660   6.163  0.4348  0.4847  0.5371
   80SLPC  H14B 7350   4.359   6.804   6.197  0.9145  0.6348  0.7903
   80SLPC  H14C 7351   4.440   6.652   6.155  0.6167  0.0435  0.5024
   80SLPC   C15 7352   4.342   6.528   6.385  0.3472  0.6266  0.0066
   80SLPC  H15A 7353   4.342   6.499   6.490 -0.0814  1.0724  0.1331
   80SLPC  H15B 7354   4.249   6.497   6.339  0.6206  0.0990 -0.1903
   80SLPC  H15C 7355   4.420   6.468   6.343 -0.1132  0.6807 -0.9543
   80SLPC   C12 7356   4.491   6.719   6.405 -0.4617  0.1161 -0.2211
   80SLPC  H12A 7357   4.571   6.659   6.365  0.1956  0.8811 -0.0669
   80SLPC  H12B 7358   4.483   6.708   6.512 -0.3337 -0.8697 -0.2985
   80SLPC   C11 7359   4.533   6.861   6.370  0.2962 -0.0195 -0.7512
   80SLPC  H11A 7360   4.588   6.893   6.461 -0.3882 -1.0527  0.0487
   80SLPC  H11B 7361   4.448   6.933   6.360 -0.0245 -0.4557 -1.2759
   80SLPC     P 7362   4.715   6.955   6.205  0.1200  0.4690 -0.1593
   80SLPC   O13 7363   4.784   6.888   6.095 -0.0548  0.0889  0.0006
   80SLPC   O14 7364   4.659   7.091   6.174 -0.3499  0.6860  0.5150
   80SLPC   O12 7365   4.606   6.860   6.245  0.2159 -0.2550 -0.4927
   80SLPC   O11 7366   4.819   6.948   6.320 -0.0026  0.8638 -0.7194
   80SLPC    C1 7367   4.896   6.820   6.339  1.0905 -0.4168 -0.5067
   80SLPC    HA 7368   4.836   6.732   6.308  1.2587 -0.2696 -1.2788
   80SLPC    HB 7369   4.990   6.837   6.282  1.9030  4.8603  1.7798
   80SLPC    C2 7370   4.938   6.784   6.488  0.5458  0.6205  0.6858
   80SLPC    HS 7371   4.840   6.779   6.541 -1.3896 -1.3477 -2.7234
   80SLPC   O21 7372   5.030   6.883   6.541 -0.2858  0.0723  0.0671
   80SLPC   C21 7373   5.004   6.906   6.666  0.0592  0.5108  0.6098
   80SLPC   O22 7374   4.910   6.860   6.729 -0.1521 -0.9192  0.1251
   80SLPC   C22 7375   5.116   6.990   6.727  0.4160 -0.0339 -0.2516
   80SLPC   H2R 7376   5.210   6.991   6.667 -0.8209  0.7318 -2.2987
   80SLPC   H2S 7377   5.066   7.089   6.729 -2.8199 -1.4834 -1.5290
   80SLPC    C3 7378   5.004   6.644   6.492  0.1754  0.4508 -0.8611
   80SLPC    HX 7379   5.099   6.652   6.435 -0.0266  2.0394 -1.0154
   80SLPC    HY 7380   4.946   6.561   6.445  1.7867 -1.0051 -0.3958
   80SLPC   O31 7381   5.037   6.618   6.638  0.2216  0.3730  0.2223
   80SLPC   C31 7382   4.940   6.550   6.705  0.1594 -0.3921 -0.0245
   80SLPC   O32 7383   4.831   6.512   6.664  0.3768 -0.3092  0.0282
   80SLPC   C32 7384   4.978   6.546   6.849 -0.0725  0.0157  0.1299
   80SLPC   H2X 7385   4.937   6.636   6.899 -2.1814 -0.5007 -0.5558
   80SLPC   H2Y 7386   5.089   6.542   6.855  0.0943  3.1159  0.6671
   80SLPC   C23 7387   5.137   6.950   6.881  0.2897 -0.9045  0.6860
   80SLPC   H3R 7388   5.205   6.862   6.875  1.1098 -0.2001 -3.1651
   80SLPC   H3S 7389   5.039   6.928   6.927  0.3638  1.4635  2.1862
   80SLPC   C24 7390   5.220   7.046   6.969 -0.2575  0.2707 -0.0628
   80SLPC   H4R 7391   5.232   7.005   7.071  0.7119  0.6620 -0.0083
   80SLPC   H4S 7392   5.156   7.134   6.988  2.1420  1.6907  2.1103
   80SLPC   C25 7393   5.356   7.077   6.908  0.3458 -0.5350  0.0188
   80SLPC   H5R 7394   5.341   7.108   6.803  2.0671  2.8807  0.6433
   80SLPC   H5S 7395   5.431   6.995   6.913  1.2676  0.3235  0.8188
   80SLPC   C26 7396   5.413   7.197   6.990  0.1403  0.1892  0.2147
   80SLPC   H6R 7397   5.330   7.271   7.002 -0.4518 -0.3704 -0.3492
   80SLPC   H6S 7398   5.495   7.248   6.934 -0.3068 -0.6063 -1.2169
   80SLPC   C27 7399   5.464   7.143   7.126  0.6000 -0.3647  0.0733
   80SLPC   H7R 7400   5.520   7.050   7.105  0.6527 -0.1853 -0.6283
   80SLPC   H7S 7401   5.375   7.122   7.188  0.7680  0.5853  0.6571
   80SLPC   C28 7402   5.567   7.235   7.190 -0.0999 -0.3512  0.2049
   80SLPC   H8R 7403   5.635   7.260   7.106 -1.4153 -0.7558 -1.0143
   80SLPC   H8S 7404   5.623   7.184   7.272  0.5074  1.4528  0.9574
   80SLPC   C29 7405   5.499   7.362   7.246  0.6860  0.1354 -0.3221
   80SLPC   H9R 7406   5.473   7.444   7.178  1.0286  1.0722  0.6477
   80SLPC  C210 7407   5.471   7.387   7.375 -1.2711 -0.0069 -0.2403
   80SLPC  H10R 7408   5.440   7.489   7.402 -1.7740  0.2226 -1.6205
   80SLPC  C211 7409   5.510   7.302   7.492 -0.1277  0.6675 -0.4073
   80SLPC  H11R 7410   5.577   7.364   7.556 -0.5125  1.4456 -0.7453
   80SLPC  H11S 7411   5.585   7.227   7.458  0.2438  1.2058 -0.7933
   80SLPC  C212 7412   5.385   7.247   7.560 -0.7423 -0.5945  0.1871
   80SLPC  H12R 7413   5.319   7.191   7.493  2.3899 -0.2905 -3.4879
   80SLPC  C213 7414   5.336   7.262   7.690  0.4683 -0.1672  0.5667
   80SLPC  H13R 7415   5.240   7.215   7.715 -0.9111  2.8787  1.4392
   80SLPC  C214 7416   5.401   7.334   7.807  0.0885  0.2929 -0.0023
   80SLPC  H14R 7417   5.436   7.436   7.780  1.5047 -0.4295 -0.9861
   80SLPC  H14S 7418   5.479   7.267   7.848 -1.9577 -1.1755  1.7265
   80SLPC  C215 7419   5.296   7.351   7.916 -0.3255 -0.7682  0.9600
   80SLPC  H15R 7420   5.203   7.396   7.875  0.6857  0.2010 -0.3657
   80SLPC  H15S 7421   5.347   7.424   7.983  1.1175 -1.1942  0.3758
   80SLPC  C216 7422   5.274   7.231   8.009  0.1213 -0.0877  0.9104
   80SLPC  H16R 7423   5.360   7.162   8.015  0.1121 -0.7371 -3.2837
   80SLPC  H16S 7424   5.191   7.176   7.959  0.4278 -1.4374  1.8441
   80SLPC  C217 7425   5.216   7.271   8.146 -0.1541 -0.1985 -0.9256
   80SLPC  H17R 7426   5.155   7.186   8.185  0.1932 -0.7877 -1.6430
   80SLPC  H17S 7427   5.154   7.362   8.139  1.1140  0.8033  0.2129
   80SLPC  C218 7428   5.319   7.307   8.256  0.9702 -0.5816  0.3340
   80SLPC  H18R 7429   5.378   7.400   8.238  0.4491 -0.4008 -0.4825
   80SLPC  H18S 7430   5.386   7.220   8.274  2.0795  0.2928  0.5332
   80SLPC  H18T 7431   5.266   7.330   8.351  1.7725 -0.4470  0.7588
   80SLPC   C33 7432   4.919   6.418   6.913 -0.0589  0.0865 -0.6654
   80SLPC   H3X 7433   4.957   6.325   6.864  2.0701  0.6254 -0.1333
   80SLPC   H3Y 7434   4.809   6.403   6.905  0.1024 -1.6385 -0.1013
   80SLPC   C34 7435   4.957   6.400   7.059  0.0949 -0.2281 -0.0767
   80SLPC   H4X 7436   5.066   6.390   7.073 -0.1340 -0.1748  2.1636
   80SLPC   H4Y 7437   4.919   6.304   7.101 -0.3536  0.1329  0.3598
   80SLPC   C35 7438   4.909   6.501   7.159  0.2123  0.6322  0.1620
   80SLPC   H5X 7439   4.806   6.530   7.131 -0.7318 -2.8198 -0.4696
   80SLPC   H5Y 7440   4.970   6.593   7.147  1.7688 -0.4433 -0.5188
   80SLPC   C36 7441   4.916   6.449   7.301 -0.0783  0.0359 -0.3553
   80SLPC   H6X 7442   5.014   6.397   7.311  0.9913  1.8714 -0.7325
   80SLPC   H6Y 7443   4.843   6.367   7.313  0.2437 -0.2448 -0.3174
   80SLPC   C37 7444   4.915   6.555   7.407 -0.1373  0.6479  0.4658
   80SLPC   H7X 7445   4.820   6.611   7.414  0.8451  2.2092  2.3752
   80SLPC   H7Y 7446   4.991   6.633   7.382 -1.4013  1.6763 -0.2411
   80SLPC   C38 7447   4.936   6.498   7.547  0.2462  0.2947 -1.0959
   80SLPC   H8X 7448   4.949   6.580   7.621 -0.6755  0.5404 -1.2018
   80SLPC   H8Y 7449   5.028   6.436   7.556  0.4544  0.5369 -1.5317
   80SLPC   C39 7450   4.814   6.410   7.598 -0.1913  0.9470  0.0816
   80SLPC   H9X 7451   4.796   6.329   7.524 -0.3398  0.7576  0.3244
   80SLPC   H9Y 7452   4.722   6.471   7.609 -0.1805  1.2406 -1.2801
   80SLPC  C310 7453   4.836   6.349   7.740  0.5062 -0.0779 -0.0826
   80SLPC  H10X 7454   4.939   6.307   7.734 -0.0805 -1.3418 -3.3998
   80SLPC  H10Y 7455   4.772   6.262   7.765  1.6183 -0.8667  0.0871
   80SLPC  C311 7456   4.824   6.460   7.848 -0.3057 -0.0016  0.2985
   80SLPC  H11X 7457   4.725   6.508   7.833  0.3566  0.7131 -2.1542
   80SLPC  H11Y 7458   4.901   6.536   7.823 -1.3434  1.3308  1.0134
   80SLPC  C312 7459   4.858   6.405   7.986 -0.3540 -0.1340 -0.3177
   80SLPC  H12X 7460   4.967   6.386   7.990 -0.3460  0.1235  1.3603
   80SLPC  H12Y 7461   4.817   6.302   7.995 -0.3706 -0.1121 -0.1485
   80SLPC  C313 7462   4.814   6.500   8.098 -0.4071 -0.0598 -1.1478
   80SLPC  H13X 7463   4.703   6.489   8.105 -0.3855 -0.9757 -1.9889
   80SLPC  H13Y 7464   4.831   6.610   8.090 -2.1816  0.3719  0.2916
   80SLPC  C314 7465   4.866   6.465   8.239  1.0752 -0.4190  0.0036
   80SLPC  H14X 7466   4.839   6.359   8.253  0.6002 -0.0482  2.2768
   80SLPC  H14Y 7467   4.818   6.532   8.313  0.9794 -0.4399 -0.0396
   80SLPC  C315 7468   5.016   6.485   8.266  0.3615  0.0000 -0.3371
   80SLPC  H15X 7469   5.046   6.585   8.226 -1.5018  0.6327 -0.2368
   80SLPC  H15Y 7470   5.083   6.412   8.217 -0.7626  0.6449 -3.0270
   80SLPC  C316 7471   5.050   6.489   8.413 -0.1645 -0.9247 -0.3051
   80SLPC  H16X 7472   4.975   6.564   8.448 -0.3230 -2.0387  1.9351
   80SLPC  H16Y 7473   5.143   6.548   8.426 -1.1075  0.1236  2.8273
   80SLPC  C317 7474   5.035   6.352   8.469  0.2173  0.6434  0.2299
   80SLPC  H17X 7475   5.080   6.284   8.394 -0.5804  0.7497 -0.3642
   80SLPC  H17Y 7476   4.929   6.323   8.488  0.7446 -0.9738  0.8681
   80SLPC  C318 7477   5.113   6.325   8.598 -0.7366  0.2803 -0.1562
   80SLPC  H18X 7478   5.220   6.344   8.577 -0.5917 -0.3462  0.0022
   80SLPC  H18Y 7479   5.100   6.228   8.650 -2.3236  0.9517  0.7899
   80SLPC  H18Z 7480   5.082   6.396   8.677  2.8017  1.4025  0.3558
   81SAPS     N 7481   5.136   6.256  10.746  0.3213 -0.0147 -0.5433
   81SAPS   HN1 7482   5.108   6.215  10.655 -2.3250 -0.9986  0.6033
   81SAPS   HN2 7483   5.224   6.311  10.743 -0.7112  1.7898  0.3642
   81SAPS   HN3 7484   5.147   6.179  10.815 -2.5632  0.0868  0.1638
   81SAPS   C12 7485   5.024   6.340  10.787  0.5934 -0.0681 -0.0283
   81SAPS  H12A 7486   5.017   6.415  10.710 -0.0197  0.0362  0.1189
   81SAPS   C13 7487   4.891   6.266  10.810  0.4813 -0.1348  0.2017
   81SAPS  O13A 7488   4.876   6.151  10.755  0.0463 -0.1218 -0.5276
   81SAPS  O13B 7489   4.794   6.325  10.870 -0.1728 -0.6911 -0.8056
   81SAPS   C11 7490   5.064   6.416  10.917 -0.3899  0.2142 -0.1622
   81SAPS  H11A 7491   5.075   6.349  11.005 -0.6119  0.9399  0.4326
   81SAPS  H11B 7492   4.996   6.499  10.945  1.5766  2.3977 -1.4029
   81SAPS     P 7493   5.276   6.553  10.994 -0.2331  0.1298 -0.0666
   81SAPS   O13 7494   5.212   6.674  11.045  0.1057 -0.8213  0.0679
   81SAPS   O14 7495   5.314   6.449  11.092 -0.1569 -0.3253 -0.3072
   81SAPS   O12 7496   5.187   6.482  10.884 -0.4815 -0.2648  0.2756
   81SAPS   O11 7497   5.403   6.599  10.917 -0.0481 -0.1487  0.8182
   81SAPS    C1 7498   5.387   6.673  10.791 -0.3042 -0.9355 -0.4916
   81SAPS    HA 7499   5.293   6.731  10.781 -0.4769 -0.7637  1.7862
   81SAPS    HB 7500   5.472   6.744  10.781  0.6990 -1.9206  0.6149
   81SAPS    C2 7501   5.397   6.573  10.668 -0.1032 -0.7029  0.7025
   81SAPS    HS 7502   5.312   6.502  10.668  0.8745 -1.9357  1.0833
   81SAPS   O21 7503   5.520   6.493  10.678  0.0488  0.3500  0.2168
   81SAPS   C21 7504   5.509   6.365  10.708 -0.4727  0.3152  0.1014
   81SAPS   O22 7505   5.411   6.308  10.750 -0.4698  0.0501  0.3370
   81SAPS   C22 7506   5.647   6.300  10.711  0.7603  0.1023  0.7260
   81SAPS   H2R 7507   5.727   6.376  10.701  0.4217  0.2590 -1.0594
   81SAPS   H2S 7508   5.660   6.228  10.794 -2.9708 -1.0527  0.4827
   81SAPS    C3 7509   5.387   6.656  10.533  0.6908  0.5106 -0.3282
   81SAPS    HX 7510   5.462   6.738  10.529 -0.4287  1.5688 -0.1900
   81SAPS    HY 7511   5.291   6.710  10.523  1.0448  0.9737 -1.4900
   81SAPS   O31 7512   5.409   6.568  10.413  0.4903 -0.3548  0.4039
   81SAPS   C31 7513   5.293   6.511  10.355 -0.1674 -0.5785 -1.0197
   81SAPS   O32 7514   5.186   6.510  10.408 -0.1210 -0.5620 -0.2405
   81SAPS   C32 7515   5.320   6.481  10.210  0.2043  0.0698  0.3604
   81SAPS   H2X 7516   5.288   6.378  10.183  0.2557  0.2516 -0.4191
   81SAPS   H2Y 7517   5.429   6.465  10.203  0.6625  2.7486  0.0825
   81SAPS   C23 7518   5.658   6.199  10.588 -0.4695  0.0612  0.0007
   81SAPS   H3R 7519   5.758   6.152  10.600 -0.0228  1.0872  0.3648
   81SAPS   H3S 7520   5.666   6.252  10.490  1.2508  0.3766  0.2897
   81SAPS   C24 7521   5.545   6.090  10.575  0.1018  0.0362  0.0943
   81SAPS   H4R 7522   5.452   6.149  10.561  1.0197  1.4281 -0.2690
   81SAPS   H4S 7523   5.531   6.047  10.677  0.2669 -1.0895 -0.3342
   81SAPS   C25 7524   5.590   5.989  10.477  0.9793 -0.5004  0.0798
   81SAPS   H5R 7525   5.672   5.924  10.513  1.3697 -1.2883 -2.0444
   81SAPS   C26 7526   5.555   5.990  10.347  0.3435  0.2209 -0.0596
   81SAPS   H6R 7527   5.578   5.900  10.288  0.6111  1.3959 -1.8363
   81SAPS   C27 7528   5.471   6.096  10.282 -0.1647  0.0215 -0.0421
   81SAPS   H7R 7529   5.413   6.148  10.362 -1.4891 -0.2457 -0.7885
   81SAPS   H7S 7530   5.401   6.058  10.204  1.6899  0.0795 -1.8080
   81SAPS   C28 7531   5.568   6.196  10.216  0.8669 -0.0802 -0.3942
   81SAPS   H8R 7532   5.611   6.259  10.296  1.2235 -1.8176  0.8569
   81SAPS   C29 7533   5.602   6.222  10.088 -0.1144  0.0992 -0.0828
   81SAPS   H9R 7534   5.682   6.292  10.059 -0.1620  0.4506  0.6181
   81SAPS  C210 7535   5.551   6.140   9.976  0.6534  0.2725  0.3930
   81SAPS  H10R 7536   5.450   6.106  10.006  1.1724 -0.1580  1.7122
   81SAPS  H10S 7537   5.612   6.050   9.954 -0.1645 -0.3245  0.5346
   81SAPS  C211 7538   5.538   6.231   9.857  0.3821 -0.5528 -0.2514
   81SAPS  H11R 7539   5.527   6.339   9.874  2.0072 -0.5748  1.2864
   81SAPS  C212 7540   5.539   6.194   9.724 -0.4972  0.2882 -0.7548
   81SAPS  H12R 7541   5.533   6.271   9.646  0.1502  0.7215 -0.3975
   81SAPS  C213 7542   5.546   6.047   9.684 -0.1645  0.0464  0.5543
   81SAPS  H13R 7543   5.565   5.988   9.777  0.0160  1.6149  1.5405
   81SAPS  H13S 7544   5.637   6.045   9.621 -1.4299 -1.4239 -1.3512
   81SAPS  C214 7545   5.425   6.008   9.608  0.5887 -0.0553 -0.0546
   81SAPS  H14R 7546   5.351   5.945   9.660 -0.1849 -1.0383 -2.2196
   81SAPS  C215 7547   5.399   6.051   9.482  0.4153  0.0332 -0.5944
   81SAPS  H15R 7548   5.302   6.015   9.444  0.1469  1.6122 -1.5095
   81SAPS  C216 7549   5.480   6.144   9.392 -0.5011  0.2679 -0.4481
   81SAPS  H16R 7550   5.584   6.156   9.428 -0.6278  2.8594 -0.7504
   81SAPS  H16S 7551   5.433   6.244   9.383 -0.7386  0.1845 -0.1557
   81SAPS  C217 7552   5.497   6.102   9.242  0.7286  0.1824 -0.6093
   81SAPS  H17R 7553   5.402   6.108   9.185 -0.0831 -1.4316  0.4914
   81SAPS  H17S 7554   5.538   5.998   9.237  0.1166 -0.0539 -0.8044
   81SAPS  C218 7555   5.609   6.183   9.179  0.3174 -0.0938  0.0138
   81SAPS  H18R 7556   5.702   6.168   9.238  1.4461  3.3456 -0.7013
   81SAPS  H18S 7557   5.591   6.291   9.195  0.6662 -0.0509  0.1215
   81SAPS  C219 7558   5.629   6.144   9.026 -0.7145 -0.1703  0.1087
   81SAPS  H19R 7559   5.687   6.233   8.992  2.7649 -1.7896  1.3742
   81SAPS  H19S 7560   5.530   6.147   8.975 -0.1809 -3.4954 -1.3563
   81SAPS  C220 7561   5.707   6.016   9.010  0.2400 -0.1989  0.8265
   81SAPS  H20R 7562   5.786   6.012   9.088  1.2599 -3.0482 -0.2371
   81SAPS  H20S 7563   5.747   6.019   8.907 -2.7892 -0.8963 -0.4878
   81SAPS  H20T 7564   5.631   5.935   9.012  1.3701 -1.2721  1.5789
   81SAPS   C33 7565   5.283   6.605  10.118  0.4767 -0.0305 -0.9499
   81SAPS   H3X 7566   5.302   6.701  10.170  1.3374 -0.1704 -1.0032
   81SAPS   H3Y 7567   5.173   6.610  10.101 -0.0189 -1.0075  1.5518
   81SAPS   C34 7568   5.360   6.608   9.989 -0.1359  0.4391  0.0770
   81SAPS   H4X 7569   5.352   6.510   9.937  1.0233 -0.5775  1.7214
   81SAPS   H4Y 7570   5.467   6.624  10.014 -0.3124 -1.4158  2.2823
   81SAPS   C35 7571   5.311   6.714   9.887 -0.3129  0.0252  0.0380
   81SAPS   H5X 7572   5.329   6.819   9.921 -0.1845  0.4295 -1.2518
   81SAPS   H5Y 7573   5.203   6.699   9.868 -0.2130 -0.8268  0.1268
   81SAPS   C36 7574   5.395   6.695   9.758 -0.0869  0.7304 -0.6550
   81SAPS   H6X 7575   5.402   6.584   9.754 -0.8256  0.6795 -0.6504
   81SAPS   H6Y 7576   5.503   6.721   9.762  0.1055 -0.2093  0.6416
   81SAPS   C37 7577   5.336   6.771   9.641  0.6964  0.1637 -0.3848
   81SAPS   H7X 7578   5.328   6.878   9.671 -2.5147  0.2349 -1.0811
   81SAPS   H7Y 7579   5.232   6.747   9.611  0.2282  0.8377  0.6379
   81SAPS   C38 7580   5.414   6.753   9.507 -0.4704  0.3657  0.1177
   81SAPS   H8X 7581   5.401   6.649   9.469  0.8078  0.4372 -0.5749
   81SAPS   H8Y 7582   5.520   6.777   9.531 -0.0728  0.3236 -1.4678
   81SAPS   C39 7583   5.375   6.846   9.388 -0.1494  0.6499 -0.0419
   81SAPS   H9X 7584   5.425   6.800   9.300 -0.6668  1.5543 -0.8086
   81SAPS   H9Y 7585   5.412   6.949   9.407  1.4917 -0.0132  0.6583
   81SAPS  C310 7586   5.228   6.846   9.351  0.7135  0.1544  0.3281
   81SAPS  H10X 7587   5.166   6.879   9.437  1.4583 -0.1669  1.0097
   81SAPS  H10Y 7588   5.204   6.739   9.335  0.3299  0.2732  0.1031
   81SAPS  C311 7589   5.201   6.941   9.229  0.1528 -0.3918 -0.7000
   81SAPS  H11X 7590   5.258   7.036   9.244  0.7464 -0.7703 -0.5117
   81SAPS  H11Y 7591   5.094   6.966   9.215 -0.3345 -1.7627  0.3899
   81SAPS  C312 7592   5.248   6.873   9.100  0.0877 -0.2858  0.1689
   81SAPS  H12X 7593   5.210   6.771   9.077 -0.2072 -0.2689  0.5684
   81SAPS  H12Y 7594   5.358   6.862   9.105 -0.0076 -2.2871 -0.8052
   81SAPS  C313 7595   5.212   6.951   8.972 -0.0194 -0.1221 -0.0015
   81SAPS  H13X 7596   5.273   7.044   8.963 -0.0358 -0.1203 -0.0937
   81SAPS  H13Y 7597   5.106   6.982   8.977  0.4955  1.5453  1.1592
   81SAPS  C314 7598   5.224   6.868   8.844  0.2469  0.5236 -0.6529
   81SAPS  H14X 7599   5.151   6.786   8.857  0.9114  0.0135 -0.0109
   81SAPS  H14Y 7600   5.330   6.834   8.846 -0.2518 -1.0978  0.9193
   81SAPS  C315 7601   5.199   6.937   8.710  0.1665  0.1565 -0.4419
   81SAPS  H15X 7602   5.285   7.005   8.693 -0.4363  0.4365 -2.7796
   81SAPS  H15Y 7603   5.106   6.994   8.730 -0.0879 -0.8926  1.6504
   81SAPS  C316 7604   5.179   6.829   8.599  0.5124 -0.3465  0.1510
   81SAPS  H16X 7605   5.088   6.775   8.630  0.4926  0.8112  2.3399
   81SAPS  H16Y 7606   5.266   6.760   8.599  2.9691  2.5435  0.0205
   81SAPS  C317 7607   5.150   6.875   8.450  0.1817  0.2066  0.7802
   81SAPS  H17X 7608   5.076   6.958   8.456  1.4653  1.5483 -0.8443
   81SAPS  H17Y 7609   5.108   6.788   8.395 -1.3734  0.6513  1.1963
   81SAPS  C318 7610   5.276   6.920   8.387 -0.1680 -0.7438  0.2544
   81SAPS  H18X 7611   5.254   6.945   8.281  0.0738 -3.4159 -0.5068
   81SAPS  H18Y 7612   5.353   6.839   8.390  3.4837  2.4485  0.6002
   81SAPS  H18Z 7613   5.312   7.001   8.455 -1.9643  1.2765 -1.0992
   82SAPS     N 7614   1.324   6.727  11.094 -0.3235 -0.7172  0.3306
   82SAPS   HN1 7615   1.235   6.677  11.113 -0.0568 -1.1320  0.4953
   82SAPS   HN2 7616   1.368   6.701  11.004 -0.2264 -2.8026  0.9385
   82SAPS   HN3 7617   1.390   6.712  11.173 -0.4274 -1.6331  0.2566
   82SAPS   C12 7618   1.298   6.873  11.102  0.2370 -0.1047  0.0057
   82SAPS  H12A 7619   1.219   6.890  11.030 -0.9050 -2.6590  0.5325
   82SAPS   C13 7620   1.237   6.918  11.240 -0.9992 -0.1725 -0.7703
   82SAPS  O13A 7621   1.265   6.844  11.339  0.2518 -0.4862 -0.1586
   82SAPS  O13B 7622   1.165   7.019  11.249  0.2279  0.5376 -0.5905
   82SAPS   C11 7623   1.436   6.950  11.071 -0.0170 -0.4854  0.2926
   82SAPS  H11A 7624   1.520   6.899  11.124  0.5862 -0.8559 -0.9760
   82SAPS  H11B 7625   1.421   7.052  11.111 -2.4906 -1.9728  3.6747
   82SAPS     P 7626   1.522   7.067  10.852  0.4526 -0.0611  0.4135
   82SAPS   O13 7627   1.614   7.147  10.934  0.0603  0.0244 -0.0784
   82SAPS   O14 7628   1.588   7.018  10.734 -0.0018  0.6127  0.4326
   82SAPS   O12 7629   1.473   6.943  10.934  0.2760 -0.0517  0.5190
   82SAPS   O11 7630   1.387   7.144  10.808  0.3832  0.2392 -0.5867
   82SAPS    C1 7631   1.297   7.064  10.728 -0.1217  0.0464  0.1481
   82SAPS    HA 7632   1.302   6.956  10.752 -0.7434  0.0439  0.2968
   82SAPS    HB 7633   1.192   7.088  10.757  0.0441 -1.3026  2.1141
   82SAPS    C2 7634   1.317   7.080  10.574  0.7192  0.3314  0.1561
   82SAPS    HS 7635   1.424   7.059  10.552  0.3519 -1.3239 -0.2240
   82SAPS   O21 7636   1.279   7.215  10.537 -0.5409 -0.4242  0.1212
   82SAPS   C21 7637   1.359   7.267  10.446 -0.1058 -0.4698 -0.1109
   82SAPS   O22 7638   1.471   7.231  10.413  0.3853 -0.1195 -0.8313
   82SAPS   C22 7639   1.301   7.393  10.381 -0.2074  0.0814 -0.3831
   82SAPS   H2R 7640   1.223   7.431  10.451  0.1222 -0.2817  0.1880
   82SAPS   H2S 7641   1.379   7.471  10.370  0.7945 -0.8627 -0.1017
   82SAPS    C3 7642   1.229   6.983  10.493 -0.3856  0.2868  0.3986
   82SAPS    HX 7643   1.120   7.004  10.506 -0.0704  1.6521  0.9079
   82SAPS    HY 7644   1.243   6.880  10.533 -2.9085 -0.6889 -1.0074
   82SAPS   O31 7645   1.245   7.005  10.355 -0.2386 -0.5673  0.9697
   82SAPS   C31 7646   1.343   6.934  10.291 -0.1810  0.4704  0.4970
   82SAPS   O32 7647   1.429   6.866  10.337 -0.2634 -0.3747 -0.2168
   82SAPS   C32 7648   1.332   6.961  10.138 -0.0321  0.5504 -0.9213
   82SAPS   H2X 7649   1.390   7.053  10.115 -1.0673  1.1861 -1.0415
   82SAPS   H2Y 7650   1.223   6.982  10.128 -0.5727 -0.1086  2.4379
   82SAPS   C23 7651   1.241   7.378  10.235  0.8856  0.0881  1.0973
   82SAPS   H3R 7652   1.141   7.423  10.220  0.8133 -0.1908  0.7390
   82SAPS   H3S 7653   1.221   7.270  10.218 -0.4566  0.4946 -0.0864
   82SAPS   C24 7654   1.324   7.431  10.115 -0.1018 -0.3457  0.2507
   82SAPS   H4R 7655   1.298   7.378  10.022  0.1123  0.1479 -0.0958
   82SAPS   H4S 7656   1.427   7.400  10.144 -1.0703 -4.2993 -0.0189
   82SAPS   C25 7657   1.311   7.579  10.098 -0.1918  0.3023  0.1956
   82SAPS   H5R 7658   1.354   7.637  10.181 -0.3865 -0.0477  0.5449
   82SAPS   C26 7659   1.264   7.655   9.995 -0.6653  0.0483  0.8928
   82SAPS   H6R 7660   1.257   7.764  10.005  1.2051  0.0146  3.5906
   82SAPS   C27 7661   1.207   7.603   9.858 -0.0904 -0.2099 -0.3316
   82SAPS   H7R 7662   1.098   7.617   9.876  0.0705  1.2215 -0.3468
   82SAPS   H7S 7663   1.218   7.494   9.838 -0.5276 -0.2409 -0.4173
   82SAPS   C28 7664   1.249   7.692   9.740 -0.5587 -0.4105  0.0834
   82SAPS   H8R 7665   1.303   7.785   9.762 -0.6053 -0.1720 -0.7740
   82SAPS   C29 7666   1.226   7.659   9.615  0.2794 -1.1450  0.3284
   82SAPS   H9R 7667   1.245   7.735   9.539 -2.8731 -0.5059  0.0285
   82SAPS  C210 7668   1.150   7.539   9.569 -0.3850 -0.0395  0.5544
   82SAPS  H10R 7669   1.064   7.583   9.515 -0.2761 -0.6803 -0.1555
   82SAPS  H10S 7670   1.110   7.491   9.660 -0.1571 -0.6408  0.3433
   82SAPS  C211 7671   1.235   7.445   9.486 -0.9693  0.3740 -0.1391
   82SAPS  H11R 7672   1.269   7.348   9.527 -2.9889 -1.2728 -2.1099
   82SAPS  C212 7673   1.254   7.452   9.353  0.5319 -0.1983 -0.1366
   82SAPS  H12R 7674   1.319   7.374   9.311  2.6300  1.7085 -0.6118
   82SAPS  C213 7675   1.204   7.550   9.257  0.0644  0.4952  0.0739
   82SAPS  H13R 7676   1.276   7.634   9.246  1.8737 -1.1915 -1.9956
   82SAPS  H13S 7677   1.112   7.600   9.293  0.5286  1.1979  0.3192
   82SAPS  C214 7678   1.172   7.489   9.121  0.3493 -0.3257 -0.7036
   82SAPS  H14R 7679   1.259   7.460   9.060  2.1746 -0.6716  1.9033
   82SAPS  C215 7680   1.054   7.455   9.072  0.2936  0.5364  0.2291
   82SAPS  H15R 7681   1.042   7.424   8.968 -2.7706  1.8303  0.1013
   82SAPS  C216 7682   0.923   7.455   9.138 -0.1181  0.2536 -0.2055
   82SAPS  H16R 7683   0.933   7.491   9.243 -1.7046  1.8547 -0.5395
   82SAPS  H16S 7684   0.885   7.351   9.147 -0.3395  0.1019 -2.4415
   82SAPS  C217 7685   0.832   7.538   9.057  0.2419  0.7647  0.2146
   82SAPS  H17R 7686   0.846   7.648   9.071  1.5885  0.9121 -1.8292
   82SAPS  H17S 7687   0.728   7.519   9.091 -0.7188 -0.4475 -3.0253
   82SAPS  C218 7688   0.819   7.500   8.910 -0.6788  0.2940  0.2539
   82SAPS  H18R 7689   0.832   7.389   8.909 -1.1004  0.2313  1.0454
   82SAPS  H18S 7690   0.899   7.538   8.843 -1.1701  0.9372  0.0322
   82SAPS  C219 7691   0.690   7.530   8.832 -0.0040 -0.0158 -0.5228
   82SAPS  H19R 7692   0.609   7.457   8.855  0.5281 -0.4791 -0.0951
   82SAPS  H19S 7693   0.712   7.511   8.725  3.0857  1.1923 -0.2150
   82SAPS  C220 7694   0.648   7.678   8.844 -0.2106  0.0334 -0.3024
   82SAPS  H20R 7695   0.634   7.700   8.951 -1.8822 -2.8294  0.1742
   82SAPS  H20S 7696   0.557   7.703   8.785  1.5619  4.4942 -1.5836
   82SAPS  H20T 7697   0.723   7.749   8.803 -0.1949  1.0562  1.4211
   82SAPS   C33 7698   1.372   6.846  10.035  0.1208  0.0826  0.0081
   82SAPS   H3X 7699   1.314   6.753  10.052  1.0225 -0.4085  0.5253
   82SAPS   H3Y 7700   1.480   6.832  10.059 -0.2947 -0.7124  1.5378
   82SAPS   C34 7701   1.369   6.900   9.895 -0.5215  0.2399 -0.0035
   82SAPS   H4X 7702   1.450   6.836   9.853 -0.7599 -0.1146  0.0786
   82SAPS   H4Y 7703   1.401   7.006   9.900 -0.9561  0.3334  3.3742
   82SAPS   C35 7704   1.231   6.882   9.817  0.3345 -0.5912  0.0230
   82SAPS   H5X 7705   1.188   6.984   9.806  2.1562  0.2024 -0.0436
   82SAPS   H5Y 7706   1.162   6.815   9.874  0.8734 -1.3601 -0.2091
   82SAPS   C36 7707   1.246   6.825   9.676 -0.4598  0.2578  0.3039
   82SAPS   H6X 7708   1.149   6.809   9.624 -1.5725  0.9070  2.0844
   82SAPS   H6Y 7709   1.305   6.731   9.681  1.3774  1.3258 -0.5929
   82SAPS   C37 7710   1.347   6.894   9.579 -0.1045 -0.6516  0.2465
   82SAPS   H7X 7711   1.428   6.937   9.642  0.4151  0.5248 -1.1818
   82SAPS   H7Y 7712   1.300   6.978   9.523 -0.6736 -2.4585 -2.1116
   82SAPS   C38 7713   1.404   6.796   9.479 -0.0997  0.9211 -0.7730
   82SAPS   H8X 7714   1.330   6.722   9.442  0.9274  0.3507 -1.7605
   82SAPS   H8Y 7715   1.483   6.739   9.533 -1.3996  0.3935  0.6089
   82SAPS   C39 7716   1.486   6.847   9.359 -0.0173 -0.2422 -0.1032
   82SAPS   H9X 7717   1.578   6.897   9.397  0.9410 -0.5108 -1.9510
   82SAPS   H9Y 7718   1.425   6.925   9.309  0.4942  0.5197  0.4280
   82SAPS  C310 7719   1.520   6.733   9.263  0.4148 -0.3521  0.1714
   82SAPS  H10X 7720   1.429   6.678   9.232  0.3246 -0.5435  0.7475
   82SAPS  H10Y 7721   1.568   6.657   9.329 -0.8948 -1.1232  0.2618
   82SAPS  C311 7722   1.620   6.763   9.156 -0.1493 -0.4907  0.2138
   82SAPS  H11X 7723   1.640   6.665   9.107 -3.0793 -0.3670 -1.5220
   82SAPS  H11Y 7724   1.708   6.802   9.210  1.1348 -3.3313  0.3321
   82SAPS  C312 7725   1.589   6.871   9.052 -0.4910 -0.0088  0.1615
   82SAPS  H12X 7726   1.583   6.962   9.115 -0.7797 -0.1392  0.3234
   82SAPS  H12Y 7727   1.496   6.847   8.995 -1.0153  0.1241  0.9507
   82SAPS  C313 7728   1.698   6.883   8.938 -0.2767  0.1928 -1.5379
   82SAPS  H13X 7729   1.685   6.781   8.897 -2.3203  0.2393 -1.1165
   82SAPS  H13Y 7730   1.800   6.879   8.981 -0.4195  0.1918 -1.1977
   82SAPS  C314 7731   1.677   6.999   8.841 -0.1537  0.0978 -0.0307
   82SAPS  H14X 7732   1.674   7.100   8.886 -2.6989  0.5043 -0.9654
   82SAPS  H14Y 7733   1.576   6.986   8.797  0.7595 -1.3142 -1.9001
   82SAPS  C315 7734   1.777   7.001   8.730  0.2150  0.1751  0.0309
   82SAPS  H15X 7735   1.776   6.903   8.678  0.1770  0.4622 -0.5170
   82SAPS  H15Y 7736   1.882   7.008   8.766  0.6686 -1.3966 -0.8836
   82SAPS  C316 7737   1.756   7.113   8.628 -0.1440 -0.5953 -0.0381
   82SAPS  H16X 7738   1.732   7.204   8.687 -1.9397 -1.1251  0.1307
   82SAPS  H16Y 7739   1.656   7.094   8.583  0.3271 -1.1875 -0.8549
   82SAPS  C317 7740   1.854   7.104   8.517 -0.2446 -0.3919 -0.2200
   82SAPS  H17X 7741   1.958   7.103   8.555  0.0234 -3.1486 -0.7677
   82SAPS  H17Y 7742   1.830   7.190   8.451 -0.5355  0.7584  1.3106
   82SAPS  C318 7743   1.838   6.973   8.434 -0.3818  1.0198  0.1949
   82SAPS  H18X 7744   1.884   6.890   8.493 -1.9054  0.2556  0.3835
   82SAPS  H18Y 7745   1.901   6.979   8.343 -0.8468 -1.6447 -0.4085
   82SAPS  H18Z 7746   1.730   6.948   8.422  0.2810 -0.6139 -4.0972
   83SAPS     N 7747   3.678   3.317  11.091 -0.2757  0.1331  0.0536
   83SAPS   HN1 7748   3.607   3.370  11.145  0.9734  3.0806 -0.9599
   83SAPS   HN2 7749   3.767   3.363  11.119 -0.9605 -0.3874  3.5632
   83SAPS   HN3 7750   3.665   3.321  10.988 -0.7252 -1.6005  0.0165
   83SAPS   C12 7751   3.698   3.176  11.125  0.1497  0.3435  0.3103
   83SAPS  H12A 7752   3.724   3.189  11.229  0.6145 -0.0175  0.2467
   83SAPS   C13 7753   3.576   3.083  11.122  0.5018  0.0143 -0.4414
   83SAPS  O13A 7754   3.465   3.136  11.096  0.3223 -0.8009  0.3175
   83SAPS  O13B 7755   3.587   2.958  11.123 -0.4946 -0.4332 -0.2192
   83SAPS   C11 7756   3.816   3.117  11.039  0.0135 -0.1671 -0.1176
   83SAPS  H11A 7757   3.780   3.133  10.935 -0.4770  0.0404  0.0819
   83SAPS  H11B 7758   3.831   3.007  11.049  0.9686  0.0378  0.8812
   83SAPS     P 7759   4.068   3.161  10.972  0.0393 -0.1172  0.3483
   83SAPS   O13 7760   4.150   3.279  10.957 -0.3452 -0.1237  0.1630
   83SAPS   O14 7761   4.140   3.040  11.022  0.1897 -0.3009  0.1295
   83SAPS   O12 7762   3.943   3.185  11.063 -0.2706  0.0522  0.0190
   83SAPS   O11 7763   4.013   3.121  10.831 -0.1287  0.0260 -0.6046
   83SAPS    C1 7764   3.964   3.212  10.730  0.6061 -0.2756 -0.3532
   83SAPS    HA 7765   3.855   3.207  10.713  0.6809 -1.8251 -0.5702
   83SAPS    HB 7766   4.000   3.315  10.749 -0.6303 -0.0519  0.8735
   83SAPS    C2 7767   4.020   3.172  10.593  0.4326  0.0494 -0.8906
   83SAPS    HS 7768   3.998   3.254  10.522  0.3731  0.0343 -0.8902
   83SAPS   O21 7769   3.948   3.051  10.542 -0.1256  0.5569 -0.1507
   83SAPS   C21 7770   3.928   3.051  10.408  0.0204 -0.2035 -0.6539
   83SAPS   O22 7771   3.947   3.151  10.335  0.2225  0.4842 -0.1242
   83SAPS   C22 7772   3.892   2.907  10.359  0.1916  0.1169 -0.2150
   83SAPS   H2R 7773   3.831   2.858  10.438  0.7940 -0.7983 -0.2992
   83SAPS   H2S 7774   3.827   2.923  10.271 -1.0174  0.2851  0.6800
   83SAPS    C3 7775   4.174   3.130  10.596  0.3934  0.0033 -0.0168
   83SAPS    HX 7776   4.182   3.039  10.660  0.2183  0.3795  0.5467
   83SAPS    HY 7777   4.230   3.210  10.649 -1.1836 -0.9794  3.4717
   83SAPS   O31 7778   4.220   3.109  10.463  0.1018  0.2841  0.4684
   83SAPS   C31 7779   4.356   3.130  10.438  0.5751 -0.3255  0.5565
   83SAPS   O32 7780   4.435   3.152  10.524 -0.1764 -0.1692 -0.8144
   83SAPS   C32 7781   4.377   3.135  10.291  0.3319 -0.1953 -0.5346
   83SAPS   H2X 7782   4.480   3.102  10.267  0.7587 -0.0299  0.9863
   83SAPS   H2Y 7783   4.373   3.237  10.246  0.2648 -0.1925 -0.5231
   83SAPS   C23 7784   4.012   2.818  10.310 -0.7957 -0.1418 -0.4024
   83SAPS   H3R 7785   4.075   2.791  10.398 -2.0620  1.2057  0.9978
   83SAPS   H3S 7786   4.074   2.867  10.232 -0.4180  1.5845  0.9214
   83SAPS   C24 7787   3.969   2.680  10.241  0.1852  0.2038  0.6885
   83SAPS   H4R 7788   3.896   2.692  10.158  0.5788  0.1436  0.3307
   83SAPS   H4S 7789   3.921   2.615  10.317  1.2097 -2.3490 -0.7427
   83SAPS   C25 7790   4.077   2.593  10.185 -0.3809  0.1111  0.1270
   83SAPS   H5R 7791   4.109   2.529  10.268 -0.6127 -0.2681 -0.0759
   83SAPS   C26 7792   4.108   2.580  10.049 -0.1658 -0.5992 -0.1626
   83SAPS   H6R 7793   4.198   2.523  10.022 -0.4704 -3.3686  3.7614
   83SAPS   C27 7794   4.052   2.652   9.933 -0.5933  0.9398  0.6587
   83SAPS   H7R 7795   4.132   2.687   9.865 -1.8990  1.9619 -0.4063
   83SAPS   H7S 7796   4.000   2.744   9.969  1.0051  1.6951  1.1386
   83SAPS   C28 7797   3.951   2.588   9.847  0.6333  0.3042 -0.5160
   83SAPS   H8R 7798   3.885   2.517   9.900  0.8947 -1.0285 -1.8901
   83SAPS   C29 7799   3.937   2.594   9.711 -0.9269  0.8701  0.1079
   83SAPS   H9R 7800   3.858   2.538   9.659  1.2267 -0.9530 -1.4180
   83SAPS  C210 7801   4.033   2.670   9.621  0.6514  0.7999 -0.5084
   83SAPS  H10R 7802   4.046   2.770   9.665 -2.3675  0.6734  0.9340
   83SAPS  H10S 7803   3.979   2.685   9.524 -1.9666  1.8032  1.0037
   83SAPS  C211 7804   4.172   2.610   9.606  0.0294 -0.2189  0.3907
   83SAPS  H11R 7805   4.245   2.655   9.675  0.6950  0.7991 -0.9258
   83SAPS  C212 7806   4.224   2.523   9.522  1.0059  0.1548  0.4290
   83SAPS  H12R 7807   4.334   2.517   9.521  1.3534  3.9716 -0.2633
   83SAPS  C213 7808   4.139   2.461   9.417  0.0382 -0.3365 -0.1225
   83SAPS  H13R 7809   4.030   2.457   9.438 -0.7479 -1.2131 -3.7160
   83SAPS  H13S 7810   4.168   2.355   9.403 -2.2197 -0.7378 -2.3302
   83SAPS  C214 7811   4.138   2.529   9.286 -0.1145 -0.0983 -0.3194
   83SAPS  H14R 7812   4.117   2.636   9.304  1.0906 -0.0390  0.9127
   83SAPS  C215 7813   4.177   2.483   9.167  0.4837  0.1850  0.6591
   83SAPS  H15R 7814   4.160   2.536   9.072 -1.3590 -1.1698  0.1823
   83SAPS  C216 7815   4.228   2.348   9.132  0.0086  0.2373  0.3230
   83SAPS  H16R 7816   4.157   2.303   9.060  0.4660  1.9824 -1.2779
   83SAPS  H16S 7817   4.235   2.281   9.221  0.9522 -1.0934 -0.7210
   83SAPS  C217 7818   4.364   2.355   9.073 -0.1560 -0.1008  0.9757
   83SAPS  H17R 7819   4.448   2.370   9.144 -0.0911  0.4585  0.7845
   83SAPS  H17S 7820   4.371   2.443   9.005  1.8598  0.4161  1.7979
   83SAPS  C218 7821   4.400   2.226   8.992 -0.2280  0.2207  0.4525
   83SAPS  H18R 7822   4.322   2.203   8.917 -0.5526 -0.0296  0.8635
   83SAPS  H18S 7823   4.422   2.137   9.054 -0.0228  0.6818  1.0557
   83SAPS  C219 7824   4.523   2.244   8.897  0.5215  0.1535  0.0803
   83SAPS  H19R 7825   4.525   2.150   8.838 -3.6359  0.1395 -0.3658
   83SAPS  H19S 7826   4.620   2.254   8.948 -0.6010 -0.1072  2.3917
   83SAPS  C220 7827   4.501   2.346   8.786 -0.7327 -0.1418  0.0387
   83SAPS  H20R 7828   4.565   2.336   8.695 -3.3834 -0.6220 -1.8779
   83SAPS  H20S 7829   4.522   2.452   8.815  1.5619 -0.3460 -0.6403
   83SAPS  H20T 7830   4.395   2.355   8.755 -0.1769 -0.6727 -2.1760
   83SAPS   C33 7831   4.269   3.055  10.211 -0.9246  0.1850 -0.5496
   83SAPS   H3X 7832   4.164   3.087  10.230 -1.0394 -0.6686  0.3028
   83SAPS   H3Y 7833   4.273   2.949  10.243 -2.1825  0.5700  1.0106
   83SAPS   C34 7834   4.302   3.065  10.061  0.4880 -0.2160  0.0725
   83SAPS   H4X 7835   4.384   2.999  10.024 -0.0603  1.1319 -4.0502
   83SAPS   H4Y 7836   4.334   3.169  10.039  1.4649 -0.8034 -1.4683
   83SAPS   C35 7837   4.179   3.008   9.985  0.0682 -0.0077  0.4916
   83SAPS   H5X 7838   4.084   3.057  10.014  0.0770 -0.3668  1.1348
   83SAPS   H5Y 7839   4.176   2.902  10.018  1.8528 -1.1574 -2.5800
   83SAPS   C36 7840   4.205   2.994   9.830 -0.2526  0.7477  0.6841
   83SAPS   H6X 7841   4.117   2.940   9.788 -0.3574  0.7955  0.8407
   83SAPS   H6Y 7842   4.290   2.924   9.817 -0.7362  0.2867 -0.0740
   83SAPS   C37 7843   4.219   3.122   9.763 -0.0297  0.1967  0.2731
   83SAPS   H7X 7844   4.291   3.181   9.824  2.0076 -2.1876  0.3416
   83SAPS   H7Y 7845   4.123   3.178   9.756 -0.7128 -1.1515 -3.6325
   83SAPS   C38 7846   4.271   3.133   9.621 -0.6754 -0.1773  0.6164
   83SAPS   H8X 7847   4.379   3.108   9.617 -1.3273 -3.2497 -2.9504
   83SAPS   H8Y 7848   4.255   3.240   9.597  1.1445  0.2211  1.0510
   83SAPS   C39 7849   4.201   3.041   9.520 -0.0760  0.0810  0.2514
   83SAPS   H9X 7850   4.090   3.044   9.528 -0.0720 -0.2655  0.4444
   83SAPS   H9Y 7851   4.233   2.936   9.536  1.7158  0.8874  2.6558
   83SAPS  C310 7852   4.243   3.060   9.375  0.0828 -0.4661  0.3560
   83SAPS  H10X 7853   4.353   3.056   9.385 -0.1185 -1.9971  3.2692
   83SAPS  H10Y 7854   4.211   3.160   9.341 -2.3139 -0.9470  0.9940
   83SAPS  C311 7855   4.199   2.950   9.276  0.0024  0.4661 -0.4307
   83SAPS  H11X 7856   4.092   2.931   9.297  0.3962  0.3124  1.7278
   83SAPS  H11Y 7857   4.250   2.853   9.295 -0.4331  0.6404  1.8900
   83SAPS  C312 7858   4.212   2.991   9.131 -0.4409  0.0050 -0.0887
   83SAPS  H12X 7859   4.312   2.952   9.102 -0.5832 -1.1662  0.9347
   83SAPS  H12Y 7860   4.206   3.101   9.113 -0.1081 -0.1959 -1.5494
   83SAPS  C313 7861   4.114   2.913   9.044 -0.5588 -0.5122 -0.0894
   83SAPS  H13X 7862   4.015   2.963   9.031  0.0806  0.5908 -0.8864
   83SAPS  H13Y 7863   4.082   2.822   9.098 -1.9952 -0.4784 -0.8281
   83SAPS  C314 7864   4.179   2.865   8.913  0.0611 -0.5733  0.9450
   83SAPS  H14X 7865   4.285   2.836   8.930  1.0733  1.7482 -0.8858
   83SAPS  H14Y 7866   4.177   2.957   8.850 -0.6666 -2.0185 -1.2467
   83SAPS  C315 7867   4.098   2.764   8.832  0.5473  0.4462 -0.5781
   83SAPS  H15X 7868   3.997   2.806   8.812 -0.4569  0.1118  3.1187
   83SAPS  H15Y 7869   4.082   2.675   8.896 -0.2680 -0.0316 -1.4241
   83SAPS  C316 7870   4.157   2.715   8.699  0.3032 -0.3026 -0.0758
   83SAPS  H16X 7871   4.073   2.676   8.636  0.5030  1.0520 -1.2129
   83SAPS  H16Y 7872   4.227   2.635   8.731 -0.1118 -0.8350 -0.4692
   83SAPS  C317 7873   4.220   2.829   8.617 -0.0874  0.4137  0.2589
   83SAPS  H17X 7874   4.308   2.867   8.673 -1.7920  3.0778  1.3207
   83SAPS  H17Y 7875   4.149   2.914   8.608 -0.5791  0.1920  1.8901
   83SAPS  C318 7876   4.253   2.795   8.469 -0.3429  0.4382  0.3096
   83SAPS  H18X 7877   4.157   2.756   8.429 -0.2062 -1.0361  1.3443
   83SAPS  H18Y 7878   4.333   2.718   8.466 -0.1000  0.7116 -0.5248
   83SAPS  H18Z 7879   4.290   2.886   8.416  0.4490 -0.5092 -0.8285
   84SAPS     N 7880   6.311   0.469  11.054 -0.1859  0.7868 -0.4038
   84SAPS   HN1 7881   6.362   0.394  11.104 -1.1391 -1.8754 -3.1060
   84SAPS   HN2 7882   6.212   0.435  11.056 -0.0013 -0.0183  3.8753
   84SAPS   HN3 7883   6.343   0.475  10.955  2.6978 -0.2499  0.3689
   84SAPS   C12 7884   6.322   0.594  11.128 -0.6499 -0.4384 -1.0028
   84SAPS  H12A 7885   6.314   0.568  11.232 -0.4175  0.0521 -0.8615
   84SAPS   C13 7886   6.463   0.666  11.099  0.2235 -0.0481 -0.0779
   84SAPS  O13A 7887   6.549   0.610  11.025  0.3995 -0.3102  0.4301
   84SAPS  O13B 7888   6.494   0.756  11.171 -0.2319 -0.0895 -0.1445
   84SAPS   C11 7889   6.202   0.687  11.108  1.0478 -0.1476 -0.2732
   84SAPS  H11A 7890   6.203   0.768  11.184  1.4960  0.6691 -1.1322
   84SAPS  H11B 7891   6.110   0.629  11.128  0.4168  0.8093 -0.3778
   84SAPS     P 7892   6.085   0.838  10.934 -0.1519  0.2635  0.0976
   84SAPS   O13 7893   5.954   0.772  10.972 -0.3012 -0.2678 -0.4669
   84SAPS   O14 7894   6.103   0.983  10.975  0.0226  0.1087 -0.1115
   84SAPS   O12 7895   6.202   0.747  10.980  0.4682  0.1334 -0.3017
   84SAPS   O11 7896   6.107   0.833  10.774  0.0822 -0.3697 -0.2802
   84SAPS    C1 7897   6.067   0.719  10.693  0.9565 -0.3423  0.3299
   84SAPS    HA 7898   5.965   0.685  10.723  0.8525 -0.9977 -0.7359
   84SAPS    HB 7899   6.062   0.752  10.587 -1.1377 -0.0845  0.4529
   84SAPS    C2 7900   6.159   0.595  10.696  0.1063 -0.0870 -0.0291
   84SAPS    HS 7901   6.156   0.565  10.803  1.3210 -0.5302 -0.0983
   84SAPS   O21 7902   6.293   0.633  10.649 -0.2925  0.3612  0.7165
   84SAPS   C21 7903   6.391   0.571  10.710  0.7633 -0.1969 -0.2832
   84SAPS   O22 7904   6.375   0.477  10.783  0.0611  0.2288  0.0683
   84SAPS   C22 7905   6.534   0.617  10.683 -0.2651  0.0578 -0.0380
   84SAPS   H2R 7906   6.544   0.727  10.697  0.0182 -0.0119  0.3235
   84SAPS   H2S 7907   6.603   0.573  10.758  0.2618 -0.7069 -0.9594
   84SAPS    C3 7908   6.111   0.487  10.599  0.7858 -0.0715 -0.2067
   84SAPS    HX 7909   6.026   0.437  10.651  1.6136  0.5423  1.8368
   84SAPS    HY 7910   6.184   0.406  10.578 -0.5003 -1.0400 -1.2149
   84SAPS   O31 7911   6.061   0.540  10.474  0.2276 -0.5443 -0.4642
   84SAPS   C31 7912   6.027   0.446  10.384  0.2196 -0.1188  0.4849
   84SAPS   O32 7913   6.009   0.327  10.406 -0.2529 -0.2546 -0.0610
   84SAPS   C32 7914   6.017   0.505  10.242  0.4321  0.2066  0.0484
   84SAPS   H2X 7915   6.097   0.577  10.214  0.6196 -0.2635 -0.6198
   84SAPS   H2Y 7916   5.923   0.565  10.246 -1.0719 -1.6826 -3.1253
   84SAPS   C23 7917   6.576   0.572  10.539 -0.5767 -0.6693 -0.5138
   84SAPS   H3R 7918   6.574   0.461  10.538 -0.3454 -0.6713 -0.9877
   84SAPS   H3S 7919   6.684   0.594  10.523 -0.3235 -1.3520  0.1756
   84SAPS   C24 7920   6.488   0.626  10.425 -0.2120 -1.0447 -0.2358
   84SAPS   H4R 7921   6.393   0.568  10.430 -2.4102  2.3787  1.5044
   84SAPS   H4S 7922   6.543   0.593  10.334  0.3858 -0.3809 -0.1201
   84SAPS   C25 7923   6.480   0.780  10.418 -0.7919 -0.1004  0.1535
   84SAPS   H5R 7924   6.555   0.837  10.473 -0.0552 -0.5036 -0.4186
   84SAPS   C26 7925   6.417   0.847  10.327  0.6296 -0.4924  0.6284
   84SAPS   H6R 7926   6.438   0.955  10.317  3.9686 -1.2034 -2.2262
   84SAPS   C27 7927   6.340   0.793  10.215  0.4608 -0.3378  0.1376
   84SAPS   H7R 7928   6.274   0.876  10.180 -1.7103 -1.7868  0.6296
   84SAPS   H7S 7929   6.263   0.722  10.253 -0.2369  1.7918  3.0620
   84SAPS   C28 7930   6.417   0.732  10.102  0.4896 -0.3589  1.1168
   84SAPS   H8R 7931   6.434   0.624  10.114 -3.1710 -1.4201 -1.4776
   84SAPS   C29 7932   6.466   0.779   9.986 -0.0355  0.5149  0.3153
   84SAPS   H9R 7933   6.520   0.721   9.909  2.2808  2.4756  0.3406
   84SAPS  C210 7934   6.454   0.918   9.943 -0.4391  0.6128  0.9522
   84SAPS  H10R 7935   6.559   0.948   9.926 -0.5634  1.2565  1.2872
   84SAPS  H10S 7936   6.432   0.980  10.032 -1.1110 -1.7646  2.5556
   84SAPS  C211 7937   6.343   0.938   9.839  0.2184  0.1104  0.5374
   84SAPS  H11R 7938   6.248   0.969   9.885  0.7398 -0.0627  1.7844
   84SAPS  C212 7939   6.356   0.929   9.704 -0.0570 -0.9144 -0.1666
   84SAPS  H12R 7940   6.264   0.947   9.647 -0.3045 -0.5563  0.3420
   84SAPS  C213 7941   6.475   0.891   9.615  0.3922  0.0101  0.5289
   84SAPS  H13R 7942   6.574   0.900   9.665  0.3311 -1.8736  1.0737
   84SAPS  H13S 7943   6.476   0.969   9.536 -1.1445  0.5516  1.0158
   84SAPS  C214 7944   6.480   0.748   9.563  0.7495 -0.8196 -0.4981
   84SAPS  H14R 7945   6.501   0.674   9.642 -0.3279 -1.9283 -1.2227
   84SAPS  C215 7946   6.464   0.702   9.442 -0.6982  0.0085 -0.1313
   84SAPS  H15R 7947   6.469   0.592   9.434 -1.9398 -0.6385  4.7242
   84SAPS  C216 7948   6.429   0.781   9.322  0.5056  0.4175 -0.8768
   84SAPS  H16R 7949   6.433   0.891   9.337 -0.3019  0.3677 -0.1909
   84SAPS  H16S 7950   6.324   0.763   9.291  0.6422 -0.8474 -0.6891
   84SAPS  C217 7951   6.508   0.746   9.197 -0.1957  0.3664  0.8008
   84SAPS  H17R 7952   6.469   0.646   9.167 -2.2494  1.7379 -1.4523
   84SAPS  H17S 7953   6.616   0.746   9.223 -0.2392  1.5848  1.0152
   84SAPS  C218 7954   6.495   0.841   9.075 -0.9525 -0.0217 -0.4978
   84SAPS  H18R 7955   6.392   0.835   9.036 -0.8830 -3.0682 -0.3867
   84SAPS  H18S 7956   6.555   0.800   8.991  0.0664 -0.7019  0.5342
   84SAPS  C219 7957   6.549   0.979   9.094 -0.0768 -0.2626 -0.1635
   84SAPS  H19R 7958   6.491   1.037   9.170  1.9037  1.4178  0.1451
   84SAPS  H19S 7959   6.535   1.035   9.000  1.2913  0.6563  0.1434
   84SAPS  C220 7960   6.695   0.984   9.128 -0.4097 -0.1202 -0.7938
   84SAPS  H20R 7961   6.736   1.082   9.095  0.3656  0.4624  1.7289
   84SAPS  H20S 7962   6.759   0.904   9.084  1.4374  1.4068 -1.0171
   84SAPS  H20T 7963   6.693   0.965   9.237 -0.7142  2.1715 -0.3644
   84SAPS   C33 7964   5.987   0.404  10.128 -0.2993  0.2865 -0.2983
   84SAPS   H3X 7965   5.902   0.333  10.138  0.1403 -0.4836 -1.8401
   84SAPS   H3Y 7966   6.086   0.355  10.115 -0.2708  0.9557 -3.0083
   84SAPS   C34 7967   5.975   0.481   9.994  0.1776  0.6184  0.1721
   84SAPS   H4X 7968   5.897   0.558  10.011  0.0284  0.4343  0.3254
   84SAPS   H4Y 7969   5.944   0.409   9.915 -1.9512 -0.6044  2.0093
   84SAPS   C35 7970   6.106   0.549   9.944 -0.5205 -0.3041  0.1663
   84SAPS   H5X 7971   6.184   0.473   9.965  2.7727  2.5091 -0.7705
   84SAPS   H5Y 7972   6.133   0.638  10.005  1.2899 -0.4990 -0.3029
   84SAPS   C36 7973   6.111   0.583   9.799 -1.4254 -0.0173 -0.1268
   84SAPS   H6X 7974   6.107   0.483   9.749 -1.0461  1.3132 -3.0192
   84SAPS   H6Y 7975   6.199   0.635   9.757 -2.4469 -0.7312 -3.5113
   84SAPS   C37 7976   5.993   0.657   9.739 -0.1433  0.2846  0.1891
   84SAPS   H7X 7977   5.984   0.751   9.798 -1.4264 -0.0965  0.6174
   84SAPS   H7Y 7978   5.900   0.599   9.752 -0.4218  0.5566 -0.5207
   84SAPS   C38 7979   6.002   0.689   9.594  1.2513 -0.4665  0.1210
   84SAPS   H8X 7980   5.961   0.605   9.532  0.8893 -0.4239  0.2995
   84SAPS   H8Y 7981   6.100   0.717   9.550  0.5153  0.4230 -1.0123
   84SAPS   C39 7982   5.905   0.812   9.555  0.2826 -0.6740  0.5497
   84SAPS   H9X 7983   5.927   0.897   9.623  1.6157 -0.8175  0.3205
   84SAPS   H9Y 7984   5.799   0.784   9.573  0.1891 -0.5170  0.2397
   84SAPS  C310 7985   5.941   0.858   9.412 -0.4753 -0.0090  0.9552
   84SAPS  H10X 7986   5.852   0.912   9.373  1.7406  1.5122 -2.4529
   84SAPS  H10Y 7987   5.952   0.771   9.343 -2.5543  1.9349 -2.1091
   84SAPS  C311 7988   6.061   0.940   9.386 -0.9071 -0.3254 -0.1735
   84SAPS  H11X 7989   6.155   0.884   9.404 -1.1362 -0.8708 -0.6414
   84SAPS  H11Y 7990   6.061   1.029   9.453  0.8614  0.2465 -0.8485
   84SAPS  C312 7991   6.066   0.976   9.240  0.0359  0.4810  0.0706
   84SAPS  H12X 7992   5.962   1.004   9.214  0.6703  1.8079 -1.2141
   84SAPS  H12Y 7993   6.090   0.878   9.192  0.6960  0.2915  0.7695
   84SAPS  C313 7994   6.145   1.098   9.191 -0.1267  0.4649 -0.0590
   84SAPS  H13X 7995   6.256   1.091   9.187 -0.0273  2.1772 -1.6172
   84SAPS  H13Y 7996   6.133   1.175   9.271 -0.5455 -0.6265  0.9637
   84SAPS  C314 7997   6.097   1.151   9.060  0.0523  0.2700 -0.3445
   84SAPS  H14X 7998   6.130   1.256   9.047 -2.9035  1.4412  0.6969
   84SAPS  H14Y 7999   5.986   1.146   9.054  0.1627 -3.6686 -3.4809
   84SAPS  C315 8000   6.132   1.062   8.933  0.0253 -0.1532  0.0921
   84SAPS  H15X 8001   6.103   0.957   8.953  0.8971 -0.6356 -1.0253
   84SAPS  H15Y 8002   6.241   1.062   8.909  0.3362  4.3972  0.5827
   84SAPS  C316 8003   6.063   1.116   8.802  0.6384  0.1979 -0.2275
   84SAPS  H16X 8004   6.076   1.226   8.794 -2.1645  0.6135 -0.1814
   84SAPS  H16Y 8005   5.952   1.110   8.811  0.6358  0.7942  0.1918
   84SAPS  C317 8006   6.110   1.037   8.673 -0.4627 -0.0133  0.2929
   84SAPS  H17X 8007   6.077   0.932   8.683 -1.2633  0.1572 -0.4233
   84SAPS  H17Y 8008   6.221   1.042   8.678 -0.3976  0.3697 -1.0669
   84SAPS  C318 8009   6.056   1.100   8.550  0.0600 -0.1997 -0.3655
   84SAPS  H18X 8010   5.946   1.090   8.543 -0.6235  2.0751  3.8975
   84SAPS  H18Y 8011   6.121   1.055   8.471  0.8331 -0.1841  0.2499
   84SAPS  H18Z 8012   6.076   1.209   8.543 -1.4398  0.0638 -0.9587
   85SAPS     N 8013   3.268   5.683  11.097  0.4815 -0.7394  0.1861
   85SAPS   HN1 8014   3.248   5.766  11.157  0.4394 -0.0354 -0.7705
   85SAPS   HN2 8015   3.195   5.701  11.026  0.8946 -1.8763 -0.5537
   85SAPS   HN3 8016   3.239   5.598  11.149 -0.7699 -0.3014  0.2271
   85SAPS   C12 8017   3.402   5.696  11.045 -0.1965  0.6740 -0.2099
   85SAPS  H12A 8018   3.416   5.792  10.999 -0.0725  1.4800  1.4243
   85SAPS   C13 8019   3.503   5.694  11.159  0.5314 -0.5868  0.0616
   85SAPS  O13A 8020   3.472   5.679  11.278 -0.3884  0.1177  0.5375
   85SAPS  O13B 8021   3.626   5.688  11.124 -0.3100  0.3247  0.4095
   85SAPS   C11 8022   3.438   5.576  10.951 -0.2464 -0.2787  0.4503
   85SAPS  H11A 8023   3.441   5.477  11.001 -1.5325 -0.4731  0.1891
   85SAPS  H11B 8024   3.538   5.603  10.911 -0.6041 -0.0239 -0.3088
   85SAPS     P 8025   3.389   5.577  10.694  0.3247  0.2429  0.3647
   85SAPS   O13 8026   3.289   5.505  10.615 -0.2515  0.3653 -0.2030
   85SAPS   O14 8027   3.406   5.721  10.669 -0.6959 -0.4788 -0.1802
   85SAPS   O12 8028   3.346   5.554  10.843 -0.4346  0.6630 -0.1338
   85SAPS   O11 8029   3.530   5.505  10.677  0.0041 -0.5252 -0.3991
   85SAPS    C1 8030   3.541   5.362  10.691 -0.3956  0.5026 -0.2570
   85SAPS    HA 8031   3.610   5.329  10.771  1.8801 -1.8569 -2.9934
   85SAPS    HB 8032   3.443   5.310  10.689 -0.0919 -0.0932  0.3294
   85SAPS    C2 8033   3.611   5.303  10.560 -0.5163  0.6460  0.0601
   85SAPS    HS 8034   3.718   5.332  10.565 -0.0838 -0.7315 -0.6470
   85SAPS   O21 8035   3.541   5.340  10.444 -0.0405  0.2809 -0.5606
   85SAPS   C21 8036   3.620   5.386  10.351  0.6643  0.1589  0.3858
   85SAPS   O22 8037   3.739   5.386  10.346  0.8044 -0.3771 -0.2698
   85SAPS   C22 8038   3.526   5.448  10.248 -0.3278 -0.2216 -0.7096
   85SAPS   H2R 8039   3.434   5.485  10.298 -0.3104  0.0016 -0.8405
   85SAPS   H2S 8040   3.584   5.533  10.206 -0.1697 -0.2133 -0.4785
   85SAPS    C3 8041   3.618   5.145  10.579 -0.0190 -0.5625  0.3219
   85SAPS    HX 8042   3.513   5.109  10.581  0.6686 -2.6553  0.4671
   85SAPS    HY 8043   3.680   5.119  10.667  0.4940  1.6303  0.6614
   85SAPS   O31 8044   3.687   5.090  10.460 -0.0656  0.6770  0.1707
   85SAPS   C31 8045   3.815   5.047  10.463 -0.2326 -0.0410  0.8259
   85SAPS   O32 8046   3.882   5.040  10.562  0.0217 -0.5847 -0.8551
   85SAPS   C32 8047   3.861   5.001  10.328 -0.1920  0.2561  0.8224
   85SAPS   H2X 8048   3.884   4.892  10.331  1.9964  0.6302 -0.3424
   85SAPS   H2Y 8049   3.960   5.044  10.303  0.1412 -1.7705 -1.8753
   85SAPS   C23 8050   3.482   5.352  10.127  0.5439  0.6692  0.0499
   85SAPS   H3R 8051   3.447   5.255  10.168 -0.1760  1.8282  2.3465
   85SAPS   H3S 8052   3.564   5.332  10.055 -0.3667  1.7301 -1.3286
   85SAPS   C24 8053   3.362   5.407  10.052  0.2124  0.2984  0.4028
   85SAPS   H4R 8054   3.267   5.409  10.111  0.5954 -0.2622  1.0397
   85SAPS   H4S 8055   3.339   5.337   9.969 -1.3940 -2.2287  2.7857
   85SAPS   C25 8056   3.391   5.548   9.999 -0.4247 -0.1121  0.2278
   85SAPS   H5R 8057   3.357   5.623  10.072 -0.7648 -0.1143  0.0726
   85SAPS   C26 8058   3.454   5.582   9.881  0.0735 -0.7778  0.4841
   85SAPS   H6R 8059   3.446   5.684   9.841  3.7060 -1.3851 -2.3045
   85SAPS   C27 8060   3.503   5.477   9.779 -0.0405 -0.4643  0.0086
   85SAPS   H7R 8061   3.495   5.375   9.823 -0.9720 -0.5328 -0.2889
   85SAPS   H7S 8062   3.607   5.500   9.749  0.0970 -1.6646 -0.5138
   85SAPS   C28 8063   3.411   5.495   9.660 -0.1109 -0.0177 -0.7059
   85SAPS   H8R 8064   3.311   5.529   9.689 -1.0639 -2.4558 -0.8839
   85SAPS   C29 8065   3.437   5.496   9.528  0.1577  0.2552 -0.3860
   85SAPS   H9R 8066   3.350   5.494   9.461  0.6479 -0.9844 -1.0251
   85SAPS  C210 8067   3.564   5.471   9.455 -0.8537 -0.2532  0.3834
   85SAPS  H10R 8068   3.541   5.419   9.360 -1.3677  0.5900  0.0413
   85SAPS  H10S 8069   3.629   5.406   9.517  1.3981  0.3370 -1.2414
   85SAPS  C211 8070   3.638   5.600   9.436 -0.1380 -0.5207  1.0736
   85SAPS  H11R 8071   3.705   5.633   9.517 -0.3252 -0.5570  1.2435
   85SAPS  C212 8072   3.640   5.680   9.328  0.4057 -0.2042  0.7019
   85SAPS  H12R 8073   3.703   5.770   9.323  0.2611 -0.1240  0.2452
   85SAPS  C213 8074   3.555   5.654   9.208 -0.0248  0.5478  0.0365
   85SAPS  H13R 8075   3.525   5.757   9.177 -1.2657  0.7126  1.6216
   85SAPS  H13S 8076   3.460   5.616   9.250  0.1420  0.0771 -0.0058
   85SAPS  C214 8077   3.601   5.567   9.092  0.1176  0.4786 -0.0443
   85SAPS  H14R 8078   3.672   5.486   9.114 -1.7942 -1.9536 -2.1680
   85SAPS  C215 8079   3.559   5.583   8.964 -0.1204  0.5842  0.5146
   85SAPS  H15R 8080   3.596   5.514   8.887  0.3084  1.1750  0.1853
   85SAPS  C216 8081   3.454   5.682   8.927 -0.9570 -0.4943  0.0535
   85SAPS  H16R 8082   3.393   5.704   9.017  2.5976 -1.6864  3.0365
   85SAPS  H16S 8083   3.390   5.624   8.858 -0.0373 -0.7396 -0.6106
   85SAPS  C217 8084   3.501   5.816   8.869 -0.2999  0.2424  0.0330
   85SAPS  H17R 8085   3.569   5.856   8.947 -1.0252 -1.4821  1.6260
   85SAPS  H17S 8086   3.426   5.898   8.864  0.8280  1.3505  0.7171
   85SAPS  C218 8087   3.566   5.803   8.726  0.3240  0.4525  0.2101
   85SAPS  H18R 8088   3.643   5.724   8.743  2.6198  1.9322 -2.4521
   85SAPS  H18S 8089   3.621   5.896   8.701  2.0668  0.0230  2.1463
   85SAPS  C219 8090   3.469   5.772   8.610 -0.0557 -0.2181 -0.4154
   85SAPS  H19R 8091   3.413   5.865   8.587 -1.9224 -1.5086 -1.3430
   85SAPS  H19S 8092   3.391   5.701   8.648 -1.3485  1.1373 -0.4519
   85SAPS  C220 8093   3.545   5.731   8.487 -0.1118 -0.3422 -0.6853
   85SAPS  H20R 8094   3.614   5.646   8.508 -0.3255 -0.8036 -1.7690
   85SAPS  H20S 8095   3.604   5.817   8.450 -2.8864  2.4448  0.9691
   85SAPS  H20T 8096   3.491   5.704   8.394  0.7071 -2.8274 -0.5339
   85SAPS   C33 8097   3.752   5.004  10.210  0.1581  0.3361 -0.1807
   85SAPS   H3X 8098   3.698   5.100  10.195 -1.0994 -0.3448 -0.2277
   85SAPS   H3Y 8099   3.677   4.924  10.230  0.1517  0.6420  1.1205
   85SAPS   C34 8100   3.811   4.968  10.075 -0.4902 -0.1431 -0.1755
   85SAPS   H4X 8101   3.850   4.863  10.069  3.9114  1.0246  2.9323
   85SAPS   H4Y 8102   3.896   5.031  10.042 -0.5188 -1.6143 -3.5603
   85SAPS   C35 8103   3.714   4.989   9.959 -0.0854  0.4439  0.1260
   85SAPS   H5X 8104   3.661   5.085   9.978  0.8690  0.6910  1.8197
   85SAPS   H5Y 8105   3.638   4.910   9.974  0.6073 -0.0318  1.3031
   85SAPS   C36 8106   3.771   4.968   9.821 -0.4381 -0.3970  0.6600
   85SAPS   H6X 8107   3.792   4.861   9.803 -1.2530 -0.2632 -1.3845
   85SAPS   H6Y 8108   3.854   5.034   9.789  0.8487 -1.2693  2.0779
   85SAPS   C37 8109   3.662   5.016   9.720 -0.0926  0.0629  0.3317
   85SAPS   H7X 8110   3.651   5.127   9.724  2.6552  0.4869 -0.8806
   85SAPS   H7Y 8111   3.571   4.956   9.740  1.1049 -1.9535  0.0264
   85SAPS   C38 8112   3.713   4.999   9.573  0.0800  0.1170  0.2634
   85SAPS   H8X 8113   3.725   4.892   9.546 -2.7054 -0.0144 -0.8019
   85SAPS   H8Y 8114   3.807   5.057   9.559  0.8852 -1.0470  0.7281
   85SAPS   C39 8115   3.612   5.063   9.478  0.3224 -0.4389 -0.0891
   85SAPS   H9X 8116   3.610   5.171   9.507  1.4415 -1.3155  3.8991
   85SAPS   H9Y 8117   3.511   5.023   9.502  0.2439  0.4342  1.1445
   85SAPS  C310 8118   3.661   5.052   9.331  0.5143 -0.6661 -0.2648
   85SAPS  H10X 8119   3.662   4.944   9.306  2.2098 -0.1917 -2.6146
   85SAPS  H10Y 8120   3.767   5.087   9.330 -0.4649  2.7058 -0.8224
   85SAPS  C311 8121   3.568   5.130   9.232 -0.1654  0.0933 -0.2280
   85SAPS  H11X 8122   3.551   5.234   9.267 -0.0307  0.3988 -1.0515
   85SAPS  H11Y 8123   3.471   5.079   9.250  0.7420 -1.9401 -0.7230
   85SAPS  C312 8124   3.596   5.111   9.087  0.0758 -0.1738  0.1130
   85SAPS  H12X 8125   3.645   5.012   9.071  1.0488  0.0183  1.6771
   85SAPS  H12Y 8126   3.671   5.185   9.051  1.2477 -1.4269 -0.1128
   85SAPS  C313 8127   3.478   5.117   8.991 -0.3298 -0.3939 -0.0366
   85SAPS  H13X 8128   3.518   5.117   8.888  3.7328  0.4977  1.3597
   85SAPS  H13Y 8129   3.422   5.211   9.011 -0.1807  0.0136 -1.4555
   85SAPS  C314 8130   3.388   5.000   9.002  0.0573  0.2437  0.1075
   85SAPS  H14X 8131   3.298   5.021   8.941  0.4648  0.6406 -0.3678
   85SAPS  H14Y 8132   3.360   4.975   9.106  1.6197  1.3863  0.8581
   85SAPS  C315 8133   3.458   4.867   8.947  0.7535  0.0203 -0.0839
   85SAPS  H15X 8134   3.381   4.787   8.934  1.2517 -0.1221 -2.6083
   85SAPS  H15Y 8135   3.531   4.826   9.019  0.9700 -1.0366 -0.8732
   85SAPS  C316 8136   3.520   4.880   8.814 -0.3051  0.3242  0.6199
   85SAPS  H16X 8137   3.609   4.945   8.798 -0.6934  0.9857  1.0765
   85SAPS  H16Y 8138   3.448   4.928   8.743  1.3264  0.0612 -1.3153
   85SAPS  C317 8139   3.550   4.742   8.755  0.4656  0.6646  0.0369
   85SAPS  H17X 8140   3.448   4.698   8.747 -0.1632  2.2740 -1.6107
   85SAPS  H17Y 8141   3.606   4.686   8.832  0.9212  1.2567  0.1476
   85SAPS  C318 8142   3.617   4.730   8.622  0.3720 -0.0437 -0.0208
   85SAPS  H18X 8143   3.725   4.753   8.634  0.7178 -1.4202 -0.3316
   85SAPS  H18Y 8144   3.571   4.796   8.546 -0.1656  1.2620  1.3836
   85SAPS  H18Z 8145   3.605   4.625   8.589 -1.8072  0.5975 -1.4694
   86SAPS     N 8146   4.118   2.378  11.086  0.1978  0.3658  1.3024
   86SAPS   HN1 8147   4.115   2.463  11.146  0.0823  1.3171 -0.0263
   86SAPS   HN2 8148   4.022   2.357  11.054 -0.1619  0.3489  2.3493
   86SAPS   HN3 8149   4.170   2.297  11.127  0.4408 -2.2747 -3.4434
   86SAPS   C12 8150   4.188   2.411  10.962 -0.1064  0.1173 -0.1302
   86SAPS  H12A 8151   4.129   2.382  10.876 -1.4780  1.6617  0.2579
   86SAPS   C13 8152   4.208   2.558  10.953  0.0437  0.3523  0.6409
   86SAPS  O13A 8153   4.167   2.637  11.047  0.7300 -0.2903  0.3849
   86SAPS  O13B 8154   4.269   2.607  10.855 -0.0827  0.5411  0.9905
   86SAPS   C11 8155   4.322   2.346  10.953 -0.4190  0.6709  0.0557
   86SAPS  H11A 8156   4.401   2.385  11.022 -0.0451 -0.6895  0.4346
   86SAPS  H11B 8157   4.373   2.346  10.855  2.4486 -1.7720  1.3741
   86SAPS     P 8158   4.346   2.070  10.920  0.0897  0.3943  0.3693
   86SAPS   O13 8159   4.488   2.064  10.963 -0.5125 -0.1182 -0.2943
   86SAPS   O14 8160   4.256   1.961  10.970 -0.2008  0.0344  0.3021
   86SAPS   O12 8161   4.297   2.208  10.985 -0.5605 -0.1680  0.4812
   86SAPS   O11 8162   4.321   2.090  10.765  0.1449 -0.6688 -0.2041
   86SAPS    C1 8163   4.182   2.125  10.731  0.7206  0.6175 -0.8669
   86SAPS    HA 8164   4.130   2.028  10.715 -1.0031  1.3204  0.1877
   86SAPS    HB 8165   4.117   2.164  10.812 -0.9268 -4.1723  0.4297
   86SAPS    C2 8166   4.180   2.205  10.600  0.1175  0.2565  0.0573
   86SAPS    HS 8167   4.232   2.145  10.522  1.0219  0.9225  0.1279
   86SAPS   O21 8168   4.261   2.320  10.629  0.9230 -0.1654  0.2665
   86SAPS   C21 8169   4.286   2.393  10.523 -0.2008 -0.0740  0.7371
   86SAPS   O22 8170   4.267   2.359  10.408  0.3132  0.4474 -0.2972
   86SAPS   C22 8171   4.347   2.521  10.562  0.5122  0.8356  0.3527
   86SAPS   H2R 8172   4.263   2.581  10.603  0.2912  0.9259 -0.2360
   86SAPS   H2S 8173   4.410   2.507  10.653  0.6687  3.2540  0.6793
   86SAPS    C3 8174   4.031   2.246  10.571 -0.0882 -0.4582 -0.2881
   86SAPS    HX 8175   4.032   2.286  10.468  0.6597 -1.0598 -0.5310
   86SAPS    HY 8176   4.000   2.319  10.648 -2.5342  0.2828 -1.8693
   86SAPS   O31 8177   3.948   2.131  10.551  0.2784  0.3732 -0.3046
   86SAPS   C31 8178   3.874   2.091  10.647  0.1705  0.0895 -0.0218
   86SAPS   O32 8179   3.863   2.144  10.756  0.4547 -0.1349 -0.6232
   86SAPS   C32 8180   3.795   1.966  10.605  0.1618 -0.1810 -0.1360
   86SAPS   H2X 8181   3.713   1.947  10.677  0.6935 -0.1762  0.4894
   86SAPS   H2Y 8182   3.875   1.890  10.617  0.0430 -0.2048  0.5849
   86SAPS   C23 8183   4.420   2.593  10.450  0.2074 -0.0849  0.0168
   86SAPS   H3R 8184   4.425   2.702  10.472  1.7292 -0.2855  0.7693
   86SAPS   H3S 8185   4.359   2.571  10.359  2.7864 -0.7021 -1.6651
   86SAPS   C24 8186   4.566   2.537  10.431  0.0582  1.2711 -0.3821
   86SAPS   H4R 8187   4.597   2.547  10.324  1.9301 -1.1967 -0.1538
   86SAPS   H4S 8188   4.560   2.427  10.441 -3.7711  1.2490 -1.1585
   86SAPS   C25 8189   4.653   2.603  10.532  0.1321  0.1365 -0.1743
   86SAPS   H5R 8190   4.612   2.688  10.589  0.5398 -0.7068  1.4203
   86SAPS   C26 8191   4.767   2.547  10.584  0.1951 -0.1157 -0.9221
   86SAPS   H6R 8192   4.806   2.603  10.670 -1.9695  2.6233 -1.5762
   86SAPS   C27 8193   4.835   2.419  10.536 -0.1019 -0.7782  0.1291
   86SAPS   H7R 8194   4.788   2.392  10.440 -2.4834  2.9009  0.0702
   86SAPS   H7S 8195   4.792   2.338  10.598  2.9577 -1.4896  1.5438
   86SAPS   C28 8196   4.980   2.419  10.536 -0.6291 -0.6618 -0.0156
   86SAPS   H8R 8197   5.031   2.359  10.613  0.2662 -0.5827 -0.5437
   86SAPS   C29 8198   5.062   2.492  10.454  0.1666 -0.0357 -0.5875
   86SAPS   H9R 8199   5.171   2.494  10.462  0.1974  0.6649 -1.1820
   86SAPS  C210 8200   5.016   2.583  10.335 -0.1682  0.6125 -0.5401
   86SAPS  H10R 8201   5.064   2.681  10.361  1.4991  0.0844 -1.4996
   86SAPS  H10S 8202   4.905   2.584  10.335 -0.1690  0.7133 -0.1999
   86SAPS  C211 8203   5.043   2.527  10.203 -0.3309  0.3901  0.5230
   86SAPS  H11R 8204   5.054   2.418  10.188 -1.1096  0.4443 -0.5933
   86SAPS  C212 8205   5.043   2.590  10.087 -0.3018 -0.2619 -0.3753
   86SAPS  H12R 8206   5.059   2.543   9.988  1.7319  2.5336 -1.5124
   86SAPS  C213 8207   5.035   2.742  10.080  0.5219 -0.7928 -0.0873
   86SAPS  H13R 8208   5.072   2.790   9.987 -0.8128 -0.2830 -0.3826
   86SAPS  H13S 8209   5.108   2.777  10.155  0.1142  1.6960 -0.7586
   86SAPS  C214 8210   4.891   2.797  10.095 -1.1677 -0.0927  0.4615
   86SAPS  H14R 8211   4.876   2.861  10.183 -1.5976  1.3596 -0.6415
   86SAPS  C215 8212   4.796   2.789  10.004  0.3829  0.0459 -0.0402
   86SAPS  H15R 8213   4.706   2.853  10.012 -0.0974 -0.6875  0.5626
   86SAPS  C216 8214   4.798   2.718   9.870 -0.2231  0.9929  0.1163
   86SAPS  H16R 8215   4.877   2.640   9.869  0.7148  1.9324 -0.5546
   86SAPS  H16S 8216   4.828   2.787   9.789 -0.3589  1.2168  0.2570
   86SAPS  C217 8217   4.659   2.656   9.843  0.0336 -0.2545 -0.3876
   86SAPS  H17R 8218   4.642   2.645   9.734 -0.7256 -1.7693 -0.1429
   86SAPS  H17S 8219   4.585   2.730   9.882  2.2206  1.0968  1.4887
   86SAPS  C218 8220   4.641   2.522   9.909 -0.6269  0.3912 -0.5993
   86SAPS  H18R 8221   4.670   2.533  10.016 -0.7883 -0.6715 -0.4271
   86SAPS  H18S 8222   4.696   2.444   9.852 -0.9880  1.4344 -2.4628
   86SAPS  C219 8223   4.489   2.480   9.916 -0.1435  0.5765  0.1003
   86SAPS  H19R 8224   4.429   2.563   9.960  0.5760 -0.3664  3.0764
   86SAPS  H19S 8225   4.487   2.397   9.989 -1.1075 -0.0069 -0.5571
   86SAPS  C220 8226   4.437   2.438   9.778 -0.1564  0.0120 -0.5720
   86SAPS  H20R 8227   4.473   2.509   9.700  2.3912 -0.6428 -0.1013
   86SAPS  H20S 8228   4.327   2.430   9.773 -0.0877  0.0808 -3.2978
   86SAPS  H20T 8229   4.482   2.338   9.764 -0.7501 -0.5559  1.2985
   86SAPS   C33 8230   3.733   1.966  10.461 -0.4428  0.7079 -0.2824
   86SAPS   H3X 8231   3.677   2.061  10.448 -1.3683  0.3135  0.6556
   86SAPS   H3Y 8232   3.670   1.875  10.453  1.2842 -0.7271  1.3410
   86SAPS   C34 8233   3.835   1.932  10.352 -0.2621  0.2325  1.1447
   86SAPS   H4X 8234   3.877   1.834  10.384  1.3318  0.3431 -0.4820
   86SAPS   H4Y 8235   3.919   2.004  10.355  0.5986 -0.5555 -1.3670
   86SAPS   C35 8236   3.784   1.935  10.207  0.5797  0.2978  0.0935
   86SAPS   H5X 8237   3.777   2.042  10.180  2.8789 -0.1676 -2.8202
   86SAPS   H5Y 8238   3.693   1.875  10.184  1.0715 -0.0378 -1.0524
   86SAPS   C36 8239   3.891   1.882  10.122  0.5613  0.3440  0.2068
   86SAPS   H6X 8240   3.901   1.774  10.147  3.1422  0.6107  0.5973
   86SAPS   H6Y 8241   3.990   1.928  10.143  1.0949  0.3228 -2.0729
   86SAPS   C37 8242   3.860   1.892   9.971  0.1765  0.0834 -0.4281
   86SAPS   H7X 8243   3.861   1.997   9.936  2.2848  0.7353  1.3924
   86SAPS   H7Y 8244   3.757   1.856   9.948  0.4834 -1.7224  0.8540
   86SAPS   C38 8245   3.958   1.801   9.896  0.4078  0.4158  0.2020
   86SAPS   H8X 8246   3.950   1.701   9.942 -1.3518  1.2113  1.7059
   86SAPS   H8Y 8247   4.063   1.837   9.903  0.5355  0.1580 -0.3218
   86SAPS   C39 8248   3.914   1.793   9.749 -0.4096 -0.4084  0.6020
   86SAPS   H9X 8249   3.932   1.892   9.703 -1.0186 -1.4992 -2.1493
   86SAPS   H9Y 8250   3.806   1.770   9.732 -0.5388  0.5565  0.0503
   86SAPS  C310 8251   3.994   1.687   9.679 -0.2537  0.0467 -0.5006
   86SAPS  H10X 8252   3.941   1.597   9.716 -2.4268  1.0831 -0.9662
   86SAPS  H10Y 8253   4.100   1.694   9.712 -0.1677  0.6604 -0.8994
   86SAPS  C311 8254   3.988   1.690   9.522 -0.3452  0.0167  0.4149
   86SAPS  H11X 8255   4.047   1.774   9.480 -2.0729 -0.5244 -3.5764
   86SAPS  H11Y 8256   3.882   1.705   9.491 -0.8472  0.2107  2.0939
   86SAPS  C312 8257   4.046   1.560   9.465 -0.4768 -0.2919 -0.5038
   86SAPS  H12X 8258   4.008   1.468   9.514  1.8599 -1.2971 -0.4887
   86SAPS  H12Y 8259   4.156   1.564   9.477 -0.1289 -0.5688 -3.0385
   86SAPS  C313 8260   4.024   1.544   9.319  0.2743  0.3868  0.5900
   86SAPS  H13X 8261   3.954   1.621   9.278 -1.6759 -0.9579  1.2753
   86SAPS  H13Y 8262   3.970   1.449   9.301 -0.9962  1.6389 -3.4384
   86SAPS  C314 8263   4.148   1.528   9.240 -0.0131  0.0726 -0.0054
   86SAPS  H14X 8264   4.107   1.507   9.139 -0.9504 -0.3935  0.4626
   86SAPS  H14Y 8265   4.212   1.445   9.277 -0.3719 -1.0847 -1.8553
   86SAPS  C315 8266   4.239   1.656   9.231 -0.2181  0.2615 -0.3063
   86SAPS  H15X 8267   4.286   1.675   9.330 -1.2700 -0.3366  0.3266
   86SAPS  H15Y 8268   4.174   1.746   9.234 -0.3401  0.1811 -0.5156
   86SAPS  C316 8269   4.333   1.647   9.105 -0.2782 -1.1101 -0.7754
   86SAPS  H16X 8270   4.271   1.634   9.013 -2.5392 -1.8634  0.7875
   86SAPS  H16Y 8271   4.406   1.563   9.108  0.6292 -0.3275 -0.4654
   86SAPS  C317 8272   4.421   1.768   9.102  0.0942 -0.1998  0.4006
   86SAPS  H17X 8273   4.473   1.789   9.197  0.2572  0.7249  0.1119
   86SAPS  H17Y 8274   4.357   1.856   9.078 -2.2613 -1.8935  0.0882
   86SAPS  C318 8275   4.525   1.771   8.995 -0.8490 -0.0201 -0.1419
   86SAPS  H18X 8276   4.609   1.699   9.011 -1.1957 -0.9002 -1.9877
   86SAPS  H18Y 8277   4.551   1.876   8.972 -2.1902  0.5878  0.9735
   86SAPS  H18Z 8278   4.481   1.729   8.902 -0.8684 -1.7255  0.5919
   87SAPS     N 8279   4.705   4.551  11.309 -0.1564 -0.5373 -0.0252
   87SAPS   HN1 8280   4.718   4.632  11.373 -1.5190  0.5344 -1.0344
   87SAPS   HN2 8281   4.694   4.587  11.212  0.5752  0.7220  0.3415
   87SAPS   HN3 8282   4.617   4.506  11.344  0.0573  1.1198  2.9525
   87SAPS   C12 8283   4.832   4.465  11.323  0.7276 -0.6998 -0.5645
   87SAPS  H12A 8284   4.920   4.520  11.295 -0.7475  0.5314 -3.2726
   87SAPS   C13 8285   4.841   4.401  11.469 -0.2639  0.3022 -0.5543
   87SAPS  O13A 8286   4.739   4.405  11.547 -0.8590 -0.2123  0.4942
   87SAPS  O13B 8287   4.945   4.336  11.496  0.3451 -0.2001 -0.0111
   87SAPS   C11 8288   4.816   4.346  11.218 -0.3919  0.2454  0.3063
   87SAPS  H11A 8289   4.727   4.283  11.240  0.1621 -0.4690  0.5537
   87SAPS  H11B 8290   4.908   4.290  11.246  1.0445  3.1846  1.9767
   87SAPS     P 8291   4.853   4.257  10.979  0.1932 -0.3172  0.2745
   87SAPS   O13 8292   4.979   4.189  11.032  0.8833  0.2678 -0.0742
   87SAPS   O14 8293   4.734   4.178  10.935  0.5906  0.2890 -0.5688
   87SAPS   O12 8294   4.814   4.382  11.079  0.1069 -0.0941  0.0727
   87SAPS   O11 8295   4.890   4.349  10.849  0.4057 -0.0363  0.0625
   87SAPS    C1 8296   4.780   4.417  10.781 -0.3925 -0.0957 -0.0530
   87SAPS    HA 8297   4.679   4.379  10.811 -0.2227 -0.5602 -0.0591
   87SAPS    HB 8298   4.783   4.521  10.819  1.2171 -0.1856  0.1085
   87SAPS    C2 8299   4.802   4.437  10.634 -0.7023 -0.3369  0.4393
   87SAPS    HS 8300   4.744   4.525  10.600 -1.2729 -0.6674  0.5447
   87SAPS   O21 8301   4.757   4.318  10.560  0.1687 -0.5236 -1.0528
   87SAPS   C21 8302   4.627   4.315  10.538  0.4329  0.1458  0.0509
   87SAPS   O22 8303   4.549   4.402  10.565 -0.5385 -0.2048 -0.2927
   87SAPS   C22 8304   4.591   4.176  10.473 -0.2584  0.0772  0.1407
   87SAPS   H2R 8305   4.658   4.104  10.525  0.9329  1.0621  0.0306
   87SAPS   H2S 8306   4.491   4.160  10.518  0.2004 -0.1837  1.0829
   87SAPS    C3 8307   4.951   4.454  10.587 -0.3166  0.1208 -0.5439
   87SAPS    HX 8308   5.002   4.362  10.623  2.4714  0.3020 -3.5264
   87SAPS    HY 8309   5.012   4.537  10.630 -0.6217  0.7008 -1.2027
   87SAPS   O31 8310   4.953   4.471  10.444  0.3291 -0.1185 -0.1357
   87SAPS   C31 8311   5.012   4.371  10.373 -0.0120 -0.3034  0.4515
   87SAPS   O32 8312   5.033   4.260  10.413  0.8510  0.2241 -0.0623
   87SAPS   C32 8313   5.056   4.417  10.235  0.4855 -0.1481  0.7559
   87SAPS   H2X 8314   5.161   4.383  10.222  0.9577  1.7961 -1.0681
   87SAPS   H2Y 8315   5.053   4.528  10.234  0.9783 -0.1320 -0.1985
   87SAPS   C23 8316   4.614   4.183  10.322 -0.3827 -0.0557  0.0619
   87SAPS   H3R 8317   4.608   4.079  10.286  1.2822 -0.7699  1.7298
   87SAPS   H3S 8318   4.718   4.209  10.293 -0.4884 -1.4277 -1.6576
   87SAPS   C24 8319   4.503   4.263  10.258  0.1952 -0.0046  0.1658
   87SAPS   H4R 8320   4.404   4.240  10.303 -0.4528  0.2341 -1.0938
   87SAPS   H4S 8321   4.492   4.226  10.154  0.9427  0.2625 -0.0139
   87SAPS   C25 8322   4.504   4.411  10.257  0.2460  0.0117 -0.1537
   87SAPS   H5R 8323   4.477   4.461  10.351 -0.7003 -1.2991  0.2992
   87SAPS   C26 8324   4.514   4.492  10.151  0.0836 -0.1228 -0.7993
   87SAPS   H6R 8325   4.472   4.592  10.172 -1.2890 -0.1788 -3.0390
   87SAPS   C27 8326   4.527   4.451  10.007 -0.0703 -0.5832  0.3675
   87SAPS   H7R 8327   4.586   4.358   9.990 -1.2907 -1.0369 -1.7172
   87SAPS   H7S 8328   4.582   4.532   9.954  1.0437 -0.8438  1.0748
   87SAPS   C28 8329   4.401   4.404   9.937  0.3784 -0.8638 -0.2073
   87SAPS   H8R 8330   4.319   4.369  10.001  1.4688 -2.5361  0.3526
   87SAPS   C29 8331   4.378   4.415   9.807  0.0667  0.6547  0.3232
   87SAPS   H9R 8332   4.289   4.376   9.756  1.1667 -1.6978  0.0681
   87SAPS  C210 8333   4.474   4.465   9.702  1.0948 -0.2492 -0.1366
   87SAPS  H10R 8334   4.538   4.378   9.672  2.3583 -0.5855  3.1148
   87SAPS  H10S 8335   4.551   4.538   9.737  2.1401 -0.7535 -1.2759
   87SAPS  C211 8336   4.397   4.522   9.586 -0.5239 -0.4856 -0.3274
   87SAPS  H11R 8337   4.324   4.599   9.613  0.0497  0.4126 -1.2648
   87SAPS  C212 8338   4.417   4.504   9.455  0.2175  0.6034 -0.6812
   87SAPS  H12R 8339   4.348   4.552   9.384 -1.6999 -0.9813  0.0155
   87SAPS  C213 8340   4.527   4.419   9.391  0.1979 -0.3530 -0.0901
   87SAPS  H13R 8341   4.487   4.317   9.370 -1.6852  0.2294  0.5194
   87SAPS  H13S 8342   4.609   4.400   9.463  0.6493  3.4129  0.5927
   87SAPS  C214 8343   4.585   4.486   9.271  0.3076 -0.3412 -0.2086
   87SAPS  H14R 8344   4.635   4.581   9.295  3.9790 -2.5787  2.1290
   87SAPS  C215 8345   4.572   4.460   9.140 -0.3337  0.1584 -0.5149
   87SAPS  H15R 8346   4.609   4.529   9.063 -2.4177 -0.1990 -1.9395
   87SAPS  C216 8347   4.497   4.341   9.081 -0.8948  0.4572  0.1543
   87SAPS  H16R 8348   4.467   4.274   9.165 -0.4303  1.0544  0.8026
   87SAPS  H16S 8349   4.564   4.277   9.021 -1.9225  1.7044 -2.4589
   87SAPS  C217 8350   4.367   4.356   9.007  0.3887 -0.8337  1.3147
   87SAPS  H17R 8351   4.314   4.263   8.978 -2.5037  0.8470  0.9120
   87SAPS  H17S 8352   4.383   4.418   8.916  1.2212  0.0901  2.0657
   87SAPS  C218 8353   4.261   4.414   9.093  0.1384 -0.0765 -0.5078
   87SAPS  H18R 8354   4.284   4.521   9.109  0.0765 -0.0526 -0.5808
   87SAPS  H18S 8355   4.262   4.362   9.192  0.8546 -0.8691 -0.9149
   87SAPS  C219 8356   4.119   4.405   9.030 -0.0701  0.1487  0.9712
   87SAPS  H19R 8357   4.041   4.428   9.107 -1.6669  2.3829 -1.1753
   87SAPS  H19S 8358   4.093   4.301   9.000  1.2480  0.3055 -0.8785
   87SAPS  C220 8359   4.102   4.498   8.908  0.0450 -0.1129  0.3618
   87SAPS  H20R 8360   4.124   4.604   8.935 -1.7522 -0.2260  2.6538
   87SAPS  H20S 8361   3.995   4.499   8.879  0.1979 -0.8707 -0.2337
   87SAPS  H20T 8362   4.170   4.463   8.828  0.6645 -0.2968  0.9568
   87SAPS   C33 8363   4.956   4.378  10.125  0.8827 -0.1496  0.5242
   87SAPS   H3X 8364   4.869   4.447  10.135 -1.4539 -2.7970 -0.1201
   87SAPS   H3Y 8365   4.916   4.274  10.126 -0.4853  0.3502  0.8201
   87SAPS   C34 8366   5.013   4.403   9.989  0.3258 -0.2045 -0.4956
   87SAPS   H4X 8367   5.105   4.340   9.979  0.0472 -0.9854  1.2933
   87SAPS   H4Y 8368   5.055   4.504   9.974  1.8544 -0.8594 -0.8976
   87SAPS   C35 8369   4.923   4.367   9.877 -0.3937  0.3840 -0.9979
   87SAPS   H5X 8370   4.839   4.437   9.857  0.8731  1.8069 -1.5990
   87SAPS   H5Y 8371   4.884   4.267   9.904 -1.0461  1.5645  3.2275
   87SAPS   C36 8372   5.004   4.343   9.746 -0.6025  0.3653  0.1929
   87SAPS   H6X 8373   5.044   4.239   9.742  1.1908  0.8690  2.6335
   87SAPS   H6Y 8374   5.097   4.403   9.741 -0.3899  0.0482  0.3068
   87SAPS   C37 8375   4.929   4.376   9.613  0.2486 -0.1742 -0.3971
   87SAPS   H7X 8376   4.894   4.480   9.623 -0.1285 -0.2730 -0.6910
   87SAPS   H7Y 8377   4.846   4.302   9.610 -1.6844  1.6137  3.0783
   87SAPS   C38 8378   5.029   4.359   9.495  0.2679  0.5623  0.9630
   87SAPS   H8X 8379   5.017   4.253   9.467  0.9629  0.2660  1.7582
   87SAPS   H8Y 8380   5.138   4.367   9.513  0.1969  0.9127  1.2622
   87SAPS   C39 8381   4.982   4.453   9.380  0.3171  0.4871 -0.2727
   87SAPS   H9X 8382   4.992   4.558   9.414 -0.0912  0.5474 -0.3340
   87SAPS   H9Y 8383   4.872   4.446   9.367  0.2007  3.8669 -2.1255
   87SAPS  C310 8384   5.059   4.443   9.250 -0.2627 -0.4717 -0.4589
   87SAPS  H10X 8385   5.088   4.336   9.240  1.8327  0.1468 -1.6805
   87SAPS  H10Y 8386   5.160   4.487   9.263  0.6637 -2.6581  0.1886
   87SAPS  C311 8387   4.982   4.505   9.133 -0.3478  0.5577 -0.4576
   87SAPS  H11X 8388   4.977   4.615   9.150  2.8429  1.4050 -3.7340
   87SAPS  H11Y 8389   4.877   4.470   9.140 -0.0788 -0.1019  0.3998
   87SAPS  C312 8390   5.048   4.511   8.997 -0.3205  1.0906  0.5443
   87SAPS  H12X 8391   4.996   4.581   8.928 -1.6317 -1.3908 -1.1411
   87SAPS  H12Y 8392   5.053   4.408   8.957  0.4361  0.8575  1.2103
   87SAPS  C313 8393   5.194   4.563   8.998 -0.2856 -0.5058  0.4658
   87SAPS  H13X 8394   5.264   4.487   9.040  2.2940  1.4397 -0.0704
   87SAPS  H13Y 8395   5.193   4.659   9.055 -2.9924 -1.2902  1.9186
   87SAPS  C314 8396   5.244   4.586   8.849 -0.7919 -0.1637  0.0191
   87SAPS  H14X 8397   5.341   4.641   8.850 -1.4137  0.9882 -0.8017
   87SAPS  H14Y 8398   5.166   4.643   8.794  0.0395  0.7130 -0.2839
   87SAPS  C315 8399   5.277   4.452   8.774  0.3041 -0.3518 -0.3091
   87SAPS  H15X 8400   5.279   4.469   8.665  0.9513  0.9926 -0.1184
   87SAPS  H15Y 8401   5.198   4.382   8.807 -0.4452  0.7811  0.3979
   87SAPS  C316 8402   5.419   4.405   8.815 -0.1754 -0.3582  0.6916
   87SAPS  H16X 8403   5.436   4.401   8.924  2.8290  0.6630  0.3383
   87SAPS  H16Y 8404   5.484   4.482   8.770  0.0098 -0.1985  1.2288
   87SAPS  C317 8405   5.456   4.269   8.749  0.0066  0.1466  0.0253
   87SAPS  H17X 8406   5.462   4.273   8.638 -0.6379 -1.7717 -0.0996
   87SAPS  H17Y 8407   5.380   4.194   8.778  1.9729 -2.2702 -0.7625
   87SAPS  C318 8408   5.596   4.222   8.792  0.2985 -0.2114 -0.3795
   87SAPS  H18X 8409   5.630   4.147   8.717 -2.3687 -1.4246 -0.4674
   87SAPS  H18Y 8410   5.593   4.173   8.892  0.9373  0.5137  0.0046
   87SAPS  H18Z 8411   5.665   4.309   8.785  0.0547 -0.0859 -1.3715
   88SAPS     N 8412   0.766   2.692  10.859 -0.3115  0.5169 -0.0494
   88SAPS   HN1 8413   0.669   2.721  10.834 -0.1606  2.1122  1.0922
   88SAPS   HN2 8414   0.781   2.735  10.952  1.0929 -2.4231  1.2214
   88SAPS   HN3 8415   0.838   2.728  10.793  0.9133 -0.3032  0.7946
   88SAPS   C12 8416   0.788   2.545  10.871  0.2791 -0.4158  0.2798
   88SAPS  H12A 8417   0.836   2.514  10.780  2.9829 -0.3096  1.5556
   88SAPS   C13 8418   0.866   2.519  11.005  0.8232 -0.1128 -0.2950
   88SAPS  O13A 8419   0.866   2.603  11.099 -0.5328  0.1843  0.2947
   88SAPS  O13B 8420   0.897   2.397  11.028  0.6843 -0.5613 -0.1892
   88SAPS   C11 8421   0.654   2.473  10.878 -0.7328  0.1000 -0.1064
   88SAPS  H11A 8422   0.598   2.490  10.972  0.0091  1.0693  0.1726
   88SAPS  H11B 8423   0.687   2.367  10.864 -0.3529  0.4351 -2.0511
   88SAPS     P 8424   0.436   2.447  10.748 -0.3248 -0.2348 -0.2313
   88SAPS   O13 8425   0.424   2.312  10.815 -0.0962 -0.4777 -0.6847
   88SAPS   O14 8426   0.341   2.553  10.791  0.1223 -0.0664 -0.0061
   88SAPS   O12 8427   0.581   2.509  10.763  0.7503  0.9457 -0.0848
   88SAPS   O11 8428   0.429   2.423  10.590  0.7074 -0.1893  0.3155
   88SAPS    C1 8429   0.499   2.321  10.521 -0.3620  0.9552  0.0675
   88SAPS    HA 8430   0.574   2.276  10.589 -1.5703 -0.6002  0.4324
   88SAPS    HB 8431   0.425   2.242  10.495 -0.4093  0.9546  0.2033
   88SAPS    C2 8432   0.578   2.377  10.405  1.1429 -0.1878  0.4264
   88SAPS    HS 8433   0.574   2.488  10.414 -0.7283 -0.1109 -0.8132
   88SAPS   O21 8434   0.516   2.341  10.280 -0.4885  0.0726 -0.3987
   88SAPS   C21 8435   0.410   2.401  10.235 -0.4555  0.2134  0.3726
   88SAPS   O22 8436   0.357   2.496  10.287  0.6063  0.1737 -0.0217
   88SAPS   C22 8437   0.374   2.336  10.106 -0.1739  0.0825  0.7763
   88SAPS   H2R 8438   0.326   2.415  10.044 -0.6677 -1.5517 -1.0140
   88SAPS   H2S 8439   0.460   2.302  10.045 -1.8558  0.7159 -2.1286
   88SAPS    C3 8440   0.725   2.318  10.405 -0.4410 -0.1070 -0.8960
   88SAPS    HX 8441   0.712   2.208  10.397 -3.2266  0.1774 -1.5543
   88SAPS    HY 8442   0.771   2.335  10.505  1.4478 -2.4231 -1.2799
   88SAPS   O31 8443   0.811   2.352  10.295  0.3757 -0.3220 -0.6216
   88SAPS   C31 8444   0.924   2.286  10.298 -0.3138 -0.2792  0.4435
   88SAPS   O32 8445   0.976   2.241  10.395  0.1041 -0.3800  0.5274
   88SAPS   C32 8446   0.991   2.304  10.150 -0.2913 -0.4764 -0.0311
   88SAPS   H2X 8447   1.048   2.399  10.143  3.0540 -2.2866  0.4562
   88SAPS   H2Y 8448   0.908   2.296  10.077 -3.2854 -1.9535  3.2597
   88SAPS   C23 8449   0.264   2.229  10.119  0.3033 -0.3265 -0.9943
   88SAPS   H3R 8450   0.185   2.255  10.193 -1.6228 -0.5050 -2.8873
   88SAPS   H3S 8451   0.320   2.142  10.160 -1.0829 -0.9501 -0.3551
   88SAPS   C24 8452   0.225   2.189   9.974  0.0782  0.2517  1.1608
   88SAPS   H4R 8453   0.180   2.087   9.974  0.0484  0.1618 -2.3644
   88SAPS   H4S 8454   0.319   2.179   9.916 -0.2831  0.5372  0.5209
   88SAPS   C25 8455   0.126   2.287   9.917  0.2499 -0.1569  0.0798
   88SAPS   H5R 8456   0.035   2.304   9.978  0.2420  1.1673 -0.2818
   88SAPS   C26 8457   0.150   2.357   9.804  0.3978 -0.5833 -0.5928
   88SAPS   H6R 8458   0.078   2.438   9.785  2.4242  1.9012  1.5400
   88SAPS   C27 8459   0.259   2.353   9.706 -0.0637  0.1558 -0.1375
   88SAPS   H7R 8460   0.349   2.298   9.740 -0.3631  0.3061  0.9261
   88SAPS   H7S 8461   0.285   2.456   9.671 -1.7267  0.2467 -1.2111
   88SAPS   C28 8462   0.206   2.286   9.581  0.7565  0.3983 -0.3401
   88SAPS   H8R 8463   0.207   2.176   9.581 -2.1918  0.2911 -0.4713
   88SAPS   C29 8464   0.143   2.344   9.482 -0.0804 -0.1322  0.2722
   88SAPS   H9R 8465   0.109   2.278   9.401 -1.5011 -1.8696  2.1727
   88SAPS  C210 8466   0.133   2.494   9.462 -0.9631 -1.0346 -0.1132
   88SAPS  H10R 8467   0.237   2.532   9.472  0.2214 -4.3507  1.7461
   88SAPS  H10S 8468   0.075   2.546   9.541  1.1174  1.1670  0.0436
   88SAPS  C211 8469   0.067   2.523   9.327  0.3395 -0.1699  0.2181
   88SAPS  H11R 8470  -0.043   2.522   9.334  0.3424 -0.3096  0.2286
   88SAPS  C212 8471   0.117   2.542   9.206 -0.1469 -0.3149  0.0362
   88SAPS  H12R 8472   0.054   2.560   9.117 -0.9246 -1.6847  0.2855
   88SAPS  C213 8473   0.264   2.559   9.183  0.4251  0.3667 -0.5471
   88SAPS  H13R 8474   0.323   2.467   9.202  0.8347  1.1519  2.5993
   88SAPS  H13S 8475   0.304   2.625   9.264 -0.4139 -1.9137  1.8687
   88SAPS  C214 8476   0.299   2.619   9.043  0.5145  0.8127 -0.3022
   88SAPS  H14R 8477   0.237   2.705   9.011  1.1661  0.9860 -1.1316
   88SAPS  C215 8478   0.395   2.567   8.961 -0.3137  0.1409 -0.5811
   88SAPS  H15R 8479   0.396   2.623   8.866  0.4502  0.6674 -0.2691
   88SAPS  C216 8480   0.487   2.449   8.985 -0.6193  0.0882  0.1853
   88SAPS  H16R 8481   0.476   2.404   9.086 -0.3128 -0.3311  0.0311
   88SAPS  H16S 8482   0.589   2.485   8.959 -0.4447 -0.9422 -0.5911
   88SAPS  C217 8483   0.459   2.351   8.872 -0.4656 -0.4062  0.6397
   88SAPS  H17R 8484   0.531   2.268   8.887 -1.2412 -1.0627  0.8650
   88SAPS  H17S 8485   0.479   2.396   8.773  1.1597 -1.1433  0.6012
   88SAPS  C218 8486   0.326   2.291   8.878 -0.0413  0.7521 -1.1597
   88SAPS  H18R 8487   0.248   2.370   8.868 -0.4404  0.4500 -0.5341
   88SAPS  H18S 8488   0.299   2.247   8.976  1.7766 -0.9567 -1.3730
   88SAPS  C219 8489   0.308   2.191   8.763 -0.3577 -0.4389  0.6313
   88SAPS  H19R 8490   0.398   2.126   8.757 -0.1194  0.0205 -1.6207
   88SAPS  H19S 8491   0.307   2.244   8.666 -0.3884 -2.0468 -0.2785
   88SAPS  C220 8492   0.178   2.115   8.786  0.1689  0.1608 -0.2500
   88SAPS  H20R 8493   0.087   2.163   8.745 -0.6393  0.3004  1.5811
   88SAPS  H20S 8494   0.166   2.100   8.896 -2.1280 -2.9223 -0.7944
   88SAPS  H20T 8495   0.177   2.009   8.755  1.0540 -0.1194  0.6121
   88SAPS   C33 8496   1.095   2.200  10.128  0.4289  0.6787  0.6696
   88SAPS   H3X 8497   1.056   2.096  10.132  0.1664  0.7654  0.3941
   88SAPS   H3Y 8498   1.184   2.209  10.194 -0.3635  0.6682  1.7637
   88SAPS   C34 8499   1.166   2.218   9.994 -0.4288 -0.2186  0.0023
   88SAPS   H4X 8500   1.267   2.173   9.987  1.4227  3.7769 -1.6456
   88SAPS   H4Y 8501   1.190   2.326   9.984 -2.7459  0.4831  1.2577
   88SAPS   C35 8502   1.102   2.195   9.860  0.4203 -0.0835 -0.3100
   88SAPS   H5X 8503   1.005   2.247   9.860  0.5893  0.2404 -0.7275
   88SAPS   H5Y 8504   1.081   2.086   9.855 -0.8876  0.2032 -1.9071
   88SAPS   C36 8505   1.184   2.230   9.733 -0.5825 -0.7036 -0.7032
   88SAPS   H6X 8506   1.286   2.187   9.736  0.6124  1.9064 -0.4417
   88SAPS   H6Y 8507   1.201   2.340   9.737 -3.2632 -0.2410  1.5264
   88SAPS   C37 8508   1.111   2.200   9.603 -0.6552  0.1961  0.3324
   88SAPS   H7X 8509   1.026   2.271   9.604 -0.8921 -0.0719 -0.2955
   88SAPS   H7Y 8510   1.067   2.098   9.615  0.2454  0.0432  2.9325
   88SAPS   C38 8511   1.190   2.208   9.468 -0.3955 -0.6644 -0.1654
   88SAPS   H8X 8512   1.259   2.121   9.467  0.1909 -0.2090 -0.0531
   88SAPS   H8Y 8513   1.258   2.295   9.477  0.2551 -1.2589  0.8578
   88SAPS   C39 8514   1.092   2.202   9.362  1.6190  0.2437 -0.5258
   88SAPS   H9X 8515   1.048   2.304   9.356  1.8343  0.3832  0.1942
   88SAPS   H9Y 8516   1.019   2.123   9.390  0.2893  1.8192  0.7614
   88SAPS  C310 8517   1.142   2.166   9.223  0.3547  0.3239  0.4961
   88SAPS  H10X 8518   1.160   2.058   9.203 -1.1526  0.2946 -0.8903
   88SAPS  H10Y 8519   1.235   2.221   9.198 -1.1434  3.3836  1.1565
   88SAPS  C311 8520   1.053   2.206   9.101 -0.1357  0.1034  0.3207
   88SAPS  H11X 8521   1.009   2.305   9.125 -0.6852  0.5003 -2.0568
   88SAPS  H11Y 8522   0.965   2.139   9.094 -0.1353 -0.1393  2.0737
   88SAPS  C312 8523   1.123   2.222   8.969  0.7536  0.3616  0.3154
   88SAPS  H12X 8524   1.133   2.118   8.932  1.7408  1.0125 -1.3435
   88SAPS  H12Y 8525   1.224   2.267   8.981  1.3203 -0.2513 -1.6830
   88SAPS  C313 8526   1.049   2.310   8.875  0.1761 -0.3897 -0.1060
   88SAPS  H13X 8527   1.112   2.314   8.783  1.8554 -1.4533  0.9523
   88SAPS  H13Y 8528   1.053   2.406   8.931 -0.1539 -0.7873  0.6162
   88SAPS  C314 8529   0.905   2.277   8.856 -0.9811  0.0667 -0.0948
   88SAPS  H14X 8530   0.860   2.270   8.957  0.9114 -1.3041  0.7065
   88SAPS  H14Y 8531   0.894   2.176   8.811 -1.0176 -0.6595  1.4875
   88SAPS  C315 8532   0.830   2.377   8.768  0.1387 -0.1203 -0.2653
   88SAPS  H15X 8533   0.834   2.475   8.820  0.8282 -0.8196  1.0386
   88SAPS  H15Y 8534   0.725   2.342   8.755 -1.6367  3.8842  1.5342
   88SAPS  C316 8535   0.891   2.383   8.625  1.1244  0.5307 -0.2038
   88SAPS  H16X 8536   0.907   2.280   8.589 -1.7480  0.0350 -0.3298
   88SAPS  H16Y 8537   0.983   2.445   8.615  0.6878  1.1464 -0.5025
   88SAPS  C317 8538   0.793   2.441   8.516 -0.3739  0.0068 -0.0345
   88SAPS  H17X 8539   0.779   2.551   8.525  0.4763  0.0541  0.9681
   88SAPS  H17Y 8540   0.699   2.383   8.521 -1.5664  1.9673  2.3476
   88SAPS  C318 8541   0.850   2.419   8.371 -0.2640  0.4139  0.0180
   88SAPS  H18X 8542   0.847   2.311   8.347  0.8875  0.6780 -1.4504
   88SAPS  H18Y 8543   0.957   2.447   8.363  0.3533 -0.5937  3.2182
   88SAPS  H18Z 8544   0.794   2.480   8.297  0.3847 -0.2367 -1.0423
   89SAPS     N 8545   6.312   3.996  10.872  0.6111 -0.3636  0.0516
   89SAPS   HN1 8546   6.406   4.030  10.845  0.0873  1.0847 -0.0218
   89SAPS   HN2 8547   6.241   4.059  10.829  0.6014  0.6538  1.4734
   89SAPS   HN3 8548   6.296   3.995  10.975  0.0618 -0.9585 -0.0340
   89SAPS   C12 8549   6.285   3.865  10.815 -0.1563 -0.7208 -0.4944
   89SAPS  H12A 8550   6.308   3.869  10.710 -2.9859 -0.9732 -1.2030
   89SAPS   C13 8551   6.357   3.744  10.876 -0.3531 -0.5120 -0.3333
   89SAPS  O13A 8552   6.419   3.760  10.990 -0.3314 -0.7259  0.2362
   89SAPS  O13B 8553   6.344   3.633  10.825 -0.2699  1.1438 -0.8395
   89SAPS   C11 8554   6.134   3.859  10.812  0.2139 -0.1764  0.8722
   89SAPS  H11A 8555   6.088   3.863  10.912 -0.5120  2.9183  0.5197
   89SAPS  H11B 8556   6.123   3.761  10.761  0.3357  0.0667  0.3686
   89SAPS     P 8557   5.982   3.958  10.613  0.2933  0.2383 -0.0546
   89SAPS   O13 8558   5.856   3.902  10.666  0.1608 -0.1208  0.2609
   89SAPS   O14 8559   5.966   4.093  10.545 -0.6885 -0.2475 -0.0174
   89SAPS   O12 8560   6.088   3.972  10.729  0.6367 -0.6093  0.1996
   89SAPS   O11 8561   6.050   3.852  10.517  0.1761  0.1920  0.1847
   89SAPS    C1 8562   6.168   3.887  10.437  0.9520 -0.4142  0.1428
   89SAPS    HA 8563   6.237   3.958  10.487 -0.4241  0.6260  0.6482
   89SAPS    HB 8564   6.224   3.793  10.421 -0.0312 -0.8611 -0.7931
   89SAPS    C2 8565   6.114   3.958  10.305  0.3222  0.0697 -0.4770
   89SAPS    HS 8566   6.066   4.052  10.339  1.2256 -0.3691  2.1906
   89SAPS   O21 8567   6.021   3.870  10.249  0.3771  0.3617  0.2703
   89SAPS   C21 8568   5.918   3.927  10.188  0.0951  0.6357 -0.2368
   89SAPS   O22 8569   5.893   4.048  10.187  0.4427  0.0702  0.3643
   89SAPS   C22 8570   5.828   3.821  10.132  0.2208  0.2920  0.0229
   89SAPS   H2R 8571   5.879   3.724  10.113  1.2880  0.1417  3.0964
   89SAPS   H2S 8572   5.761   3.799  10.218 -0.9164 -1.6405 -1.2796
   89SAPS    C3 8573   6.239   3.987  10.222 -0.0767 -0.2486 -0.6782
   89SAPS    HX 8574   6.287   3.890  10.197  2.9427  1.4811 -2.0756
   89SAPS    HY 8575   6.305   4.053  10.281 -1.0803  0.5278 -0.4050
   89SAPS   O31 8576   6.212   4.047  10.092 -0.1458  0.0070  0.1618
   89SAPS   C31 8577   6.193   4.180  10.107  0.8604 -0.6330 -0.3987
   89SAPS   O32 8578   6.173   4.233  10.213  0.0620  0.0361 -0.7475
   89SAPS   C32 8579   6.193   4.238   9.965  0.3057 -0.2264 -0.1853
   89SAPS   H2X 8580   6.288   4.209   9.916  0.6571  0.3214  0.1527
   89SAPS   H2Y 8581   6.192   4.349   9.964 -1.5868 -0.2123 -1.1695
   89SAPS   C23 8582   5.743   3.866  10.015 -0.1491 -0.0911 -0.0876
   89SAPS   H3R 8583   5.701   3.968  10.030 -0.8065 -0.5957  1.7726
   89SAPS   H3S 8584   5.648   3.811  10.027 -0.9136  1.2249  0.1101
   89SAPS   C24 8585   5.809   3.834   9.880 -0.6109  0.6967 -0.6760
   89SAPS   H4R 8586   5.911   3.873   9.895  0.0019 -1.0651  0.0680
   89SAPS   H4S 8587   5.758   3.903   9.810 -1.0796  1.2982  0.2407
   89SAPS   C25 8588   5.787   3.686   9.846  0.0660  0.2124  0.0558
   89SAPS   H5R 8589   5.845   3.605   9.892 -0.5794 -1.7444 -2.3929
   89SAPS   C26 8590   5.705   3.640   9.754  0.2148  1.1176  0.0935
   89SAPS   H6R 8591   5.712   3.530   9.745  4.8259  1.2330 -0.6400
   89SAPS   C27 8592   5.625   3.716   9.656  0.0471  0.3255  0.7906
   89SAPS   H7R 8593   5.698   3.779   9.602 -1.5671 -0.6408 -2.8140
   89SAPS   H7S 8594   5.559   3.792   9.703  0.1797 -0.1577  1.7945
   89SAPS   C28 8595   5.542   3.628   9.563 -0.1732 -0.2014 -0.4882
   89SAPS   H8R 8596   5.493   3.549   9.620  0.5883 -0.8518 -0.7136
   89SAPS   C29 8597   5.550   3.628   9.428  0.8150  0.0500 -0.2650
   89SAPS   H9R 8598   5.494   3.553   9.372 -1.5447  2.0564 -0.7621
   89SAPS  C210 8599   5.642   3.707   9.341  0.0946 -0.1203  0.0353
   89SAPS  H10R 8600   5.741   3.724   9.389  1.0078 -2.5925 -0.8271
   89SAPS  H10S 8601   5.610   3.813   9.336 -0.6630 -0.4085 -1.7779
   89SAPS  C211 8602   5.683   3.644   9.207 -0.5323  1.3292 -0.0412
   89SAPS  H11R 8603   5.752   3.560   9.220 -1.4006  0.3343 -1.5654
   89SAPS  C212 8604   5.648   3.669   9.081  0.7474 -0.7683 -0.6161
   89SAPS  H12R 8605   5.712   3.636   8.998  1.4822  0.2151 -0.4628
   89SAPS  C213 8606   5.550   3.784   9.051  0.3695 -0.1320  0.4519
   89SAPS  H13R 8607   5.538   3.861   9.130  0.8144  1.4646 -0.9821
   89SAPS  H13S 8608   5.445   3.748   9.049  0.6754 -1.2306  2.0632
   89SAPS  C214 8609   5.585   3.850   8.915  0.2135 -0.2520 -0.0838
   89SAPS  H14R 8610   5.645   3.941   8.919  0.3777 -0.3539 -0.2229
   89SAPS  C215 8611   5.545   3.822   8.791 -0.4669  0.1478 -0.3597
   89SAPS  H15R 8612   5.573   3.893   8.712 -0.6646  0.1527 -0.4282
   89SAPS  C216 8613   5.447   3.718   8.748 -0.0992 -0.3430 -0.3850
   89SAPS  H16R 8614   5.374   3.714   8.831  0.4978 -0.0912  0.1647
   89SAPS  H16S 8615   5.487   3.615   8.755  1.5825  0.2627 -0.6108
   89SAPS  C217 8616   5.374   3.746   8.617  0.6768 -0.0119 -0.4995
   89SAPS  H17R 8617   5.293   3.673   8.595  1.4151 -0.5633 -1.4996
   89SAPS  H17S 8618   5.447   3.751   8.533  3.8497 -3.3469  1.7804
   89SAPS  C218 8619   5.304   3.872   8.610  0.2254 -0.2130  1.2260
   89SAPS  H18R 8620   5.380   3.953   8.616 -0.0191 -0.0475  2.3351
   89SAPS  H18S 8621   5.234   3.890   8.695 -0.5460 -0.2491  0.6107
   89SAPS  C219 8622   5.231   3.884   8.480 -0.1641  0.0200  0.5289
   89SAPS  H19R 8623   5.141   3.819   8.487  0.2001 -0.5588 -0.0574
   89SAPS  H19S 8624   5.302   3.841   8.406  1.0581 -0.4595  1.9385
   89SAPS  C220 8625   5.191   4.024   8.444 -0.0794 -0.3476  0.0514
   89SAPS  H20R 8626   5.116   4.037   8.363 -0.4190 -1.7298  0.1317
   89SAPS  H20S 8627   5.274   4.091   8.415 -1.1967  1.2438  0.3634
   89SAPS  H20T 8628   5.142   4.063   8.536 -1.1293 -0.4544 -0.4448
   89SAPS   C33 8629   6.073   4.188   9.882  0.0098 -0.2508 -0.5176
   89SAPS   H3X 8630   5.985   4.250   9.913  1.3686  0.6991  1.7447
   89SAPS   H3Y 8631   6.044   4.085   9.909 -0.0445 -1.0890 -3.4699
   89SAPS   C34 8632   6.097   4.199   9.725  0.0171  0.1330 -0.0711
   89SAPS   H4X 8633   6.196   4.153   9.706  0.6996  1.0091  1.2231
   89SAPS   H4Y 8634   6.096   4.310   9.713 -1.3517  0.1014 -0.4675
   89SAPS   C35 8635   5.981   4.147   9.639 -0.4302 -0.4070  0.1149
   89SAPS   H5X 8636   5.890   4.195   9.681 -0.6796 -0.7136 -0.0717
   89SAPS   H5Y 8637   5.976   4.036   9.649 -0.3622 -0.4422 -0.2278
   89SAPS   C36 8638   5.988   4.165   9.485 -0.3832 -0.7570 -0.2223
   89SAPS   H6X 8639   6.094   4.191   9.464 -0.2283 -2.2314 -1.4603
   89SAPS   H6Y 8640   5.927   4.252   9.454 -1.3625 -1.2623  0.2395
   89SAPS   C37 8641   5.947   4.032   9.402  0.3512 -0.0339  0.6756
   89SAPS   H7X 8642   5.843   4.015   9.438 -0.4652  1.9556 -0.5403
   89SAPS   H7Y 8643   6.029   3.962   9.427  1.6022  1.7296  1.6887
   89SAPS   C38 8644   5.943   4.043   9.250  0.2276  0.2604  0.3061
   89SAPS   H8X 8645   5.859   4.114   9.234 -1.4261 -1.6959 -0.1198
   89SAPS   H8Y 8646   5.915   3.945   9.207 -1.4069  0.5572  0.6455
   89SAPS   C39 8647   6.079   4.087   9.190 -0.4120  0.1516 -0.0712
   89SAPS   H9X 8648   6.159   4.025   9.237  1.2235  1.7741 -0.6098
   89SAPS   H9Y 8649   6.106   4.185   9.234 -0.0951 -0.8237  2.0557
   89SAPS  C310 8650   6.106   4.089   9.038  0.5104  0.1241 -0.4465
   89SAPS  H10X 8651   6.094   3.982   9.010 -0.8895 -0.1747  1.1282
   89SAPS  H10Y 8652   6.208   4.120   9.007  0.7474 -0.4971 -0.3110
   89SAPS  C311 8653   6.003   4.158   8.945 -0.2496  0.4786 -0.7676
   89SAPS  H11X 8654   5.969   4.251   8.996  0.5932 -0.1171  0.9754
   89SAPS  H11Y 8655   5.925   4.080   8.931  0.7627 -0.4267 -1.4782
   89SAPS  C312 8656   6.048   4.181   8.803  0.3095 -0.5511  0.2924
   89SAPS  H12X 8657   6.093   4.087   8.766 -1.2616 -0.4481 -2.1004
   89SAPS  H12Y 8658   6.119   4.266   8.802 -1.0640  0.6320 -0.2956
   89SAPS  C313 8659   5.932   4.227   8.709 -0.1325 -0.2316 -0.1699
   89SAPS  H13X 8660   5.871   4.298   8.768  1.7114  0.9331  0.4271
   89SAPS  H13Y 8661   5.872   4.135   8.689  1.6422 -1.3714 -0.5081
   89SAPS  C314 8662   5.977   4.299   8.585 -0.7025  0.0297 -0.2439
   89SAPS  H14X 8663   6.036   4.225   8.527 -0.9491 -1.2181  1.0382
   89SAPS  H14Y 8664   6.049   4.378   8.614 -1.8036  1.4103 -1.0958
   89SAPS  C315 8665   5.866   4.359   8.500 -0.9473  0.2795 -0.1708
   89SAPS  H15X 8666   5.799   4.435   8.544  0.0375  1.9276 -1.4215
   89SAPS  H15Y 8667   5.800   4.274   8.470 -0.1346 -0.4384  0.0385
   89SAPS  C316 8668   5.911   4.401   8.358 -0.2555  0.2531  0.5038
   89SAPS  H16X 8669   5.972   4.314   8.325  0.4275  0.3168  1.5694
   89SAPS  H16Y 8670   5.976   4.491   8.355 -0.1763  0.2384  1.5675
   89SAPS  C317 8671   5.791   4.429   8.262  0.1595  0.7275 -0.6063
   89SAPS  H17X 8672   5.747   4.528   8.288  0.7299  0.6801  0.5976
   89SAPS  H17Y 8673   5.716   4.351   8.285  1.1241  0.7889  3.4646
   89SAPS  C318 8674   5.820   4.430   8.112  0.1787 -0.5381  0.3045
   89SAPS  H18X 8675   5.919   4.477   8.089  0.0811 -0.6251 -0.3252
   89SAPS  H18Y 8676   5.743   4.492   8.061 -0.4396 -0.9752  0.6934
   89SAPS  H18Z 8677   5.824   4.327   8.069  0.2237 -1.1143  1.6533
   90SAPS     N 8678   1.052   5.124  10.883  0.0616  0.2576 -0.0367
   90SAPS   HN1 8679   1.130   5.176  10.926  0.4287  2.3849 -2.9922
   90SAPS   HN2 8680   1.030   5.166  10.791  0.9896  0.7366 -0.0526
   90SAPS   HN3 8681   0.968   5.137  10.944 -0.7438 -2.2825 -0.4780
   90SAPS   C12 8682   1.074   4.974  10.872 -0.7515 -0.3087  0.1930
   90SAPS  H12A 8683   1.108   4.952  10.771  0.8450  0.3046  0.5613
   90SAPS   C13 8684   1.191   4.921  10.961 -0.3580  0.6408 -0.0792
   90SAPS  O13A 8685   1.231   4.984  11.058  0.0802 -0.1947  0.1096
   90SAPS  O13B 8686   1.208   4.793  10.959  0.0951  0.3894 -0.2259
   90SAPS   C11 8687   0.935   4.902  10.908 -0.5243  0.3833  0.0054
   90SAPS  H11A 8688   0.917   4.894  11.017  2.9652 -0.2420  0.6704
   90SAPS  H11B 8689   0.955   4.797  10.878  3.4241  0.7663  0.7118
   90SAPS     P 8690   0.770   4.905  10.700 -0.3000 -0.3558  0.2235
   90SAPS   O13 8691   0.854   4.803  10.639  0.6792  0.3461  0.1071
   90SAPS   O14 8692   0.626   4.879  10.711  0.1232 -0.1930  0.0944
   90SAPS   O12 8693   0.821   4.950  10.838 -0.2193 -0.5486  0.1585
   90SAPS   O11 8694   0.798   5.045  10.630  0.2911 -0.0332 -0.2832
   90SAPS    C1 8695   0.706   5.116  10.548 -0.3121  0.0752  0.1119
   90SAPS    HA 8696   0.607   5.080  10.580  0.7212  0.3158  4.0219
   90SAPS    HB 8697   0.711   5.227  10.558  0.0528 -0.0061  0.8639
   90SAPS    C2 8698   0.723   5.088  10.392  1.0171  0.0288 -0.0572
   90SAPS    HS 8699   0.642   5.139  10.337  0.5921  0.2665  0.7613
   90SAPS   O21 8700   0.727   4.947  10.367 -0.5290  0.0131  0.1105
   90SAPS   C21 8701   0.618   4.882  10.393 -0.3198  0.3925  0.3748
   90SAPS   O22 8702   0.511   4.928  10.424  0.4713  0.1119 -0.7707
   90SAPS   C22 8703   0.636   4.734  10.379 -0.8691  0.0892  0.0579
   90SAPS   H2R 8704   0.743   4.715  10.399  0.4111  3.2493 -2.7517
   90SAPS   H2S 8705   0.569   4.686  10.453 -0.6614  0.1185  0.2640
   90SAPS    C3 8706   0.845   5.152  10.333 -0.7217  1.1550  0.3839
   90SAPS    HX 8707   0.945   5.115  10.365 -0.4646 -0.0803 -1.6284
   90SAPS    HY 8708   0.846   5.258  10.367 -2.7271  1.7001 -1.0757
   90SAPS   O31 8709   0.828   5.160  10.187 -0.1830  0.0003  0.0468
   90SAPS   C31 8710   0.892   5.063  10.127 -0.3285 -0.9114 -0.1654
   90SAPS   O32 8711   0.972   4.988  10.179  0.4240 -0.1411 -0.2186
   90SAPS   C32 8712   0.858   5.061   9.978 -0.1740 -0.1246  0.2124
   90SAPS   H2X 8713   0.764   5.114   9.951 -0.7552 -1.6702 -0.9831
   90SAPS   H2Y 8714   0.842   4.953   9.955  1.0585 -0.1662 -0.5570
   90SAPS   C23 8715   0.587   4.694  10.238 -0.9688 -0.1324 -0.2626
   90SAPS   H3R 8716   0.482   4.725  10.222 -1.1194 -0.1224  0.7145
   90SAPS   H3S 8717   0.581   4.585  10.217 -2.0328 -0.0144 -0.6046
   90SAPS   C24 8718   0.682   4.751  10.124 -0.4142  0.6215  0.5820
   90SAPS   H4R 8719   0.788   4.744  10.158 -0.8117 -0.7005  1.6469
   90SAPS   H4S 8720   0.655   4.859  10.127  0.7159  0.9015  1.4487
   90SAPS   C25 8721   0.649   4.694   9.992 -0.7262 -0.4848 -0.2483
   90SAPS   H5R 8722   0.541   4.707   9.979 -0.5959  0.7995 -0.1810
   90SAPS   C26 8723   0.734   4.650   9.901  0.5623 -0.2452 -0.3385
   90SAPS   H6R 8724   0.690   4.607   9.809 -1.3300  0.7409  0.0747
   90SAPS   C27 8725   0.890   4.643   9.908  0.6433  0.0127  0.0081
   90SAPS   H7R 8726   0.929   4.667  10.009 -2.0727 -0.9251  1.3705
   90SAPS   H7S 8727   0.932   4.727   9.849 -1.3566  1.0264 -0.0502
   90SAPS   C28 8728   0.953   4.510   9.864 -0.1955 -0.2594  0.3874
   90SAPS   H8R 8729   0.979   4.437   9.942 -0.2059  0.7519  1.3793
   90SAPS   C29 8730   0.973   4.480   9.735 -0.6426 -0.0085 -0.0074
   90SAPS   H9R 8731   1.028   4.387   9.714  0.6681  0.7087  0.2019
   90SAPS  C210 8732   0.930   4.575   9.631 -0.5839 -0.5229  0.1098
   90SAPS  H10R 8733   0.983   4.673   9.633 -1.0534 -0.2213 -1.2668
   90SAPS  H10S 8734   0.823   4.605   9.633 -0.2819  0.6854 -0.6831
   90SAPS  C211 8735   0.947   4.508   9.493 -0.3876  0.1173 -0.5959
   90SAPS  H11R 8736   0.984   4.404   9.488  1.1978  0.5098  1.5542
   90SAPS  C212 8737   0.929   4.577   9.375 -0.0443  0.6823  0.1402
   90SAPS  H12R 8738   0.959   4.518   9.287 -0.5643  0.1030  0.3443
   90SAPS  C213 8739   0.888   4.717   9.347  0.0494  0.2008  0.3252
   90SAPS  H13R 8740   0.829   4.757   9.431 -0.5743  3.3169 -1.4467
   90SAPS  H13S 8741   0.809   4.720   9.268  1.4822  1.6545 -1.1392
   90SAPS  C214 8742   1.004   4.812   9.310  0.7462  0.8808 -0.1163
   90SAPS  H14R 8743   1.102   4.763   9.309 -0.4122 -1.6495  1.8304
   90SAPS  C215 8744   0.978   4.945   9.280 -0.4490  0.4425 -0.1618
   90SAPS  H15R 8745   1.066   5.009   9.268 -1.6068  1.7602 -2.2265
   90SAPS  C216 8746   0.843   5.005   9.288  0.0766  0.3848  0.0765
   90SAPS  H16R 8747   0.834   5.112   9.318 -3.1660  0.4008 -0.5306
   90SAPS  H16S 8748   0.777   4.946   9.355 -1.3930  0.5963 -1.1358
   90SAPS  C217 8749   0.781   5.016   9.151  0.6319 -0.4553 -0.6042
   90SAPS  H17R 8750   0.808   4.931   9.084  1.4893 -0.9125  0.2956
   90SAPS  H17S 8751   0.807   5.109   9.096 -0.3052  0.2071  0.0424
   90SAPS  C218 8752   0.627   5.016   9.163  0.0068 -0.0455 -0.1099
   90SAPS  H18R 8753   0.580   5.066   9.075 -0.0167  1.3115  0.6388
   90SAPS  H18S 8754   0.608   5.078   9.253  2.5848 -0.9235  1.1128
   90SAPS  C219 8755   0.562   4.875   9.192 -0.7211 -0.2167 -0.5129
   90SAPS  H19R 8756   0.613   4.844   9.285 -1.0179  0.7059 -0.0293
   90SAPS  H19S 8757   0.590   4.790   9.126  1.0970  0.2068 -0.3381
   90SAPS  C220 8758   0.412   4.890   9.211 -0.1537 -0.2877 -1.0644
   90SAPS  H20R 8759   0.373   4.796   9.256  0.0310  0.1078 -0.0397
   90SAPS  H20S 8760   0.368   4.904   9.110  0.6226 -0.1330 -1.3898
   90SAPS  H20T 8761   0.397   4.980   9.275 -0.1723 -0.7781 -0.3560
   90SAPS   C33 8762   0.967   5.112   9.886 -0.0127  0.0410  0.4903
   90SAPS   H3X 8763   1.060   5.075   9.935  1.2365  1.0829 -0.9662
   90SAPS   H3Y 8764   0.972   5.223   9.895  0.4495  0.0866 -0.2574
   90SAPS   C34 8765   0.958   5.061   9.748 -0.4796  0.4513  0.0060
   90SAPS   H4X 8766   0.973   4.951   9.759 -3.3162  0.0828  0.9268
   90SAPS   H4Y 8767   1.050   5.090   9.693 -0.5991  0.3710 -0.2385
   90SAPS   C35 8768   0.824   5.086   9.674 -0.0402  0.0280  0.3475
   90SAPS   H5X 8769   0.743   5.082   9.750  0.2042 -1.7689  0.5614
   90SAPS   H5Y 8770   0.808   5.001   9.603  0.1208  0.0023  0.3403
   90SAPS   C36 8771   0.821   5.222   9.610 -0.0485 -0.2986 -0.7489
   90SAPS   H6X 8772   0.896   5.232   9.529 -1.8900 -2.3337 -2.8530
   90SAPS   H6Y 8773   0.831   5.306   9.682 -0.0646 -1.3243  0.4989
   90SAPS   C37 8774   0.684   5.249   9.544 -0.2775 -0.0452  0.3382
   90SAPS   H7X 8775   0.602   5.249   9.619 -0.9318  2.4057 -0.2601
   90SAPS   H7Y 8776   0.660   5.165   9.475  0.8803  0.7598 -1.0886
   90SAPS   C38 8777   0.681   5.371   9.447  0.5726 -0.5252 -1.3145
   90SAPS   H8X 8778   0.772   5.377   9.384  1.1290  2.3987 -0.3919
   90SAPS   H8Y 8779   0.677   5.461   9.512 -0.6642  0.3293 -2.5154
   90SAPS   C39 8780   0.554   5.371   9.355 -0.7873 -0.2391 -0.2266
   90SAPS   H9X 8781   0.470   5.361   9.427  0.6805 -1.5873  1.4063
   90SAPS   H9Y 8782   0.554   5.279   9.293  1.1572  0.1090 -0.8121
   90SAPS  C310 8783   0.537   5.501   9.276  0.0717  0.1018 -0.1714
   90SAPS  H10X 8784   0.540   5.591   9.341 -1.7082 -1.1097  1.7058
   90SAPS  H10Y 8785   0.440   5.498   9.223 -0.2598 -3.0832  0.4191
   90SAPS  C311 8786   0.654   5.509   9.162 -0.2348  0.0748 -0.9203
   90SAPS  H11X 8787   0.745   5.476   9.216 -1.5756 -1.4962  0.4927
   90SAPS  H11Y 8788   0.658   5.618   9.138  0.6752  0.3497  0.3801
   90SAPS  C312 8789   0.634   5.431   9.033 -0.5967 -0.0038 -0.7775
   90SAPS  H12X 8790   0.548   5.479   8.982 -0.5645  0.5365 -0.3341
   90SAPS  H12Y 8791   0.605   5.325   9.048  2.4617 -1.0052 -1.2587
   90SAPS  C313 8792   0.756   5.446   8.945 -0.0860  0.0096 -0.1338
   90SAPS  H13X 8793   0.850   5.426   9.000 -0.2981 -0.7333 -0.0285
   90SAPS  H13Y 8794   0.759   5.553   8.914 -0.2694  0.5216  1.5288
   90SAPS  C314 8795   0.745   5.365   8.811 -0.1429 -0.3549  0.1577
   90SAPS  H14X 8796   0.649   5.395   8.763  0.6465  1.0675 -0.6124
   90SAPS  H14Y 8797   0.731   5.258   8.837 -1.3940 -0.1852  0.2501
   90SAPS  C315 8798   0.869   5.384   8.713  0.2524 -0.1029 -0.1899
   90SAPS  H15X 8799   0.961   5.366   8.774 -0.5981  1.3029  1.6185
   90SAPS  H15Y 8800   0.878   5.490   8.682  3.0370 -0.3570 -0.5129
   90SAPS  C316 8801   0.864   5.286   8.596  0.4790  0.0295 -0.4273
   90SAPS  H16X 8802   0.758   5.284   8.562  0.0886  0.0087  0.7501
   90SAPS  H16Y 8803   0.891   5.182   8.623 -0.5198  0.1851  1.2897
   90SAPS  C317 8804   0.966   5.322   8.489 -0.3429  0.8864  0.5942
   90SAPS  H17X 8805   0.954   5.423   8.444  0.6509 -0.1887 -2.3024
   90SAPS  H17Y 8806   0.937   5.254   8.406 -1.8068  2.4075 -0.1948
   90SAPS  C318 8807   1.104   5.282   8.536  0.2097  0.4020 -0.1832
   90SAPS  H18X 8808   1.108   5.183   8.586  0.9607  0.7524  0.4612
   90SAPS  H18Y 8809   1.130   5.357   8.613  1.3774  0.7347 -0.8700
   90SAPS  H18Z 8810   1.180   5.284   8.455 -1.7001  0.8531 -2.0435
   91SAPS     N 8811   0.252   3.560   5.796 -0.4118  0.3030 -0.0202
   91SAPS   HN1 8812   0.218   3.653   5.764 -0.8262  0.0130 -0.4474
   91SAPS   HN2 8813   0.345   3.574   5.840  0.1779 -3.0158  0.0458
   91SAPS   HN3 8814   0.261   3.496   5.714 -0.0347 -1.0435  1.0430
   91SAPS   C12 8815   0.160   3.503   5.898 -0.1982  0.3430 -0.2045
   91SAPS  H12A 8816   0.059   3.517   5.864 -0.7670 -1.4304  0.6459
   91SAPS   C13 8817   0.172   3.354   5.925 -0.0689 -0.3374 -0.2118
   91SAPS  O13A 8818   0.256   3.284   5.860  0.2900  0.0502 -0.0379
   91SAPS  O13B 8819   0.100   3.304   6.017  0.0380 -0.1816  0.0361
   91SAPS   C11 8820   0.184   3.586   6.028  0.0971 -0.4478  0.7187
   91SAPS  H11A 8821   0.287   3.587   6.068  0.3721  0.1628  0.0265
   91SAPS  H11B 8822   0.112   3.552   6.105  0.6915 -2.0351  0.6057
   91SAPS     P 8823   0.011   3.784   6.014 -0.1050  0.4766  0.2319
   91SAPS   O13 8824   0.008   3.930   5.982  0.8124  0.3654 -0.5125
   91SAPS   O14 8825  -0.074   3.698   5.929 -0.0243  0.2866  0.0355
   91SAPS   O12 8826   0.154   3.724   5.991 -0.2847  0.0346 -0.0127
   91SAPS   O11 8827   0.000   3.752   6.172  0.2769  0.2256  0.2004
   91SAPS    C1 8828   0.097   3.785   6.269 -0.2095  0.0146  0.0014
   91SAPS    HA 8829   0.187   3.721   6.253  0.4313  0.6060  1.1061
   91SAPS    HB 8830   0.123   3.892   6.279  1.1928 -0.1219 -1.6984
   91SAPS    C2 8831   0.035   3.745   6.406  1.0409 -0.1409 -0.6502
   91SAPS    HS 8832  -0.064   3.795   6.411  0.6785 -0.7919 -1.0817
   91SAPS   O21 8833   0.118   3.797   6.512  0.1171  0.4848  0.4559
   91SAPS   C21 8834   0.098   3.923   6.550  0.3918 -0.6286 -0.7408
   91SAPS   O22 8835   0.011   3.995   6.504 -0.3140 -0.4776 -0.1606
   91SAPS   C22 8836   0.203   3.963   6.655  0.0825  0.0321 -0.5286
   91SAPS   H2R 8837   0.274   3.878   6.668 -0.5427 -0.3093  0.7411
   91SAPS   H2S 8838   0.260   4.056   6.635  0.8212 -0.5986 -1.4948
   91SAPS    C3 8839   0.012   3.590   6.430  1.0022  0.0503 -0.0888
   91SAPS    HX 8840   0.106   3.532   6.436  0.8544 -0.4940 -2.0739
   91SAPS    HY 8841  -0.044   3.538   6.349  1.8118 -1.8847  0.5329
   91SAPS   O31 8842  -0.058   3.578   6.555  0.1811 -0.3027 -0.0999
   91SAPS   C31 8843  -0.184   3.576   6.561  0.1674  0.3974  0.4354
   91SAPS   O32 8844  -0.264   3.586   6.468  0.1966 -0.2002  0.2860
   91SAPS   C32 8845  -0.228   3.541   6.704 -0.0817 -0.7179  0.7992
   91SAPS   H2X 8846  -0.156   3.462   6.735 -0.4477 -0.9270  1.1279
   91SAPS   H2Y 8847  -0.321   3.482   6.691 -0.5318  0.2380 -0.5345
   91SAPS   C23 8848   0.123   3.986   6.788 -0.0435 -0.0501 -0.2521
   91SAPS   H3R 8849   0.062   3.896   6.812  1.9476 -1.2640  0.4407
   91SAPS   H3S 8850   0.047   4.066   6.774 -0.4658 -0.5101 -0.6057
   91SAPS   C24 8851   0.222   4.018   6.908  0.7469 -0.0779  0.0759
   91SAPS   H4R 8852   0.169   4.052   7.000  0.4980 -2.2029  0.7735
   91SAPS   H4S 8853   0.288   4.100   6.871  0.0236 -0.4120 -2.0988
   91SAPS   C25 8854   0.301   3.894   6.944  0.2969  0.1995  0.4464
   91SAPS   H5R 8855   0.389   3.875   6.881 -0.5648 -1.4637 -0.3296
   91SAPS   C26 8856   0.270   3.812   7.051 -0.0382 -0.5961  0.2990
   91SAPS   H6R 8857   0.337   3.727   7.069 -0.4217 -0.8218  0.6723
   91SAPS   C27 8858   0.162   3.839   7.150 -0.4015  0.5300  0.4557
   91SAPS   H7R 8859   0.067   3.847   7.093 -1.4431 -2.4700  1.5774
   91SAPS   H7S 8860   0.177   3.938   7.200  1.2400  0.7625 -0.4412
   91SAPS   C28 8861   0.148   3.716   7.248  0.6470  0.2275 -0.0649
   91SAPS   H8R 8862   0.149   3.621   7.193  3.3598  0.2875 -0.2889
   91SAPS   C29 8863   0.148   3.723   7.383 -0.2127 -0.4751 -0.3464
   91SAPS   H9R 8864   0.131   3.629   7.438  0.5197  0.0950  0.8921
   91SAPS  C210 8865   0.160   3.846   7.473  0.3954 -0.9494  0.2995
   91SAPS  H10R 8866   0.145   3.937   7.412 -1.2481 -1.5058 -0.1693
   91SAPS  H10S 8867   0.259   3.852   7.523  0.2711  2.2248  0.3423
   91SAPS  C211 8868   0.046   3.839   7.576 -0.6104 -0.0270  0.2285
   91SAPS  H11R 8869  -0.050   3.879   7.543 -1.5747 -1.3388  1.3363
   91SAPS  C212 8870   0.070   3.808   7.706 -0.0600  0.3940  0.4977
   91SAPS  H12R 8871  -0.010   3.803   7.781  0.6130 -0.0844  1.2016
   91SAPS  C213 8872   0.208   3.769   7.752  0.4743  0.5988 -0.5838
   91SAPS  H13R 8873   0.274   3.730   7.672 -0.7269  1.5197 -2.0952
   91SAPS  H13S 8874   0.187   3.694   7.831  1.0110  1.4123  0.3602
   91SAPS  C214 8875   0.279   3.891   7.805  0.2590  0.8352 -0.1949
   91SAPS  H14R 8876   0.235   3.988   7.777 -1.8141  0.0549  0.1153
   91SAPS  C215 8877   0.399   3.890   7.870  1.0693 -0.4648  0.3392
   91SAPS  H15R 8878   0.444   3.987   7.897 -0.8793  0.5193  0.1886
   91SAPS  C216 8879   0.474   3.767   7.916  1.1087 -0.2918  0.0559
   91SAPS  H16R 8880   0.412   3.677   7.895 -0.6524  1.4464 -2.9033
   91SAPS  H16S 8881   0.492   3.765   8.025 -0.7597 -1.5721  0.3854
   91SAPS  C217 8882   0.613   3.751   7.849 -0.3602 -0.1348 -0.1166
   91SAPS  H17R 8883   0.657   3.658   7.890 -0.2424 -0.8028 -1.6781
   91SAPS  H17S 8884   0.677   3.840   7.869 -1.2171 -0.2170  3.7122
   91SAPS  C218 8885   0.616   3.729   7.699  0.1051  0.0121 -0.3025
   91SAPS  H18R 8886   0.545   3.799   7.651 -1.4371 -0.7431  0.7798
   91SAPS  H18S 8887   0.580   3.625   7.686 -0.7815  0.3358 -0.4777
   91SAPS  C219 8888   0.759   3.745   7.643 -0.4885 -0.2828  1.0293
   91SAPS  H19R 8889   0.819   3.654   7.662 -2.7562 -1.8444  1.0564
   91SAPS  H19S 8890   0.814   3.834   7.682 -0.4286  0.0172  0.2885
   91SAPS  C220 8891   0.750   3.765   7.494  0.5261  0.2271 -0.0078
   91SAPS  H20R 8892   0.700   3.678   7.446  0.3433  1.4628 -2.1728
   91SAPS  H20S 8893   0.851   3.786   7.453 -0.2015  3.0614 -0.5306
   91SAPS  H20T 8894   0.680   3.850   7.478  0.3280 -0.3045 -2.2423
   91SAPS   C33 8895  -0.266   3.666   6.788  0.0460  0.1084 -0.5838
   91SAPS   H3X 8896  -0.350   3.726   6.745 -1.3185  0.4172  2.2982
   91SAPS   H3Y 8897  -0.178   3.734   6.794  0.9475 -1.1514  1.0800
   91SAPS   C34 8898  -0.313   3.612   6.927 -0.2836  0.3225  0.4863
   91SAPS   H4X 8899  -0.247   3.527   6.954 -1.7276 -0.7880  0.6413
   91SAPS   H4Y 8900  -0.414   3.570   6.908 -1.3795  3.4923 -1.4191
   91SAPS   C35 8901  -0.302   3.726   7.027 -0.2457 -0.2486 -0.2318
   91SAPS   H5X 8902  -0.386   3.796   7.006  0.9528  1.2662 -0.1874
   91SAPS   H5Y 8903  -0.203   3.775   7.016 -0.1957 -0.2062  0.3742
   91SAPS   C36 8904  -0.346   3.691   7.173 -1.0161 -0.0134  0.0586
   91SAPS   H6X 8905  -0.447   3.645   7.181 -1.7104  1.5605  0.9447
   91SAPS   H6Y 8906  -0.338   3.784   7.234  1.5145  0.9902 -1.6465
   91SAPS   C37 8907  -0.242   3.600   7.241  0.1605 -0.2840 -1.1364
   91SAPS   H7X 8908  -0.147   3.655   7.228 -1.7032  3.1228 -1.3218
   91SAPS   H7Y 8909  -0.238   3.501   7.190  1.7366  0.1741 -1.9719
   91SAPS   C38 8910  -0.279   3.592   7.394 -0.0019 -0.1088 -0.5071
   91SAPS   H8X 8911  -0.388   3.577   7.409  0.0573 -0.1407 -0.0914
   91SAPS   H8Y 8912  -0.266   3.692   7.441 -0.2616 -0.0019 -0.6640
   91SAPS   C39 8913  -0.185   3.487   7.470  0.0837 -0.3552  0.1359
   91SAPS   H9X 8914  -0.085   3.533   7.462  0.5692 -1.5654 -1.3687
   91SAPS   H9Y 8915  -0.171   3.391   7.415 -2.2749 -0.5809 -0.2039
   91SAPS  C310 8916  -0.214   3.466   7.615 -1.1694  0.4638  0.3148
   91SAPS  H10X 8917  -0.295   3.391   7.630 -0.5359 -0.5394 -1.0438
   91SAPS  H10Y 8918  -0.251   3.558   7.664  3.3237  1.9072  1.3845
   91SAPS  C311 8919  -0.085   3.419   7.691  0.4749  0.0129  0.2336
   91SAPS  H11X 8920   0.000   3.483   7.661  0.4280 -0.4973 -1.0480
   91SAPS  H11Y 8921  -0.061   3.314   7.667 -1.0203 -0.0557 -1.1362
   91SAPS  C312 8922  -0.099   3.417   7.841  0.3113 -0.6397 -0.0502
   91SAPS  H12X 8923  -0.174   3.342   7.875  1.0740 -1.5384 -0.3265
   91SAPS  H12Y 8924  -0.122   3.522   7.869  0.2498 -0.1676 -1.7601
   91SAPS  C313 8925   0.031   3.385   7.906  0.7391 -0.4712 -0.2491
   91SAPS  H13X 8926   0.106   3.457   7.869  0.0774  0.2135 -0.2809
   91SAPS  H13Y 8927   0.067   3.281   7.890  1.3396 -0.1196 -1.2718
   91SAPS  C314 8928   0.019   3.393   8.056  0.5805 -0.4824  0.0927
   91SAPS  H14X 8929  -0.060   3.319   8.077 -0.5078  0.7901  0.6264
   91SAPS  H14Y 8930  -0.015   3.494   8.089 -1.7953 -0.8132 -1.1265
   91SAPS  C315 8931   0.151   3.357   8.128  0.5458 -0.5645 -0.2861
   91SAPS  H15X 8932   0.229   3.428   8.093  0.1297  1.1585  2.0525
   91SAPS  H15Y 8933   0.183   3.256   8.094  1.6479 -0.6947  1.0492
   91SAPS  C316 8934   0.133   3.352   8.277  0.5702  0.6235  0.1023
   91SAPS  H16X 8935   0.040   3.303   8.313  0.1296  1.4023  0.0453
   91SAPS  H16Y 8936   0.115   3.458   8.302 -4.2187  0.1293 -0.3708
   91SAPS  C317 8937   0.252   3.292   8.359 -0.4075 -0.3279  0.1294
   91SAPS  H17X 8938   0.350   3.321   8.315  0.8229  0.7255  3.2618
   91SAPS  H17Y 8939   0.258   3.182   8.350 -3.1734 -0.6349  1.0129
   91SAPS  C318 8940   0.252   3.328   8.507 -0.4192 -0.0452  0.0605
   91SAPS  H18X 8941   0.346   3.287   8.551 -1.5005 -1.4437  1.2071
   91SAPS  H18Y 8942   0.167   3.293   8.569 -0.2764  1.0737  0.9157
   91SAPS  H18Z 8943   0.259   3.437   8.523  1.0203 -0.2312  0.9502
   92SAPS     N 8944   3.127   6.445   6.409  0.2681  0.3772 -0.8752
   92SAPS   HN1 8945   3.037   6.488   6.438  0.8986  1.6491 -0.7108
   92SAPS   HN2 8946   3.184   6.423   6.494  1.0859 -1.0886 -1.7525
   92SAPS   HN3 8947   3.184   6.508   6.349  0.1848  1.1488 -0.1618
   92SAPS   C12 8948   3.108   6.318   6.331 -0.1039 -0.0029 -0.0259
   92SAPS  H12A 8949   3.036   6.330   6.251 -1.3015  1.0211  1.1562
   92SAPS   C13 8950   3.238   6.255   6.263 -0.3759  0.0589  0.3552
   92SAPS  O13A 8951   3.327   6.345   6.250 -0.1198 -0.5578 -0.2634
   92SAPS  O13B 8952   3.225   6.165   6.176 -0.2881 -0.1131 -0.1658
   92SAPS   C11 8953   3.045   6.209   6.423 -0.3039 -0.5655  0.8996
   92SAPS  H11A 8954   3.122   6.208   6.503  1.8483  0.1246 -1.0183
   92SAPS  H11B 8955   3.058   6.107   6.381 -2.4618 -0.8191  0.7390
   92SAPS     P 8956   2.792   6.161   6.380  0.0241 -0.3803 -0.2877
   92SAPS   O13 8957   2.684   6.257   6.355  0.0866 -0.5403 -0.0579
   92SAPS   O14 8958   2.843   6.092   6.264  0.9231 -0.2284  0.0772
   92SAPS   O12 8959   2.910   6.232   6.462  0.1633  0.1052 -0.2238
   92SAPS   O11 8960   2.743   6.059   6.486  0.1170  0.2529 -0.3846
   92SAPS    C1 8961   2.608   6.059   6.539 -0.6426  0.8613  0.1851
   92SAPS    HA 8962   2.540   6.126   6.483  0.6514  0.8833 -1.4244
   92SAPS    HB 8963   2.567   5.956   6.535 -0.4506  0.8013 -0.3736
   92SAPS    C2 8964   2.606   6.104   6.686  0.7024 -1.3121 -0.7034
   92SAPS    HS 8965   2.506   6.093   6.733  0.5349 -1.4421 -1.0821
   92SAPS   O21 8966   2.657   6.242   6.713  0.6868 -0.1268  0.4324
   92SAPS   C21 8967   2.591   6.337   6.647  0.8451  0.1041 -0.3188
   92SAPS   O22 8968   2.483   6.330   6.594  0.0525 -0.3338  0.2153
   92SAPS   C22 8969   2.683   6.464   6.649  0.2770  1.3099 -0.0851
   92SAPS   H2R 8970   2.718   6.482   6.753  1.5569 -0.5638 -0.1523
   92SAPS   H2S 8971   2.766   6.434   6.582  0.1160  3.5408 -1.3971
   92SAPS    C3 8972   2.705   6.017   6.765  0.5502  0.8449 -0.8787
   92SAPS    HX 8973   2.804   6.031   6.716 -0.3573  1.6883 -2.5453
   92SAPS    HY 8974   2.682   5.910   6.748  2.5502  0.5367 -2.0201
   92SAPS   O31 8975   2.708   6.049   6.911  0.3329  0.0298  0.6440
   92SAPS   C31 8976   2.800   6.132   6.955  1.1086  0.2722  1.5683
   92SAPS   O32 8977   2.886   6.186   6.880  0.6192 -0.1049 -0.1452
   92SAPS   C32 8978   2.798   6.133   7.101 -0.1356 -0.8128 -0.6330
   92SAPS   H2X 8979   2.706   6.174   7.146  1.5310 -0.1199  2.3997
   92SAPS   H2Y 8980   2.894   6.186   7.117  1.8805 -3.4125 -3.0474
   92SAPS   C23 8981   2.602   6.586   6.599 -0.3584  0.4798 -0.0883
   92SAPS   H3R 8982   2.491   6.572   6.605 -0.2677 -0.8809 -1.1288
   92SAPS   H3S 8983   2.630   6.603   6.493 -1.2681 -0.8807 -0.5735
   92SAPS   C24 8984   2.614   6.706   6.689  0.2843 -0.5778 -0.6138
   92SAPS   H4R 8985   2.719   6.733   6.711 -0.0769  3.3643 -2.7895
   92SAPS   H4S 8986   2.567   6.670   6.783 -1.8474  0.0773 -1.3596
   92SAPS   C25 8987   2.541   6.828   6.639  0.3419  0.2650  0.5519
   92SAPS   H5R 8988   2.451   6.824   6.575  0.6553  0.3598  0.0982
   92SAPS   C26 8989   2.561   6.953   6.692  0.5386 -0.0813  0.0054
   92SAPS   H6R 8990   2.495   7.033   6.656  2.4154  2.2132  1.3940
   92SAPS   C27 8991   2.647   6.999   6.808 -0.6911 -0.5643  0.1398
   92SAPS   H7R 8992   2.640   7.110   6.812 -1.4834 -0.6147  0.2811
   92SAPS   H7S 8993   2.750   6.965   6.785 -0.5781 -0.2735  0.2197
   92SAPS   C28 8994   2.599   6.951   6.942 -0.5378 -0.8916  0.3594
   92SAPS   H8R 8995   2.520   6.875   6.942 -2.3742  0.9402  1.3116
   92SAPS   C29 8996   2.657   6.996   7.060 -0.1610  0.6773  0.1156
   92SAPS   H9R 8997   2.617   6.962   7.157  0.5074 -0.5302 -0.0248
   92SAPS  C210 8998   2.760   7.114   7.065  0.5192  0.0117  0.2532
   92SAPS  H10R 8999   2.717   7.189   6.996 -0.9680 -0.3700  0.7227
   92SAPS  H10S 9000   2.863   7.100   7.025  0.0401 -1.8083 -0.4710
   92SAPS  C211 9001   2.766   7.175   7.204 -0.4919 -0.2079  0.5889
   92SAPS  H11R 9002   2.771   7.284   7.192 -0.6628 -0.1954  0.6228
   92SAPS  C212 9003   2.763   7.134   7.337  0.3624  0.2463  0.0228
   92SAPS  H12R 9004   2.774   7.216   7.410 -0.7592  0.8072 -0.4091
   92SAPS  C213 9005   2.765   6.993   7.389  0.2971 -0.0933  0.0713
   92SAPS  H13R 9006   2.852   6.995   7.458  0.6218  0.0395 -0.3371
   92SAPS  H13S 9007   2.788   6.918   7.310 -0.2786  0.9740 -1.1408
   92SAPS  C214 9008   2.641   6.955   7.467 -0.3675 -0.0248 -0.2513
   92SAPS  H14R 9009   2.547   6.953   7.410  0.4620 -0.0413 -1.6562
   92SAPS  C215 9010   2.637   6.907   7.592  0.8207  0.6032 -0.4938
   92SAPS  H15R 9011   2.543   6.870   7.637  2.5288 -0.2080  2.7102
   92SAPS  C216 9012   2.756   6.874   7.687  0.6170 -0.1978  0.3820
   92SAPS  H16R 9013   2.830   6.836   7.613  0.4831  1.5028 -0.6715
   92SAPS  H16S 9014   2.719   6.798   7.759 -2.6464  0.0752 -0.8134
   92SAPS  C217 9015   2.795   7.001   7.759  0.4929 -1.1312 -0.0562
   92SAPS  H17R 9016   2.717   7.026   7.834  0.6749  0.4468 -0.3640
   92SAPS  H17S 9017   2.800   7.075   7.676  1.5690  0.6425  1.4999
   92SAPS  C218 9018   2.930   6.987   7.837  0.7689  0.4718 -0.0476
   92SAPS  H18R 9019   2.965   7.084   7.878 -0.6501  1.7690 -1.7281
   92SAPS  H18S 9020   2.995   6.929   7.769  1.3820  0.1423  0.8010
   92SAPS  C219 9021   2.911   6.902   7.969 -0.1112 -0.0176  0.8403
   92SAPS  H19R 9022   3.015   6.884   8.002  0.0522  0.2933  0.4860
   92SAPS  H19S 9023   2.864   6.806   7.939  0.5485 -0.8900  2.4259
   92SAPS  C220 9024   2.824   6.953   8.076  0.3478  0.5101 -0.5611
   92SAPS  H20R 9025   2.722   6.911   8.065 -0.1830  1.7922 -0.6864
   92SAPS  H20S 9026   2.815   7.064   8.073  0.2806  0.5792  1.1680
   92SAPS  H20T 9027   2.863   6.909   8.170  1.0480 -0.2720 -1.1971
   92SAPS   C33 9028   2.813   5.990   7.164 -0.5633 -0.2995  0.1074
   92SAPS   H3X 9029   2.908   5.953   7.118 -1.4491 -0.7191 -1.4539
   92SAPS   H3Y 9030   2.724   5.930   7.135 -0.7946 -1.3301  2.7050
   92SAPS   C34 9031   2.822   5.994   7.319  0.5900  0.4191  0.2249
   92SAPS   H4X 9032   2.729   6.043   7.355 -0.2314 -2.3484  2.2205
   92SAPS   H4Y 9033   2.903   6.066   7.344  0.9320  0.4294 -0.8576
   92SAPS   C35 9034   2.834   5.859   7.395  0.6943  0.1269 -0.5807
   92SAPS   H5X 9035   2.897   5.782   7.344  0.6226 -1.1626  1.2045
   92SAPS   H5Y 9036   2.727   5.829   7.394  0.1380  1.9288  0.8580
   92SAPS   C36 9037   2.872   5.873   7.549  0.2455 -0.6056  0.5741
   92SAPS   H6X 9038   2.981   5.895   7.555  0.0976  0.1445  0.6069
   92SAPS   H6Y 9039   2.866   5.770   7.590  1.7800 -0.9542 -0.0079
   92SAPS   C37 9040   2.806   5.985   7.636  0.1473 -0.5621  0.7475
   92SAPS   H7X 9041   2.700   5.957   7.656  0.6660 -1.6047  2.1681
   92SAPS   H7Y 9042   2.808   6.077   7.573  1.4918  0.2693  1.9450
   92SAPS   C38 9043   2.873   5.996   7.772  0.2953 -0.2038 -0.0279
   92SAPS   H8X 9044   2.979   6.024   7.755 -0.8635  4.2767 -1.2574
   92SAPS   H8Y 9045   2.867   5.902   7.832 -3.4005 -0.4555 -0.5318
   92SAPS   C39 9046   2.805   6.087   7.872  1.0263  0.0166  0.4201
   92SAPS   H9X 9047   2.706   6.051   7.910  0.6055  1.9320  1.2592
   92SAPS   H9Y 9048   2.794   6.184   7.819  1.3063 -0.2843 -0.1917
   92SAPS  C310 9049   2.889   6.103   7.997  0.3404  0.1759  0.0516
   92SAPS  H10X 9050   2.994   6.115   7.962  0.5032  1.2630  0.8731
   92SAPS  H10Y 9051   2.895   6.017   8.067 -0.1351  0.4449  0.4254
   92SAPS  C311 9052   2.848   6.232   8.072  0.3438 -0.0749 -0.1919
   92SAPS  H11X 9053   2.745   6.260   8.042 -0.3891  0.5450  2.5799
   92SAPS  H11Y 9054   2.903   6.322   8.037  0.4371 -0.3393 -0.7319
   92SAPS  C312 9055   2.848   6.230   8.227 -1.0537 -0.0986  0.2675
   92SAPS  H12X 9056   2.845   6.336   8.262  0.3133  0.4689 -1.2232
   92SAPS  H12Y 9057   2.942   6.187   8.268 -1.0265 -1.3310 -1.0257
   92SAPS  C313 9058   2.731   6.166   8.290 -0.1448  0.1802  0.7815
   92SAPS  H13X 9059   2.743   6.058   8.271 -2.1985 -0.0564  0.5197
   92SAPS  H13Y 9060   2.634   6.203   8.248  0.2077  1.1306  0.7849
   92SAPS  C314 9061   2.730   6.181   8.446  0.1392  0.3102  0.0431
   92SAPS  H14X 9062   2.735   6.290   8.470 -1.4378  0.5046 -0.4086
   92SAPS  H14Y 9063   2.821   6.131   8.486 -0.3566 -0.0516  0.7359
   92SAPS  C315 9064   2.605   6.117   8.509  0.0259  0.3356 -0.1176
   92SAPS  H15X 9065   2.590   6.025   8.449 -1.0416 -1.4334  2.6494
   92SAPS  H15Y 9066   2.515   6.181   8.496 -0.6581 -0.3628  0.9860
   92SAPS  C316 9067   2.620   6.073   8.657  0.6228  0.1930  1.0986
   92SAPS  H16X 9068   2.606   6.163   8.720 -1.1131 -0.1971  1.3035
   92SAPS  H16Y 9069   2.715   6.018   8.672 -0.1644 -1.7852 -0.6344
   92SAPS  C317 9070   2.508   5.978   8.706  0.2205  0.4304 -0.4801
   92SAPS  H17X 9071   2.536   5.871   8.694 -0.8931 -0.3295  2.7027
   92SAPS  H17Y 9072   2.416   5.989   8.645 -0.5787 -1.6465  0.2453
   92SAPS  C318 9073   2.463   5.996   8.850  0.1856 -0.1181  0.2832
   92SAPS  H18X 9074   2.375   5.935   8.881 -1.6614  1.1548 -2.0192
   92SAPS  H18Y 9075   2.432   6.102   8.862  2.4731  0.5169  0.9551
   92SAPS  H18Z 9076   2.547   5.977   8.920  1.4448  0.4233 -1.0340
   93SAPS     N 9077   0.517   6.417   6.780  0.8689  0.5045  0.3810
   93SAPS   HN1 9078   0.514   6.313   6.791  1.9567  0.2235 -1.5716
   93SAPS   HN2 9079   0.610   6.441   6.819  1.1930  0.2927 -0.2305
   93SAPS   HN3 9080   0.440   6.461   6.834  0.8937  0.0921  0.7524
   93SAPS   C12 9081   0.504   6.476   6.643  0.3582 -0.2484  0.4318
   93SAPS  H12A 9082   0.539   6.578   6.634 -2.3752  0.9306  2.0316
   93SAPS   C13 9083   0.594   6.399   6.545 -0.2914  0.1602 -0.4946
   93SAPS  O13A 9084   0.670   6.306   6.591 -0.0792  0.2689  0.3236
   93SAPS  O13B 9085   0.604   6.436   6.425  0.2900 -0.0647  0.2051
   93SAPS   C11 9086   0.354   6.458   6.599  0.4835  0.6844 -0.1739
   93SAPS  H11A 9087   0.317   6.354   6.610  0.9489  0.2481 -2.2261
   93SAPS  H11B 9088   0.346   6.474   6.489 -2.3028  0.0992 -0.1268
   93SAPS     P 9089   0.118   6.571   6.613  0.1905  0.3298 -0.1790
   93SAPS   O13 9090   0.107   6.701   6.545  0.4656 -0.1427 -0.2638
   93SAPS   O14 9091   0.066   6.458   6.537 -0.8063 -0.0074  0.3748
   93SAPS   O12 9092   0.267   6.549   6.667  0.1757  0.2573 -0.1322
   93SAPS   O11 9093   0.045   6.574   6.753  0.1127  0.0772 -0.3408
   93SAPS    C1 9094   0.069   6.673   6.853 -0.0470 -0.3173  0.3093
   93SAPS    HA 9095   0.155   6.738   6.827 -0.9646  0.1940 -1.5920
   93SAPS    HB 9096  -0.023   6.734   6.861 -1.0549 -1.6248 -0.8451
   93SAPS    C2 9097   0.105   6.611   6.992  0.0611 -0.4495 -0.4380
   93SAPS    HS 9098   0.199   6.553   6.980  0.5899  0.1902  0.5396
   93SAPS   O21 9099  -0.001   6.525   7.038 -0.2022  0.0131 -0.1836
   93SAPS   C21 9100   0.035   6.406   7.073 -0.1746 -0.6480  0.6408
   93SAPS   O22 9101   0.152   6.363   7.075 -0.2153 -0.3117 -0.0009
   93SAPS   C22 9102  -0.093   6.328   7.104  0.2855  0.4016 -0.0077
   93SAPS   H2R 9103  -0.136   6.384   7.190 -1.2569  0.6262 -0.8906
   93SAPS   H2S 9104  -0.163   6.323   7.018 -0.3588 -2.8359  0.5796
   93SAPS    C3 9105   0.136   6.717   7.094 -0.1679  0.1399  0.3263
   93SAPS    HX 9106   0.054   6.792   7.096  1.8474  2.5560 -1.3854
   93SAPS    HY 9107   0.214   6.790   7.065 -0.9032 -0.2730 -3.0684
   93SAPS   O31 9108   0.141   6.667   7.229  0.2041 -0.4670 -0.2195
   93SAPS   C31 9109   0.266   6.651   7.270 -0.7991 -0.7633 -0.1984
   93SAPS   O32 9110   0.363   6.660   7.201  0.2824  0.0652  0.3146
   93SAPS   C32 9111   0.282   6.638   7.425 -0.3054  0.2598  0.1150
   93SAPS   H2X 9112   0.196   6.693   7.468  0.1313  1.7764 -0.8694
   93SAPS   H2Y 9113   0.373   6.691   7.458  0.8789 -1.9136  0.5534
   93SAPS   C23 9114  -0.060   6.184   7.146  0.0286 -0.7828  0.0388
   93SAPS   H3R 9115  -0.017   6.192   7.248  1.7849  1.1400 -0.7557
   93SAPS   H3S 9116   0.017   6.146   7.075 -0.2189  0.6473 -1.0392
   93SAPS   C24 9117  -0.185   6.094   7.146 -0.3697 -0.8762 -0.6556
   93SAPS   H4R 9118  -0.222   6.102   7.042 -0.1384  1.4247 -0.5963
   93SAPS   H4S 9119  -0.249   6.138   7.225  0.3417  0.4407 -0.7901
   93SAPS   C25 9120  -0.156   5.944   7.176 -0.4216 -0.1978  0.0915
   93SAPS   H5R 9121  -0.156   5.887   7.081  1.9486  1.7347 -1.1800
   93SAPS   C26 9122  -0.118   5.890   7.293  0.2786  0.1192 -0.3002
   93SAPS   H6R 9123  -0.089   5.785   7.305  0.7645  0.2292 -0.4881
   93SAPS   C27 9124  -0.104   5.967   7.426  0.0156 -0.1946  0.7666
   93SAPS   H7R 9125  -0.037   6.056   7.422  0.9571 -0.8289  1.8881
   93SAPS   H7S 9126  -0.050   5.900   7.496  1.4413  0.0622 -0.0474
   93SAPS   C28 9127  -0.240   6.007   7.473  0.1096 -1.0946 -0.4485
   93SAPS   H8R 9128  -0.307   6.043   7.394  0.7472 -1.9594 -1.4101
   93SAPS   C29 9129  -0.277   6.000   7.607  0.1312  0.7002  0.0095
   93SAPS   H9R 9130  -0.380   6.034   7.629 -0.3103 -0.7828  0.3130
   93SAPS  C210 9131  -0.199   5.933   7.716 -0.5313 -0.0938  0.1505
   93SAPS  H10R 9132  -0.197   6.001   7.804  1.5223  2.1402 -1.4860
   93SAPS  H10S 9133  -0.090   5.931   7.693 -0.1133 -0.3682  2.0340
   93SAPS  C211 9134  -0.234   5.794   7.742  0.2112 -0.4086  0.4049
   93SAPS  H11R 9135  -0.271   5.736   7.655  1.8838 -0.8240 -0.0605
   93SAPS  C212 9136  -0.232   5.729   7.853  0.2862  0.3634  0.4392
   93SAPS  H12R 9137  -0.265   5.624   7.843  1.9752  0.0176 -2.5755
   93SAPS  C213 9138  -0.188   5.795   7.985  0.0877 -0.0942  0.2069
   93SAPS  H13R 9139  -0.253   5.884   7.997 -1.0701 -1.2424  3.8187
   93SAPS  H13S 9140  -0.081   5.825   7.981 -0.3041  1.3136 -0.4621
   93SAPS  C214 9141  -0.216   5.703   8.103  0.2279  0.3728  0.2456
   93SAPS  H14R 9142  -0.294   5.629   8.081  1.6055 -1.4322  1.1243
   93SAPS  C215 9143  -0.162   5.720   8.230  0.4366  0.6641  0.3527
   93SAPS  H15R 9144  -0.196   5.658   8.315  0.0356  0.4489  0.0398
   93SAPS  C216 9145  -0.064   5.830   8.264 -0.4542  0.3563 -0.1957
   93SAPS  H16R 9146  -0.109   5.863   8.360  0.6772 -0.5615  0.6977
   93SAPS  H16S 9147  -0.071   5.909   8.187  0.9990  1.0723  0.3718
   93SAPS  C217 9148   0.077   5.773   8.274 -0.1407  0.1978 -0.0923
   93SAPS  H17R 9149   0.096   5.719   8.179 -1.9915 -1.8752  0.6232
   93SAPS  H17S 9150   0.068   5.701   8.358  3.1928 -0.6940 -0.3267
   93SAPS  C218 9151   0.199   5.867   8.303  0.3548  0.1089  0.3531
   93SAPS  H18R 9152   0.217   5.923   8.209 -1.7474  0.8551  0.3436
   93SAPS  H18S 9153   0.279   5.790   8.309 -2.0106 -2.7021 -1.0859
   93SAPS  C219 9154   0.180   5.974   8.408 -0.2013  0.0432  0.0219
   93SAPS  H19R 9155   0.177   5.916   8.503 -1.5701  0.9524  0.5762
   93SAPS  H19S 9156   0.084   6.029   8.409 -1.9890 -2.7221  2.7177
   93SAPS  C220 9157   0.302   6.072   8.425 -0.2934 -0.0767 -0.9106
   93SAPS  H20R 9158   0.326   6.121   8.328  1.2391 -1.5671 -1.3451
   93SAPS  H20S 9159   0.396   6.019   8.450 -0.3689  0.5860  0.9101
   93SAPS  H20T 9160   0.288   6.150   8.503 -0.7994 -0.6491 -0.4195
   93SAPS   C33 9161   0.285   6.492   7.475 -0.2189 -0.1186  0.1547
   93SAPS   H3X 9162   0.321   6.505   7.579  1.0597  1.5698 -0.4487
   93SAPS   H3Y 9163   0.356   6.430   7.417 -0.3937 -0.4346  0.2795
   93SAPS   C34 9164   0.149   6.432   7.468 -0.2822 -0.3164 -0.1123
   93SAPS   H4X 9165   0.127   6.434   7.359 -1.6968 -0.5765  0.1389
   93SAPS   H4Y 9166   0.084   6.500   7.528  2.3870  0.9086  1.5624
   93SAPS   C35 9167   0.136   6.281   7.498  0.3304  0.5984  0.7786
   93SAPS   H5X 9168   0.220   6.227   7.449 -1.1392  0.0503 -1.2554
   93SAPS   H5Y 9169   0.043   6.248   7.447  0.2508  1.9321  0.0469
   93SAPS   C36 9170   0.136   6.244   7.645  0.3228 -0.1462  0.0104
   93SAPS   H6X 9171   0.217   6.302   7.694 -1.6078  1.4548  1.4766
   93SAPS   H6Y 9172   0.154   6.135   7.658 -0.4218 -0.5077 -1.7931
   93SAPS   C37 9173  -0.002   6.274   7.711  0.8448 -0.0382  0.1558
   93SAPS   H7X 9174  -0.075   6.208   7.659  3.4091 -2.7211 -0.3168
   93SAPS   H7Y 9175  -0.024   6.383   7.710  3.7274  0.6515 -0.5496
   93SAPS   C38 9176  -0.015   6.233   7.858 -0.0589  0.2958 -0.2045
   93SAPS   H8X 9177   0.053   6.287   7.927 -0.5515 -0.5222  0.9531
   93SAPS   H8Y 9178   0.022   6.128   7.863  0.4984  0.4009 -1.6109
   93SAPS   C39 9179  -0.157   6.257   7.918  0.7402  0.0131 -0.3946
   93SAPS   H9X 9180  -0.159   6.218   8.022 -0.8041  0.9680 -0.0463
   93SAPS   H9Y 9181  -0.226   6.192   7.859 -0.4730  0.9075  0.0273
   93SAPS  C310 9182  -0.203   6.402   7.913 -0.3494 -1.2942  0.2403
   93SAPS  H10X 9183  -0.302   6.403   7.863 -0.1398  1.0838 -0.2841
   93SAPS  H10Y 9184  -0.138   6.457   7.842 -3.7215  3.7419  0.5375
   93SAPS  C311 9185  -0.221   6.481   8.048 -0.3522  0.0549  0.5394
   93SAPS  H11X 9186  -0.272   6.411   8.117 -0.1370  0.4350  1.0967
   93SAPS  H11Y 9187  -0.286   6.568   8.024 -0.9091  0.2227  2.4467
   93SAPS  C312 9188  -0.088   6.519   8.120 -0.1343 -0.1758  0.2719
   93SAPS  H12X 9189  -0.111   6.620   8.160  0.3756  0.8057 -1.7635
   93SAPS  H12Y 9190   0.000   6.525   8.053 -0.1605 -2.4317 -0.0426
   93SAPS  C313 9191  -0.044   6.420   8.226 -0.4260  0.1272 -0.7973
   93SAPS  H13X 9192   0.060   6.436   8.263 -0.1658 -2.4185 -0.2062
   93SAPS  H13Y 9193  -0.038   6.325   8.169 -2.3826 -0.9694  0.7145
   93SAPS  C314 9194  -0.139   6.391   8.339 -0.0632  0.2546  0.4659
   93SAPS  H14X 9195  -0.245   6.418   8.321 -0.4123 -1.9973 -1.2532
   93SAPS  H14Y 9196  -0.104   6.459   8.421 -0.3166  2.1472 -0.9147
   93SAPS  C315 9197  -0.139   6.250   8.387  0.3174 -0.5401 -0.0703
   93SAPS  H15X 9198  -0.049   6.192   8.359 -1.4545 -2.1473 -2.9795
   93SAPS  H15Y 9199  -0.221   6.188   8.343 -2.4406  2.7349  0.0218
   93SAPS  C316 9200  -0.164   6.235   8.535  0.0876 -0.3441 -0.2010
   93SAPS  H16X 9201  -0.253   6.296   8.562  0.9574  1.2834 -0.9207
   93SAPS  H16Y 9202  -0.079   6.263   8.601 -0.4077 -0.7623  0.6396
   93SAPS  C317 9203  -0.184   6.085   8.570  0.3495 -0.9932 -0.2555
   93SAPS  H17X 9204  -0.099   6.024   8.534  0.0424 -0.6836 -1.5703
   93SAPS  H17Y 9205  -0.278   6.051   8.521 -0.9344 -0.2127  1.5436
   93SAPS  C318 9206  -0.186   6.061   8.718  0.1229 -0.6837 -0.7738
   93SAPS  H18X 9207  -0.271   6.102   8.777  0.9532 -2.4891  1.8166
   93SAPS  H18Y 9208  -0.088   6.089   8.761 -0.2418 -1.1507  0.3988
   93SAPS  H18Z 9209  -0.197   5.955   8.747  2.5608 -0.7904 -0.0914
   94SAPS     N 9210   0.465   3.206   5.711  0.2406  0.1391  0.0775
   94SAPS   HN1 9211   0.520   3.152   5.780 -1.4600  0.4339  1.7500
   94SAPS   HN2 9212   0.389   3.258   5.759 -0.0952  0.5408 -0.8625
   94SAPS   HN3 9213   0.412   3.147   5.643 -1.8252 -0.1117  1.7964
   94SAPS   C12 9214   0.555   3.298   5.641  0.4795 -0.6040  0.0079
   94SAPS  H12A 9215   0.587   3.248   5.551 -0.1191 -0.9002 -0.0429
   94SAPS   C13 9216   0.479   3.429   5.594 -0.2157  0.4839 -0.3064
   94SAPS  O13A 9217   0.356   3.435   5.588  0.3973  0.2997  0.2453
   94SAPS  O13B 9218   0.547   3.529   5.559  0.1312  0.0697  0.1553
   94SAPS   C11 9219   0.667   3.338   5.742 -0.1314 -0.1319  0.3876
   94SAPS  H11A 9220   0.726   3.415   5.688  0.1904 -0.3291  0.4539
   94SAPS  H11B 9221   0.740   3.256   5.761  0.8790  0.4230 -0.9617
   94SAPS     P 9222   0.624   3.529   5.918 -0.3075 -0.1306 -0.0499
   94SAPS   O13 9223   0.745   3.594   5.863 -0.1943  0.7235  0.0393
   94SAPS   O14 9224   0.495   3.604   5.900 -0.0607 -0.7116  0.2067
   94SAPS   O12 9225   0.609   3.383   5.863 -0.1794  0.4632  0.9506
   94SAPS   O11 9226   0.638   3.508   6.075  0.4351  0.3372  0.3333
   94SAPS    C1 9227   0.550   3.408   6.134 -0.1469  0.1172  0.6093
   94SAPS    HA 9228   0.442   3.429   6.124  0.4144  2.4212 -1.6177
   94SAPS    HB 9229   0.562   3.311   6.081  1.8478  1.2805 -1.2182
   94SAPS    C2 9230   0.580   3.385   6.286  0.9226  0.6272  0.6991
   94SAPS    HS 9231   0.505   3.314   6.325 -0.0485 -0.2619 -2.4298
   94SAPS   O21 9232   0.589   3.509   6.354 -0.2828  0.5218 -0.3197
   94SAPS   C21 9233   0.487   3.548   6.426 -0.1919  0.4680 -0.3923
   94SAPS   O22 9234   0.384   3.488   6.461 -0.2606  0.1919  0.5328
   94SAPS   C22 9235   0.528   3.682   6.491 -0.2552 -0.4312  0.6957
   94SAPS   H2R 9236   0.587   3.737   6.414 -1.3323 -1.5866 -1.0329
   94SAPS   H2S 9237   0.437   3.740   6.516  0.3833  0.5105  0.8719
   94SAPS    C3 9238   0.718   3.321   6.289 -0.0714 -0.3035 -0.1692
   94SAPS    HX 9239   0.787   3.388   6.233  0.8928 -0.7313  0.4822
   94SAPS    HY 9240   0.732   3.230   6.228 -1.1591 -0.8170  0.3130
   94SAPS   O31 9241   0.759   3.309   6.423  0.0640  0.0098 -0.2832
   94SAPS   C31 9242   0.745   3.187   6.475  1.1006 -0.1274 -0.0735
   94SAPS   O32 9243   0.686   3.098   6.414 -0.4219  0.3120 -0.3668
   94SAPS   C32 9244   0.790   3.188   6.617  0.7847 -0.2700 -0.3297
   94SAPS   H2X 9245   0.731   3.270   6.662 -0.6438 -1.7303  0.5406
   94SAPS   H2Y 9246   0.897   3.217   6.612  0.1586  2.5403  0.8810
   94SAPS   C23 9247   0.612   3.658   6.621  0.6363 -0.4014  0.6225
   94SAPS   H3R 9248   0.676   3.568   6.609  0.6822 -0.2359 -0.4611
   94SAPS   H3S 9249   0.554   3.634   6.713 -2.1381  1.7821 -0.3981
   94SAPS   C24 9250   0.698   3.782   6.651  0.0214 -0.1298 -0.2566
   94SAPS   H4R 9251   0.746   3.810   6.554 -0.9074 -0.7297 -0.9067
   94SAPS   H4S 9252   0.778   3.771   6.727 -0.4990  2.2062  0.7039
   94SAPS   C25 9253   0.612   3.895   6.694  0.0020  0.7072 -0.0611
   94SAPS   H5R 9254   0.528   3.914   6.626  0.2387  1.0486 -0.2641
   94SAPS   C26 9255   0.624   3.977   6.800  0.1224  0.3049 -0.0850
   94SAPS   H6R 9256   0.549   4.058   6.809 -1.2334 -0.9641  0.3375
   94SAPS   C27 9257   0.733   3.967   6.904  0.1924  0.3037  0.1102
   94SAPS   H7R 9258   0.757   4.072   6.932 -2.4386  0.5733  1.6224
   94SAPS   H7S 9259   0.828   3.924   6.865  0.2922  0.0880  0.5879
   94SAPS   C28 9260   0.706   3.887   7.030 -0.2470  0.1863  0.1517
   94SAPS   H8R 9261   0.644   3.798   7.009  1.8283 -0.7407 -2.6315
   94SAPS   C29 9262   0.753   3.916   7.157 -0.3149  0.6580 -0.2027
   94SAPS   H9R 9263   0.743   3.836   7.232 -0.2589 -2.4585 -3.2408
   94SAPS  C210 9264   0.836   4.036   7.199 -0.2415 -0.1790  0.7569
   94SAPS  H10R 9265   0.785   4.073   7.290 -1.9836  0.1122 -0.2941
   94SAPS  H10S 9266   0.816   4.124   7.135 -2.0793  0.2357  1.8297
   94SAPS  C211 9267   0.987   4.001   7.197 -0.5316  1.1989 -0.9722
   94SAPS  H11R 9268   1.031   3.987   7.097 -1.2268  1.1320 -1.2770
   94SAPS  C212 9269   1.071   3.989   7.305  0.7388  0.8542  0.0612
   94SAPS  H12R 9270   1.179   3.973   7.293  0.8058  0.6954  0.8208
   94SAPS  C213 9271   1.034   4.005   7.454 -0.3951 -0.3315  0.0925
   94SAPS  H13R 9272   1.082   3.920   7.507  0.6385  1.1793  1.7214
   94SAPS  H13S 9273   0.925   3.984   7.453 -0.2638 -1.0975 -1.3698
   94SAPS  C214 9274   1.068   4.143   7.508  0.3361  0.4587  0.8209
   94SAPS  H14R 9275   1.139   4.202   7.447  0.5649 -0.1458  0.4889
   94SAPS  C215 9276   1.033   4.179   7.628  0.1574 -0.0269  0.6966
   94SAPS  H15R 9277   1.067   4.277   7.667 -1.3893  0.1028  1.8433
   94SAPS  C216 9278   0.953   4.110   7.733 -0.0808 -0.0103 -0.1673
   94SAPS  H16R 9279   1.023   4.084   7.816 -0.2258 -0.8606 -0.2986
   94SAPS  H16S 9280   0.908   4.014   7.699  1.3826 -0.3068 -1.3326
   94SAPS  C217 9281   0.849   4.214   7.781  0.7281  0.0804 -1.0817
   94SAPS  H17R 9282   0.798   4.256   7.692 -0.6598  0.2079 -0.2566
   94SAPS  H17S 9283   0.897   4.297   7.836  1.0574 -0.3061 -0.7791
   94SAPS  C218 9284   0.735   4.155   7.871 -0.0318 -0.1632 -0.1806
   94SAPS  H18R 9285   0.777   4.081   7.943 -2.1134 -0.4918  0.7833
   94SAPS  H18S 9286   0.653   4.118   7.806 -0.3576  1.5988 -0.8234
   94SAPS  C219 9287   0.680   4.267   7.966 -0.3090  0.1396  0.2994
   94SAPS  H19R 9288   0.651   4.354   7.904 -0.1097  1.5164  2.0470
   94SAPS  H19S 9289   0.771   4.303   8.020 -0.6765  0.4151  0.7429
   94SAPS  C220 9290   0.583   4.234   8.076 -0.0140 -0.1843  0.2447
   94SAPS  H20R 9291   0.482   4.213   8.035  0.1043  1.6317 -1.0889
   94SAPS  H20S 9292   0.571   4.320   8.145  1.7363  0.4693 -0.2350
   94SAPS  H20T 9293   0.612   4.144   8.133 -1.5775 -1.4412 -0.8342
   94SAPS   C33 9294   0.772   3.053   6.695 -0.7785  0.3535 -0.2934
   94SAPS   H3X 9295   0.847   2.987   6.648 -0.4788  1.2796 -1.1766
   94SAPS   H3Y 9296   0.668   3.015   6.693 -1.7951  2.8691  0.3639
   94SAPS   C34 9297   0.819   3.055   6.842  0.9475 -0.0416  0.5361
   94SAPS   H4X 9298   0.744   3.115   6.898  0.8039 -1.3182  1.7486
   94SAPS   H4Y 9299   0.920   3.101   6.847  0.9719  0.3588 -2.0502
   94SAPS   C35 9300   0.826   2.910   6.898  0.2155  0.3734 -0.3171
   94SAPS   H5X 9301   0.913   2.857   6.854  0.1965  0.4776 -0.4818
   94SAPS   H5Y 9302   0.736   2.854   6.866  0.6788  0.5242 -1.9497
   94SAPS   C36 9303   0.837   2.911   7.050  0.3735  0.1497  0.6394
   94SAPS   H6X 9304   0.824   2.810   7.094 -1.8464  0.5346  0.9669
   94SAPS   H6Y 9305   0.751   2.965   7.094 -1.0145 -1.0055 -0.5313
   94SAPS   C37 9306   0.969   2.977   7.100  1.0822 -0.1494 -0.0387
   94SAPS   H7X 9307   0.974   3.087   7.082 -1.6006  0.4102  1.8370
   94SAPS   H7Y 9308   1.061   2.931   7.058  1.3369 -0.0915  0.4484
   94SAPS   C38 9309   0.977   2.961   7.259  0.0915 -0.4486  0.0807
   94SAPS   H8X 9310   0.882   2.972   7.316 -0.3687  3.5460 -1.1764
   94SAPS   H8Y 9311   1.037   3.045   7.301  0.0984 -1.3837  2.0874
   94SAPS   C39 9312   1.055   2.830   7.290  0.7736 -0.0458 -0.5199
   94SAPS   H9X 9313   1.151   2.831   7.234  0.5466  1.6637 -0.9397
   94SAPS   H9Y 9314   0.997   2.750   7.240 -0.2399  0.7253 -0.6151
   94SAPS  C310 9315   1.068   2.799   7.439 -0.1249 -1.0400  0.2122
   94SAPS  H10X 9316   0.966   2.805   7.484 -0.7392 -0.3138 -1.1989
   94SAPS  H10Y 9317   1.129   2.873   7.493  0.6043 -1.2627 -0.2980
   94SAPS  C311 9318   1.117   2.657   7.464  0.1697  0.3201  0.0276
   94SAPS  H11X 9319   1.205   2.639   7.399  1.8592 -0.9857  2.5230
   94SAPS  H11Y 9320   1.029   2.596   7.434  0.0618  1.0838 -1.3015
   94SAPS  C312 9321   1.161   2.633   7.610 -0.7367 -0.2159 -0.2892
   94SAPS  H12X 9322   1.245   2.702   7.633 -0.8394 -1.0019  2.9604
   94SAPS  H12Y 9323   1.202   2.529   7.617 -1.2807 -0.5138 -1.3491
   94SAPS  C313 9324   1.044   2.643   7.710 -0.2881 -0.2299 -0.2327
   94SAPS  H13X 9325   0.956   2.597   7.661  0.6248 -1.8876 -0.3888
   94SAPS  H13Y 9326   1.012   2.748   7.727  1.8701  0.3863  0.3365
   94SAPS  C314 9327   1.063   2.583   7.854 -0.5196 -0.5726  0.1235
   94SAPS  H14X 9328   1.086   2.475   7.847 -0.6196 -0.6964  1.4429
   94SAPS  H14Y 9329   0.964   2.591   7.904 -1.6047  0.7688 -2.0382
   94SAPS  C315 9330   1.166   2.668   7.922 -0.0672  0.6517  0.2372
   94SAPS  H15X 9331   1.135   2.774   7.939  0.1676  0.9448 -1.0886
   94SAPS  H15Y 9332   1.265   2.669   7.872  0.3083  1.9328  0.9577
   94SAPS  C316 9333   1.198   2.600   8.064  0.6914 -0.7317  0.0147
   94SAPS  H16X 9334   1.233   2.496   8.045  0.7888 -1.1133  2.1163
   94SAPS  H16Y 9335   1.100   2.591   8.115  1.1220 -1.6388  0.7029
   94SAPS  C317 9336   1.292   2.678   8.155 -0.5620 -0.1014 -0.3848
   94SAPS  H17X 9337   1.270   2.786   8.149  0.1663  0.0237 -0.8870
   94SAPS  H17Y 9338   1.397   2.659   8.125 -0.4503 -0.0546 -0.0284
   94SAPS  C318 9339   1.268   2.634   8.302 -0.4423 -0.4531 -0.2043
   94SAPS  H18X 9340   1.175   2.672   8.350 -0.3218  1.4907 -1.3897
   94SAPS  H18Y 9341   1.340   2.692   8.364 -1.7939  0.4655  0.5642
   94SAPS  H18Z 9342   1.276   2.525   8.320  1.1387 -0.2792  0.2642
   95SAPS     N 9343   4.655   3.386   6.248 -0.2233 -0.2233 -0.0604
   95SAPS   HN1 9344   4.555   3.358   6.235  0.1918 -2.5503  1.2622
   95SAPS   HN2 9345   4.672   3.407   6.348  0.4680 -1.2580  0.0559
   95SAPS   HN3 9346   4.683   3.466   6.188 -0.2095  1.1606  1.7182
   95SAPS   C12 9347   4.750   3.273   6.223 -0.0676 -0.3863  0.6638
   95SAPS  H12A 9348   4.737   3.208   6.309  1.0666  0.3412  1.4066
   95SAPS   C13 9349   4.729   3.189   6.087  0.0931 -0.4923 -0.5538
   95SAPS  O13A 9350   4.695   3.257   5.989  0.1040 -0.4205  0.4309
   95SAPS  O13B 9351   4.781   3.078   6.078 -0.2977  0.0221 -0.4685
   95SAPS   C11 9352   4.894   3.335   6.226  0.3877 -0.3219  0.0037
   95SAPS  H11A 9353   4.908   3.416   6.151 -1.5660  2.0031  1.9647
   95SAPS  H11B 9354   4.960   3.249   6.201  0.6485  0.0691 -0.6753
   95SAPS     P 9355   5.071   3.433   6.391  0.2488  0.2595  0.1167
   95SAPS   O13 9356   5.157   3.339   6.316  0.4427  0.5685  0.2926
   95SAPS   O14 9357   5.085   3.577   6.359 -0.1775 -0.0195  0.6539
   95SAPS   O12 9358   4.919   3.392   6.357 -0.6346  0.2458 -0.6564
   95SAPS   O11 9359   5.089   3.406   6.548 -0.2688  0.4970  0.0287
   95SAPS    C1 9360   5.069   3.267   6.590  0.3006  0.9978  0.4139
   95SAPS    HA 9361   5.090   3.194   6.508 -1.7451  1.1027 -0.2585
   95SAPS    HB 9362   5.134   3.236   6.675 -2.0770 -1.9462  1.3487
   95SAPS    C2 9363   4.924   3.232   6.651  0.0868  0.4214  0.2419
   95SAPS    HS 9364   4.857   3.308   6.606 -0.6849  0.0017  0.6591
   95SAPS   O21 9365   4.932   3.239   6.792  0.0298 -0.6789 -0.3798
   95SAPS   C21 9366   4.833   3.299   6.850  0.5434 -0.0216  0.4961
   95SAPS   O22 9367   4.734   3.335   6.790 -0.3805 -0.5834  0.7329
   95SAPS   C22 9368   4.865   3.325   6.990  0.2411 -0.0451  0.4203
   95SAPS   H2R 9369   4.907   3.233   7.037  0.2059 -0.1253  0.2941
   95SAPS   H2S 9370   4.939   3.407   6.999  0.2200 -0.0517  0.6575
   95SAPS    C3 9371   4.888   3.086   6.599 -0.0222 -0.7411  0.2712
   95SAPS    HX 9372   4.966   3.014   6.632  1.5650  0.4495 -0.7298
   95SAPS    HY 9373   4.904   3.077   6.490 -0.4035 -0.9511  0.2317
   95SAPS   O31 9374   4.754   3.042   6.631  0.5058  0.5922 -0.0379
   95SAPS   C31 9375   4.720   3.009   6.751 -0.7614 -0.1938 -0.6583
   95SAPS   O32 9376   4.799   2.963   6.833  0.4011  0.0881  0.0402
   95SAPS   C32 9377   4.561   3.015   6.768 -0.4926 -0.1081 -0.0563
   95SAPS   H2X 9378   4.519   2.926   6.718  0.2897  0.1245 -1.1752
   95SAPS   H2Y 9379   4.530   3.106   6.711 -2.0366 -0.5468  0.0453
   95SAPS   C23 9380   4.739   3.371   7.063 -0.3192 -0.2672 -0.6578
   95SAPS   H3R 9381   4.662   3.300   7.027  0.9813 -1.5000 -1.1172
   95SAPS   H3S 9382   4.705   3.474   7.041  0.7004  0.5414  1.3191
   95SAPS   C24 9383   4.755   3.370   7.216  0.9778 -0.1959 -0.7278
   95SAPS   H4R 9384   4.810   3.458   7.254  0.1729 -0.8249  2.0962
   95SAPS   H4S 9385   4.809   3.275   7.237 -0.7093 -1.2930 -1.0718
   95SAPS   C25 9386   4.615   3.374   7.276  0.5103  0.2376 -0.0118
   95SAPS   H5R 9387   4.538   3.427   7.217  0.6279 -0.5639 -0.9070
   95SAPS   C26 9388   4.579   3.340   7.405  0.6311 -0.0850  0.1666
   95SAPS   H6R 9389   4.471   3.344   7.424  0.6350 -0.4651  0.2845
   95SAPS   C27 9390   4.667   3.296   7.517 -0.4012 -0.4253  0.0015
   95SAPS   H7R 9391   4.770   3.323   7.485 -0.2225 -0.2237  0.7103
   95SAPS   H7S 9392   4.675   3.186   7.523  0.0976 -0.3256  2.8728
   95SAPS   C28 9393   4.629   3.348   7.656  0.1411  0.7193 -0.1742
   95SAPS   H8R 9394   4.589   3.275   7.728  0.4598  0.8704  0.1574
   95SAPS   C29 9395   4.640   3.471   7.706  0.3578 -0.3390  0.6812
   95SAPS   H9R 9396   4.611   3.497   7.809  1.9533  0.5619  0.9416
   95SAPS  C210 9397   4.702   3.589   7.640 -0.2046  0.1517  0.0743
   95SAPS  H10R 9398   4.720   3.569   7.532 -2.9724 -0.5200 -0.3502
   95SAPS  H10S 9399   4.803   3.611   7.681  0.2546  1.6482 -1.6920
   95SAPS  C211 9400   4.615   3.711   7.646  1.1823  0.1846  0.4529
   95SAPS  H11R 9401   4.616   3.768   7.740  0.2655  0.4537  0.3103
   95SAPS  C212 9402   4.524   3.755   7.556  0.1048  0.2044  0.7558
   95SAPS  H12R 9403   4.468   3.849   7.567 -1.5920 -0.8672  1.8864
   95SAPS  C213 9404   4.488   3.701   7.415  0.2336  0.4224  0.0058
   95SAPS  H13R 9405   4.387   3.725   7.375 -0.8910 -3.7247 -0.1449
   95SAPS  H13S 9406   4.484   3.591   7.430  0.1924  0.5335  0.8282
   95SAPS  C214 9407   4.589   3.741   7.305  0.2681 -0.2282 -0.5734
   95SAPS  H14R 9408   4.609   3.657   7.237  1.7153  0.6346 -1.2618
   95SAPS  C215 9409   4.643   3.864   7.268  0.2950 -0.7964 -0.2486
   95SAPS  H15R 9410   4.708   3.867   7.179  1.2051 -0.1443  0.4241
   95SAPS  C216 9411   4.625   3.996   7.331  0.0599 -0.6419 -0.3165
   95SAPS  H16R 9412   4.565   3.983   7.423 -0.7773  0.4705 -0.6807
   95SAPS  H16S 9413   4.559   4.044   7.256 -0.8752 -0.9396  0.3073
   95SAPS  C217 9414   4.757   4.075   7.370  0.3158 -0.2242 -0.1207
   95SAPS  H17R 9415   4.729   4.182   7.381  2.1312  0.4874 -1.7856
   95SAPS  H17S 9416   4.835   4.068   7.291 -0.7387  1.0592 -1.3408
   95SAPS  C218 9417   4.823   4.023   7.499 -0.2166 -0.5908  0.5567
   95SAPS  H18R 9418   4.933   4.037   7.496 -0.3040  0.1066  0.4137
   95SAPS  H18S 9419   4.809   3.913   7.503 -0.8607 -0.5587 -0.4806
   95SAPS  C219 9420   4.766   4.083   7.625 -0.3402  0.3108 -0.2593
   95SAPS  H19R 9421   4.656   4.071   7.623 -0.3101 -0.0311 -0.0179
   95SAPS  H19S 9422   4.797   4.189   7.641  0.7923  0.1547 -1.2324
   95SAPS  C220 9423   4.815   4.006   7.741 -0.3070 -0.1390 -0.3659
   95SAPS  H20R 9424   4.921   4.023   7.768 -0.2709  0.0636 -0.6262
   95SAPS  H20S 9425   4.808   3.902   7.703 -3.9896 -0.1543 -0.0237
   95SAPS  H20T 9426   4.749   4.015   7.830  0.8681  1.4395  0.3927
   95SAPS   C33 9427   4.499   3.027   6.908  0.0259 -0.0597  0.1202
   95SAPS   H3X 9428   4.388   3.027   6.903 -0.0640 -1.5441  1.3961
   95SAPS   H3Y 9429   4.522   3.127   6.950  2.0428  0.3444 -1.7666
   95SAPS   C34 9430   4.547   2.923   7.007  0.1515  0.1870  0.1041
   95SAPS   H4X 9431   4.655   2.930   7.031  0.1287 -1.5426  0.8873
   95SAPS   H4Y 9432   4.550   2.824   6.956 -0.1712  0.1007  0.2484
   95SAPS   C35 9433   4.457   2.897   7.130  1.0181  0.6663 -0.0719
   95SAPS   H5X 9434   4.354   2.877   7.093  0.9374  1.9341 -0.5915
   95SAPS   H5Y 9435   4.450   2.989   7.193 -0.7350 -0.4889  1.5259
   95SAPS   C36 9436   4.507   2.783   7.220  0.0980  0.4972  0.1524
   95SAPS   H6X 9437   4.618   2.792   7.211 -0.1130  2.2209 -0.9512
   95SAPS   H6Y 9438   4.485   2.685   7.171  0.2201  0.3599  0.3684
   95SAPS   C37 9439   4.456   2.790   7.369  0.7608  0.0804 -0.1155
   95SAPS   H7X 9440   4.348   2.767   7.372  0.1940  2.5278  0.3166
   95SAPS   H7Y 9441   4.462   2.890   7.417 -0.5676  0.0896  0.0527
   95SAPS   C38 9442   4.532   2.693   7.465 -0.3384 -0.4777 -0.9377
   95SAPS   H8X 9443   4.640   2.713   7.449 -0.6549  1.8406 -0.4617
   95SAPS   H8Y 9444   4.501   2.588   7.446  1.7764 -1.5940  1.2352
   95SAPS   C39 9445   4.506   2.729   7.620  0.7200  0.2243 -0.0960
   95SAPS   H9X 9446   4.395   2.739   7.630  0.8273  0.1144  1.3641
   95SAPS   H9Y 9447   4.559   2.827   7.624 -1.7300  1.8522 -2.9453
   95SAPS  C310 9448   4.560   2.626   7.723 -0.3266 -0.5853 -0.4525
   95SAPS  H10X 9449   4.532   2.662   7.824 -2.8576 -1.9219 -0.6164
   95SAPS  H10Y 9450   4.670   2.612   7.713 -0.2870 -1.0337  0.5696
   95SAPS  C311 9451   4.493   2.489   7.705  0.4543  0.0256 -0.1631
   95SAPS  H11X 9452   4.524   2.447   7.607  1.5890  1.7391 -0.5847
   95SAPS  H11Y 9453   4.383   2.501   7.714  0.0753 -2.1727 -1.1143
   95SAPS  C312 9454   4.544   2.391   7.816 -0.4267  0.1801  0.2919
   95SAPS  H12X 9455   4.654   2.409   7.816 -0.4158  0.3795 -1.8298
   95SAPS  H12Y 9456   4.524   2.285   7.788  0.0801 -0.4184  2.0506
   95SAPS  C313 9457   4.481   2.420   7.956  0.1074 -1.1572  0.4842
   95SAPS  H13X 9458   4.378   2.382   7.967 -1.5542  2.1848 -1.8022
   95SAPS  H13Y 9459   4.476   2.531   7.953  1.4864 -1.0909 -1.1906
   95SAPS  C314 9460   4.562   2.368   8.077 -1.2360 -0.3180  0.4363
   95SAPS  H14X 9461   4.670   2.367   8.049 -1.0080 -0.6177  1.3007
   95SAPS  H14Y 9462   4.538   2.260   8.084  1.1042 -1.1568 -2.3016
   95SAPS  C315 9463   4.522   2.442   8.205 -0.2051 -0.5724  0.4203
   95SAPS  H15X 9464   4.413   2.459   8.206  0.1959  3.2849 -1.3781
   95SAPS  H15Y 9465   4.573   2.540   8.219 -0.4161  0.0206 -2.3905
   95SAPS  C316 9466   4.569   2.358   8.322 -0.3030  0.2126 -0.3286
   95SAPS  H16X 9467   4.534   2.253   8.314  0.9207 -0.3312  0.9905
   95SAPS  H16Y 9468   4.517   2.406   8.408 -1.5121 -0.7551 -0.4805
   95SAPS  C317 9469   4.721   2.350   8.333 -0.1873 -0.6986 -0.2948
   95SAPS  H17X 9470   4.760   2.295   8.244  0.1005 -3.0159  1.1823
   95SAPS  H17Y 9471   4.751   2.283   8.417  1.8189  0.6168  0.0914
   95SAPS  C318 9472   4.799   2.473   8.366  0.0310 -0.6899 -0.2010
   95SAPS  H18X 9473   4.906   2.460   8.339  0.3075  1.0599 -0.0551
   95SAPS  H18Y 9474   4.795   2.495   8.475  0.9423  2.7668 -0.7544
   95SAPS  H18Z 9475   4.755   2.564   8.320  2.0089  0.0371 -0.7524
   96SAPS     N 9476   4.004   4.568   6.187 -0.3954 -0.2350  0.0492
   96SAPS   HN1 9477   3.974   4.668   6.184 -0.0745 -0.1017  0.9617
   96SAPS   HN2 9478   3.976   4.534   6.281 -0.7809 -2.4307 -0.8124
   96SAPS   HN3 9479   4.106   4.560   6.169 -0.2137 -0.5532  1.1977
   96SAPS   C12 9480   3.926   4.479   6.085 -0.0832 -0.3483 -1.2155
   96SAPS  H12A 9481   3.824   4.510   6.101  0.4001  0.3697  0.6968
   96SAPS   C13 9482   3.963   4.495   5.940 -0.2044  0.6268  0.6628
   96SAPS  O13A 9483   4.054   4.580   5.913 -0.2384  0.2270  0.3135
   96SAPS  O13B 9484   3.896   4.440   5.848  0.1162 -0.2918 -0.1497
   96SAPS   C11 9485   3.950   4.332   6.126 -0.7499  0.2092  0.2021
   96SAPS  H11A 9486   4.057   4.310   6.106 -1.0194 -1.3832  0.3781
   96SAPS  H11B 9487   3.900   4.259   6.058  1.9615 -1.3507 -0.2461
   96SAPS     P 9488   3.777   4.242   6.287 -0.1814  0.0152 -0.1609
   96SAPS   O13 9489   3.680   4.305   6.200 -0.2417 -0.3580 -0.0062
   96SAPS   O14 9490   3.794   4.098   6.276  0.2837  0.1148 -0.0404
   96SAPS   O12 9491   3.918   4.314   6.266  0.0557  1.1417  0.4217
   96SAPS   O11 9492   3.759   4.279   6.433  0.2390  0.6857 -0.9575
   96SAPS    C1 9493   3.845   4.220   6.540 -0.5950 -0.0224 -0.1180
   96SAPS    HA 9494   3.942   4.187   6.497  0.2575  2.5433 -0.3069
   96SAPS    HB 9495   3.865   4.288   6.625  0.9938 -1.9982  1.1724
   96SAPS    C2 9496   3.786   4.092   6.604  0.5933 -0.2275 -0.3283
   96SAPS    HS 9497   3.770   4.021   6.520 -1.9165  0.4991 -0.5628
   96SAPS   O21 9498   3.657   4.123   6.669 -0.7642 -0.4748 -0.1209
   96SAPS   C21 9499   3.566   4.030   6.678 -0.6082  0.4318  0.2143
   96SAPS   O22 9500   3.561   3.942   6.597  0.3987  0.1627  0.3371
   96SAPS   C22 9501   3.467   4.057   6.787 -0.4580  0.1734 -0.1793
   96SAPS   H2R 9502   3.530   4.084   6.875  0.9530  0.6903 -1.3121
   96SAPS   H2S 9503   3.415   4.147   6.748  2.0711  1.9213  0.2367
   96SAPS    C3 9504   3.888   4.033   6.699 -0.6906 -0.1588 -0.4545
   96SAPS    HX 9505   3.982   4.019   6.642  0.0057  0.7969  0.4148
   96SAPS    HY 9506   3.852   3.932   6.729  1.6792 -0.8879  0.1814
   96SAPS   O31 9507   3.921   4.129   6.810 -0.0593  0.4511  0.3267
   96SAPS   C31 9508   4.030   4.069   6.871  0.7427 -0.7226 -0.0379
   96SAPS   O32 9509   4.080   3.962   6.838  0.2841 -0.0155 -0.1854
   96SAPS   C32 9510   4.086   4.161   6.981 -0.1828 -0.1056  0.3886
   96SAPS   H2X 9511   4.041   4.259   6.954 -1.1334 -0.9208 -1.1307
   96SAPS   H2Y 9512   4.195   4.177   6.964 -0.1729  0.3129  0.8071
   96SAPS   C23 9513   3.369   3.946   6.817 -0.1963  0.1005  0.9946
   96SAPS   H3R 9514   3.424   3.865   6.869  0.5312 -0.2367 -0.2835
   96SAPS   H3S 9515   3.320   3.905   6.727 -0.7908  1.8187  0.4879
   96SAPS   C24 9516   3.263   4.002   6.914 -0.0585  0.1037 -0.2595
   96SAPS   H4R 9517   3.190   4.070   6.866  0.8414  1.3403  0.0812
   96SAPS   H4S 9518   3.319   4.043   7.002 -1.3183 -0.4024  0.8125
   96SAPS   C25 9519   3.178   3.886   6.969 -0.8120  0.1598 -0.0782
   96SAPS   H5R 9520   3.112   3.842   6.893 -0.1454 -0.4530 -0.3209
   96SAPS   C26 9521   3.180   3.830   7.088 -0.2836  0.2233  0.3300
   96SAPS   H6R 9522   3.111   3.745   7.102 -1.3681  0.3460 -3.1573
   96SAPS   C27 9523   3.267   3.872   7.200  0.3101 -0.0659  0.3368
   96SAPS   H7R 9524   3.209   3.928   7.277  1.2002  1.1890  0.1176
   96SAPS   H7S 9525   3.347   3.940   7.165 -0.6294  2.0726  2.0713
   96SAPS   C28 9526   3.330   3.754   7.264 -0.8855  0.6983  0.4315
   96SAPS   H8R 9527   3.406   3.706   7.201 -0.7516  1.1409  0.2486
   96SAPS   C29 9528   3.316   3.694   7.381 -0.6871 -0.8684  0.4216
   96SAPS   H9R 9529   3.372   3.601   7.397  0.6842 -0.9863 -3.8159
   96SAPS  C210 9530   3.213   3.738   7.486 -0.3980  0.6235  0.2652
   96SAPS  H10R 9531   3.158   3.651   7.530  0.2048 -0.1015 -0.3847
   96SAPS  H10S 9532   3.137   3.804   7.440 -2.4668 -2.1291 -0.5656
   96SAPS  C211 9533   3.281   3.809   7.601 -0.9845 -0.1182 -0.6666
   96SAPS  H11R 9534   3.352   3.887   7.571  0.0447  1.1054  4.1685
   96SAPS  C212 9535   3.278   3.793   7.736  0.1803  0.3961 -0.5378
   96SAPS  H12R 9536   3.321   3.869   7.803 -0.2018  0.6979 -0.6321
   96SAPS  C213 9537   3.191   3.689   7.809 -0.2933 -0.0631  0.5190
   96SAPS  H13R 9538   3.263   3.614   7.848 -0.5430 -0.4804  0.1775
   96SAPS  H13S 9539   3.124   3.646   7.731  1.7916 -0.6362 -1.0622
   96SAPS  C214 9540   3.109   3.745   7.918 -0.0452 -0.6543  0.0759
   96SAPS  H14R 9541   3.015   3.796   7.892  1.3563  1.6169 -0.8846
   96SAPS  C215 9542   3.133   3.731   8.055 -0.9040  0.1077 -0.2018
   96SAPS  H15R 9543   3.073   3.787   8.128  0.7423 -0.5770  1.7745
   96SAPS  C216 9544   3.238   3.652   8.123  0.0846  0.3191  0.7368
   96SAPS  H16R 9545   3.247   3.682   8.230  0.8042 -0.1145  0.8102
   96SAPS  H16S 9546   3.334   3.667   8.069 -1.1065  1.1123 -1.2587
   96SAPS  C217 9547   3.203   3.500   8.130 -0.0179 -1.2833 -0.3490
   96SAPS  H17R 9548   3.295   3.437   8.130 -0.4249 -1.8898 -0.7335
   96SAPS  H17S 9549   3.136   3.469   8.047  1.1499 -1.9307 -1.0768
   96SAPS  C218 9550   3.133   3.471   8.264  0.5285  0.0702  0.0203
   96SAPS  H18R 9551   3.063   3.387   8.246 -0.9176  1.4316 -0.9880
   96SAPS  H18S 9552   3.084   3.563   8.300  0.4234 -0.1067  0.3257
   96SAPS  C219 9553   3.241   3.439   8.373 -0.1476 -0.4592  0.1988
   96SAPS  H19R 9554   3.288   3.536   8.399  0.5758 -0.5226 -0.8262
   96SAPS  H19S 9555   3.322   3.376   8.331 -0.4538  0.2590 -1.5471
   96SAPS  C220 9556   3.173   3.382   8.503  0.3223 -0.7849 -0.1756
   96SAPS  H20R 9557   3.098   3.455   8.542  0.2904  0.0574 -1.7025
   96SAPS  H20S 9558   3.257   3.369   8.573  0.7114 -1.5215 -0.7674
   96SAPS  H20T 9559   3.118   3.288   8.481 -2.2031  1.0727 -2.6858
   96SAPS   C33 9560   4.044   4.102   7.120 -0.1899 -0.2539 -0.1935
   96SAPS   H3X 9561   3.953   4.039   7.132  1.4303 -2.4041  1.8406
   96SAPS   H3Y 9562   4.041   4.193   7.184  2.1167 -0.5073  0.3556
   96SAPS   C34 9563   4.162   4.029   7.186  0.2006 -0.8129  0.4745
   96SAPS   H4X 9564   4.256   4.085   7.169 -0.5525  0.3184 -0.1489
   96SAPS   H4Y 9565   4.174   3.940   7.122  0.4437 -0.4845  0.0557
   96SAPS   C35 9566   4.135   3.970   7.329 -0.9517 -0.5043  0.0749
   96SAPS   H5X 9567   4.226   3.916   7.362 -0.5966 -1.5149 -2.4015
   96SAPS   H5Y 9568   4.055   3.894   7.336 -2.1426  0.4812 -1.9404
   96SAPS   C36 9569   4.102   4.094   7.426  0.1366 -1.0493 -0.2981
   96SAPS   H6X 9570   4.006   4.143   7.397  0.2594  1.0367  2.3647
   96SAPS   H6Y 9571   4.181   4.170   7.408 -2.1664  1.6846  0.3686
   96SAPS   C37 9572   4.091   4.058   7.576 -0.2410 -0.6889 -0.2277
   96SAPS   H7X 9573   4.014   3.980   7.591 -1.2338  0.4024  0.5055
   96SAPS   H7Y 9574   4.040   4.140   7.632  1.4514  0.4575 -0.2774
   96SAPS   C38 9575   4.224   4.018   7.640 -0.3602  0.1167  0.1756
   96SAPS   H8X 9576   4.305   4.094   7.626 -2.2364  1.8921 -1.8049
   96SAPS   H8Y 9577   4.254   3.924   7.589  0.3542 -0.0341  0.8493
   96SAPS   C39 9578   4.212   3.978   7.785  0.9746 -0.3390 -0.3701
   96SAPS   H9X 9579   4.152   3.885   7.795  0.7807 -0.1962 -0.1769
   96SAPS   H9Y 9580   4.151   4.055   7.838  0.4884  1.3351 -3.1805
   96SAPS  C310 9581   4.347   3.958   7.859 -0.0947 -0.1838 -0.3283
   96SAPS  H10X 9582   4.400   4.053   7.884  0.9145 -0.3491 -1.7562
   96SAPS  H10Y 9583   4.421   3.892   7.810  0.2283 -0.4823  0.5493
   96SAPS  C311 9584   4.325   3.885   7.990 -0.1271  0.2535 -0.3856
   96SAPS  H11X 9585   4.421   3.884   8.046 -0.4638  1.4131  0.2568
   96SAPS  H11Y 9586   4.295   3.782   7.963 -0.0939 -0.4507  1.9821
   96SAPS  C312 9587   4.226   3.948   8.082  0.2942  0.5507  0.1127
   96SAPS  H12X 9588   4.126   3.932   8.036  0.1634  1.1865  0.1566
   96SAPS  H12Y 9589   4.234   4.059   8.079  2.1634  0.4507  0.4823
   96SAPS  C313 9590   4.226   3.891   8.225  0.2710  0.3622 -0.5266
   96SAPS  H13X 9591   4.130   3.931   8.265 -1.0668 -0.4997 -2.7346
   96SAPS  H13Y 9592   4.312   3.934   8.282 -0.8959 -1.0397  2.4985
   96SAPS  C314 9593   4.232   3.739   8.242 -0.5317  0.6300  0.0367
   96SAPS  H14X 9594   4.337   3.702   8.247 -0.4766  0.8173  0.2752
   96SAPS  H14Y 9595   4.193   3.688   8.151  0.7467 -0.5736  0.1238
   96SAPS  C315 9596   4.163   3.678   8.366  0.3873 -0.4165  0.9086
   96SAPS  H15X 9597   4.151   3.570   8.344  1.8206 -0.5383  0.6166
   96SAPS  H15Y 9598   4.064   3.728   8.372  0.9455  1.9466 -4.1866
   96SAPS  C316 9599   4.238   3.698   8.496  0.3548 -0.4135 -0.5822
   96SAPS  H16X 9600   4.186   3.659   8.586 -1.1772  0.9802 -0.8186
   96SAPS  H16Y 9601   4.261   3.804   8.523  1.6998  0.0011 -3.1069
   96SAPS  C317 9602   4.372   3.625   8.507  0.0744  0.0105 -0.8775
   96SAPS  H17X 9603   4.453   3.639   8.432  0.0261  2.5548 -0.5468
   96SAPS  H17Y 9604   4.339   3.522   8.530  0.6439  0.8242  5.0931
   96SAPS  C318 9605   4.439   3.665   8.637  0.6294 -0.2863 -1.0009
   96SAPS  H18X 9606   4.514   3.588   8.665  0.8658 -0.3589 -1.8179
   96SAPS  H18Y 9607   4.361   3.669   8.717 -0.0092 -0.3812 -1.6095
   96SAPS  H18Z 9608   4.481   3.768   8.631 -1.3328  0.4552 -3.5021
   97SAPS     N 9609   6.514   0.715   6.200 -0.4650 -0.4527  0.0835
   97SAPS   HN1 9610   6.597   0.715   6.261 -0.1985 -0.2991 -0.2759
   97SAPS   HN2 9611   6.558   0.747   6.111  0.8013 -0.8203  0.5606
   97SAPS   HN3 9612   6.452   0.787   6.243  3.6501  2.8374  1.1978
   97SAPS   C12 9613   6.463   0.577   6.181 -0.0595  0.5172 -0.3997
   97SAPS  H12A 9614   6.415   0.578   6.084 -0.8747  1.4700 -0.0041
   97SAPS   C13 9615   6.580   0.467   6.178  0.8429  0.0579  0.3975
   97SAPS  O13A 9616   6.699   0.497   6.208  0.6898 -0.4966 -0.1389
   97SAPS  O13B 9617   6.547   0.345   6.165  0.5491 -0.2507  0.3313
   97SAPS   C11 9618   6.357   0.538   6.286 -1.0455 -0.0574 -0.9307
   97SAPS  H11A 9619   6.395   0.539   6.390 -2.2595  2.4007 -0.4380
   97SAPS  H11B 9620   6.321   0.435   6.265 -1.4441  0.3145 -2.1932
   97SAPS     P 9621   6.126   0.618   6.385  0.0611 -0.4702 -0.0065
   97SAPS   O13 9622   6.029   0.723   6.342  0.1545 -0.0710  0.5345
   97SAPS   O14 9623   6.084   0.480   6.390  0.4145  0.1929 -0.0694
   97SAPS   O12 9624   6.242   0.625   6.278  0.0352 -0.5004  0.1694
   97SAPS   O11 9625   6.189   0.658   6.526 -0.1812  0.7246  0.2870
   97SAPS    C1 9626   6.253   0.776   6.553  0.2524  0.0868 -0.4325
   97SAPS    HA 9627   6.287   0.832   6.464  0.1098  1.1210  0.1402
   97SAPS    HB 9628   6.186   0.850   6.604  0.8505 -0.2341  0.8720
   97SAPS    C2 9629   6.363   0.769   6.654 -0.4592  0.3268  0.2300
   97SAPS    HS 9630   6.430   0.688   6.618 -0.3438  1.0625 -1.2814
   97SAPS   O21 9631   6.313   0.742   6.786  0.0850  0.2984  0.2895
   97SAPS   C21 9632   6.395   0.655   6.854  1.0906 -0.8974  0.2415
   97SAPS   O22 9633   6.499   0.614   6.816 -0.3415 -0.1666 -0.3656
   97SAPS   C22 9634   6.333   0.647   6.997 -0.4826 -0.2333  0.0193
   97SAPS   H2R 9635   6.358   0.745   7.042 -1.1337  0.9126 -1.9829
   97SAPS   H2S 9636   6.222   0.636   6.995 -0.6043  0.9822 -1.5616
   97SAPS    C3 9637   6.445   0.904   6.655 -0.6863 -0.1897  0.6138
   97SAPS    HX 9638   6.385   0.996   6.676 -1.2469 -0.8204  1.8900
   97SAPS    HY 9639   6.475   0.919   6.549  0.1223 -1.6266  0.6176
   97SAPS   O31 9640   6.571   0.897   6.717  0.4267  0.0769  0.1480
   97SAPS   C31 9641   6.571   0.935   6.838 -0.2958  0.0762 -0.5766
   97SAPS   O32 9642   6.480   0.974   6.913  0.4151  1.0223 -0.1687
   97SAPS   C32 9643   6.717   0.934   6.876 -1.0051 -0.1889  0.1765
   97SAPS   H2X 9644   6.759   1.032   6.844 -1.5064 -0.6883 -2.1474
   97SAPS   H2Y 9645   6.773   0.856   6.821 -0.6651  1.2357 -1.5980
   97SAPS   C23 9646   6.403   0.535   7.078  0.5982  0.0927 -0.5222
   97SAPS   H3R 9647   6.513   0.546   7.068  0.4822  0.3772 -1.5554
   97SAPS   H3S 9648   6.362   0.444   7.029 -0.8881  0.1913  0.4771
   97SAPS   C24 9649   6.356   0.529   7.229  0.8708 -0.4261  0.3781
   97SAPS   H4R 9650   6.389   0.428   7.262 -0.8387 -0.3148  2.6437
   97SAPS   H4S 9651   6.245   0.519   7.233  0.6903  0.3320 -1.5721
   97SAPS   C25 9652   6.412   0.638   7.318  0.4588  0.2278  0.0354
   97SAPS   H5R 9653   6.358   0.729   7.290  0.6102 -0.1284 -1.5241
   97SAPS   C26 9654   6.490   0.616   7.428  0.2936 -0.0071 -0.3758
   97SAPS   H6R 9655   6.518   0.709   7.477  3.4447 -0.9983 -0.1012
   97SAPS   C27 9656   6.554   0.497   7.483 -0.1284  0.0157  0.1251
   97SAPS   H7R 9657   6.657   0.534   7.501  0.0674  0.1072 -1.1046
   97SAPS   H7S 9658   6.554   0.424   7.400 -1.5660  0.5173 -0.3408
   97SAPS   C28 9659   6.494   0.429   7.607  0.0748 -0.5066 -0.1433
   97SAPS   H8R 9660   6.503   0.320   7.602  0.5526 -0.7766  3.7843
   97SAPS   C29 9661   6.456   0.482   7.729  0.4512 -0.4636  0.5976
   97SAPS   H9R 9662   6.405   0.428   7.810 -0.1731  1.4564  1.5518
   97SAPS  C210 9663   6.461   0.630   7.760  0.0984 -0.1545  0.3724
   97SAPS  H10R 9664   6.381   0.690   7.711  1.2734 -0.0617 -1.5202
   97SAPS  H10S 9665   6.549   0.671   7.707 -0.5686 -1.7474 -2.1249
   97SAPS  C211 9666   6.476   0.660   7.909 -0.4738 -0.5450 -0.6054
   97SAPS  H11R 9667   6.484   0.582   7.987 -2.4982  0.0996  0.3407
   97SAPS  C212 9668   6.483   0.787   7.959  0.0681 -0.7037  0.1150
   97SAPS  H12R 9669   6.491   0.810   8.067 -0.0238  1.2545 -0.2562
   97SAPS  C213 9670   6.480   0.919   7.894  0.9638 -0.6549  0.1622
   97SAPS  H13R 9671   6.423   0.900   7.800  0.4904  2.5341 -0.3418
   97SAPS  H13S 9672   6.576   0.963   7.859 -0.7656  2.1977 -1.4570
   97SAPS  C214 9673   6.397   1.010   7.981  0.0107 -0.3844  0.6806
   97SAPS  H14R 9674   6.288   0.996   7.990 -0.3778  1.9019  0.3310
   97SAPS  C215 9675   6.452   1.107   8.057  0.4329  0.4309  0.3306
   97SAPS  H15R 9676   6.385   1.181   8.102  1.2643  0.9800  0.6781
   97SAPS  C216 9677   6.592   1.140   8.070 -0.6063  0.4449 -0.3714
   97SAPS  H16R 9678   6.646   1.043   8.065  2.5349  2.1389 -2.3396
   97SAPS  H16S 9679   6.629   1.165   8.172 -0.3249  3.6460 -1.1570
   97SAPS  C217 9680   6.650   1.236   7.968  0.4257 -0.0857  0.5738
   97SAPS  H17R 9681   6.641   1.207   7.861 -0.0193 -0.5553  0.7352
   97SAPS  H17S 9682   6.759   1.231   7.990  0.6932 -0.5754 -0.8040
   97SAPS  C218 9683   6.617   1.388   7.989  0.5598 -0.0017 -0.0499
   97SAPS  H18R 9684   6.633   1.425   8.092  1.2034  1.0172 -0.4985
   97SAPS  H18S 9685   6.519   1.418   7.946  0.5470  1.3723  0.9056
   97SAPS  C219 9686   6.701   1.478   7.896  0.5331 -0.3177  0.1878
   97SAPS  H19R 9687   6.731   1.415   7.809  0.9264 -0.9870  0.7919
   97SAPS  H19S 9688   6.790   1.515   7.952 -0.0742  1.7629 -0.1733
   97SAPS  C220 9689   6.631   1.610   7.857 -0.0265  0.1635  0.0773
   97SAPS  H20R 9690   6.606   1.656   7.955 -0.3179  2.7714 -1.1338
   97SAPS  H20S 9691   6.532   1.587   7.813 -2.6328  0.7608  4.8951
   97SAPS  H20T 9692   6.689   1.679   7.793  0.9812 -0.6563  0.0648
   97SAPS   C33 9693   6.740   0.916   7.029  0.0085 -0.1916 -0.0463
   97SAPS   H3X 9694   6.700   0.815   7.054 -0.3028  0.1729  0.9653
   97SAPS   H3Y 9695   6.680   0.992   7.082 -0.5112 -0.2201 -0.5831
   97SAPS   C34 9696   6.891   0.928   7.066 -0.1662 -0.1810  0.1019
   97SAPS   H4X 9697   6.927   1.032   7.046 -2.0827  0.4406 -0.3437
   97SAPS   H4Y 9698   6.959   0.870   7.000 -1.6884 -0.4121 -1.3372
   97SAPS   C35 9699   6.921   0.901   7.217  0.7113 -0.6406 -0.6080
   97SAPS   H5X 9700   6.863   0.965   7.286 -0.8123  0.3892 -2.7484
   97SAPS   H5Y 9701   7.024   0.937   7.238  0.4648  0.6234 -1.4780
   97SAPS   C36 9702   6.907   0.755   7.240 -0.6306  0.0288 -2.1218
   97SAPS   H6X 9703   6.977   0.704   7.171  1.0200  0.4484 -0.8146
   97SAPS   H6Y 9704   6.799   0.731   7.229 -1.2750  1.1784  0.6233
   97SAPS   C37 9705   6.948   0.717   7.388  0.0614 -1.2130 -0.8000
   97SAPS   H7X 9706   7.051   0.755   7.406 -1.6454  2.4301  2.9807
   97SAPS   H7Y 9707   6.956   0.609   7.412 -1.4995 -1.1066  0.3942
   97SAPS   C38 9708   6.845   0.770   7.488  0.2420 -0.6892 -0.8878
   97SAPS   H8X 9709   6.753   0.721   7.450 -0.2412 -0.1449 -0.4268
   97SAPS   H8Y 9710   6.835   0.880   7.476  1.9249 -0.3171  0.6933
   97SAPS   C39 9711   6.855   0.712   7.633 -0.0295  0.1111 -0.5719
   97SAPS   H9X 9712   6.845   0.601   7.637  1.1815 -0.0225 -0.8616
   97SAPS   H9Y 9713   6.767   0.739   7.695  0.0897  0.3734 -0.5148
   97SAPS  C310 9714   6.982   0.760   7.713 -0.0948 -0.3884 -0.3423
   97SAPS  H10X 9715   6.990   0.866   7.683 -0.3779 -0.5676 -1.0744
   97SAPS  H10Y 9716   7.068   0.703   7.671  0.1460 -0.3586  0.1051
   97SAPS  C311 9717   6.968   0.755   7.868 -0.4639  0.6819  0.2734
   97SAPS  H11X 9718   6.882   0.823   7.888 -1.2909 -0.5225  0.9514
   97SAPS  H11Y 9719   7.058   0.805   7.909  0.8983  0.5645 -2.3585
   97SAPS  C312 9720   6.952   0.609   7.916 -0.1136 -0.1465  0.0058
   97SAPS  H12X 9721   7.013   0.546   7.849  0.1773  0.1668 -0.0267
   97SAPS  H12Y 9722   6.844   0.587   7.904 -0.0802  0.5465 -1.8015
   97SAPS  C313 9723   7.003   0.595   8.067  0.7415  0.3878  0.2204
   97SAPS  H13X 9724   6.947   0.656   8.140  2.1150  0.3871  1.3182
   97SAPS  H13Y 9725   7.106   0.635   8.077  1.1023 -0.0444 -1.3551
   97SAPS  C314 9726   7.021   0.451   8.117  0.0585  0.0748  0.8918
   97SAPS  H14X 9727   6.929   0.390   8.105 -0.3571  0.8926 -0.2376
   97SAPS  H14Y 9728   7.042   0.469   8.225  0.3788  0.5796  0.7459
   97SAPS  C315 9729   7.131   0.366   8.050  0.1583 -0.2756 -0.5446
   97SAPS  H15X 9730   7.230   0.416   8.058  0.7950 -1.3890 -1.2859
   97SAPS  H15Y 9731   7.106   0.356   7.942 -0.7774  1.0494 -0.4698
   97SAPS  C316 9732   7.147   0.236   8.126  0.1848  0.0580  0.2558
   97SAPS  H16X 9733   7.071   0.160   8.100  1.7126 -0.7731 -2.1227
   97SAPS  H16Y 9734   7.142   0.259   8.235  1.9866 -1.7103  0.7804
   97SAPS  C317 9735   7.279   0.165   8.091 -0.0236  0.7311  0.0839
   97SAPS  H17X 9736   7.292   0.187   7.983  0.1862  2.0380  0.3657
   97SAPS  H17Y 9737   7.275   0.054   8.100  2.5265  0.5405 -0.4768
   97SAPS  C318 9738   7.387   0.222   8.178 -0.1929 -0.1267  0.2050
   97SAPS  H18X 9739   7.482   0.186   8.131 -0.4117 -1.0433  0.4332
   97SAPS  H18Y 9740   7.380   0.182   8.281  0.4245  0.9856  0.6922
   97SAPS  H18Z 9741   7.371   0.331   8.181  3.1025  0.4568  0.5595
   98SAPS     N 9742   5.619   2.225   6.110 -0.0456  0.5408 -0.0581
   98SAPS   HN1 9743   5.561   2.171   6.178 -2.2558  1.2019 -1.2974
   98SAPS   HN2 9744   5.711   2.182   6.091 -0.5130 -0.8651  0.7204
   98SAPS   HN3 9745   5.638   2.321   6.147 -0.1191  0.0915  1.2083
   98SAPS   C12 9746   5.533   2.234   5.980  0.7037 -0.0428  0.0247
   98SAPS  H12A 9747   5.518   2.337   5.952  0.4855  0.1976  0.9844
   98SAPS   C13 9748   5.613   2.183   5.860  0.2760  0.1425  0.3728
   98SAPS  O13A 9749   5.725   2.124   5.878  0.2381 -0.0136 -0.1770
   98SAPS  O13B 9750   5.568   2.206   5.744  0.0938 -0.1006 -0.1451
   98SAPS   C11 9751   5.393   2.161   6.004 -0.1632 -0.5446  0.4864
   98SAPS  H11A 9752   5.405   2.059   6.046 -0.0362 -0.6802  0.1225
   98SAPS  H11B 9753   5.342   2.154   5.905  2.4451 -1.6271 -0.8685
   98SAPS     P 9754   5.170   2.192   6.121 -0.5912 -0.0516 -0.5415
   98SAPS   O13 9755   5.090   2.214   5.999 -0.4053  0.2845 -0.1371
   98SAPS   O14 9756   5.178   2.055   6.179  1.2333 -0.1759 -0.1923
   98SAPS   O12 9757   5.321   2.244   6.093  0.6583  0.1802  0.5966
   98SAPS   O11 9758   5.115   2.288   6.234  0.1128 -0.5341  0.3028
   98SAPS    C1 9759   5.215   2.361   6.312 -0.6765  0.3982 -0.2290
   98SAPS    HA 9760   5.307   2.300   6.327  0.3880  1.5550 -1.7110
   98SAPS    HB 9761   5.253   2.442   6.246 -0.4329 -2.6660 -4.2764
   98SAPS    C2 9762   5.172   2.423   6.449 -0.1079 -0.5507 -0.2288
   98SAPS    HS 9763   5.256   2.475   6.499 -0.5562 -0.3318  0.3022
   98SAPS   O21 9764   5.125   2.325   6.536 -0.7862  0.8556 -0.0411
   98SAPS   C21 9765   5.217   2.236   6.587  0.1407  0.3541 -0.8778
   98SAPS   O22 9766   5.338   2.244   6.570  0.7806 -0.0233 -0.3713
   98SAPS   C22 9767   5.139   2.123   6.659  0.1267 -0.6376  0.2215
   98SAPS   H2R 9768   5.038   2.158   6.690 -0.0491 -0.2499 -0.7600
   98SAPS   H2S 9769   5.129   2.048   6.578  0.8386 -0.0791 -0.3923
   98SAPS    C3 9770   5.061   2.530   6.414  0.0752 -0.4655 -0.0973
   98SAPS    HX 9771   4.992   2.472   6.349 -0.0300 -0.4052 -0.0394
   98SAPS    HY 9772   5.106   2.612   6.354  1.9109  0.2721  2.1628
   98SAPS   O31 9773   5.002   2.596   6.528  0.0195 -0.3884  0.2999
   98SAPS   C31 9774   4.880   2.556   6.560 -0.1969 -0.1311 -0.1051
   98SAPS   O32 9775   4.817   2.464   6.509 -0.2460 -0.1245  0.2497
   98SAPS   C32 9776   4.846   2.640   6.684  0.6107  0.3283 -0.0950
   98SAPS   H2X 9777   4.838   2.744   6.646  3.0894  0.8856  0.7142
   98SAPS   H2Y 9778   4.921   2.647   6.766 -0.7412  1.0809  1.1305
   98SAPS   C23 9779   5.204   2.067   6.783  0.0007 -0.0872  0.5018
   98SAPS   H3R 9780   5.240   2.150   6.847 -3.3036  1.2288  0.8666
   98SAPS   H3S 9781   5.292   2.011   6.744 -0.6157  0.5544 -1.9950
   98SAPS   C24 9782   5.111   1.976   6.853  0.7680 -0.7641 -0.4170
   98SAPS   H4R 9783   5.173   1.902   6.910  1.2846 -0.4280 -0.5365
   98SAPS   H4S 9784   5.050   1.915   6.783  0.7177 -1.4806  0.2310
   98SAPS   C25 9785   5.010   2.055   6.941 -0.5229 -0.4624 -0.2354
   98SAPS   H5R 9786   4.922   2.090   6.886 -0.8526  0.6034  0.9381
   98SAPS   C26 9787   5.002   2.065   7.075 -0.2212 -0.5275 -0.1527
   98SAPS   H6R 9788   4.920   2.125   7.115  0.6446  0.0008  0.8893
   98SAPS   C27 9789   5.105   2.015   7.168 -0.3954 -0.2792 -0.4281
   98SAPS   H7R 9790   5.203   2.011   7.115  1.3236  2.8085  2.2315
   98SAPS   H7S 9791   5.081   1.910   7.195  1.5845 -0.9593 -1.1092
   98SAPS   C28 9792   5.121   2.118   7.281 -0.0515  0.6139  0.0528
   98SAPS   H8R 9793   5.084   2.219   7.261 -0.0981  0.5972  0.0553
   98SAPS   C29 9794   5.176   2.093   7.400 -0.4223  0.9029  0.5569
   98SAPS   H9R 9795   5.177   2.170   7.478  2.2033  0.8167  0.6869
   98SAPS  C210 9796   5.227   1.956   7.433 -0.3195 -0.5418 -0.0514
   98SAPS  H10R 9797   5.312   1.969   7.503  1.0272  0.8579 -1.8323
   98SAPS  H10S 9798   5.270   1.908   7.341  1.7167  1.7992 -0.4289
   98SAPS  C211 9799   5.129   1.873   7.500 -0.0827 -0.0367 -0.7168
   98SAPS  H11R 9800   5.033   1.864   7.448 -0.9012 -0.4856  0.8048
   98SAPS  C212 9801   5.127   1.832   7.629 -0.3941 -0.3158  0.0479
   98SAPS  H12R 9802   5.049   1.759   7.657 -0.0156 -1.4968 -1.7934
   98SAPS  C213 9803   5.236   1.869   7.734 -0.2726  0.3956  0.4035
   98SAPS  H13R 9804   5.199   1.949   7.802 -0.2406 -0.4176  1.3977
   98SAPS  H13S 9805   5.330   1.908   7.689 -1.3792  1.8103 -0.8096
   98SAPS  C214 9806   5.252   1.751   7.824  0.3361  0.3886 -0.4205
   98SAPS  H14R 9807   5.249   1.656   7.769 -1.4335 -0.6479  1.3157
   98SAPS  C215 9808   5.271   1.741   7.959 -0.8110  0.4154 -0.4619
   98SAPS  H15R 9809   5.264   1.643   8.009 -2.4996  1.2669  1.0878
   98SAPS  C216 9810   5.289   1.858   8.056 -0.2629 -0.2029  0.5464
   98SAPS  H16R 9811   5.195   1.872   8.113 -0.9132  1.2238 -0.7848
   98SAPS  H16S 9812   5.298   1.949   7.993 -1.3445 -0.3941  0.0924
   98SAPS  C217 9813   5.424   1.847   8.131  0.2397 -0.0813 -0.2354
   98SAPS  H17R 9814   5.425   1.752   8.189 -1.9956 -0.0267 -0.0144
   98SAPS  H17S 9815   5.421   1.924   8.211 -2.7430 -0.5155  0.1904
   98SAPS  C218 9816   5.544   1.867   8.037 -0.4554 -0.0884  0.1254
   98SAPS  H18R 9817   5.549   1.964   7.984 -1.3021 -0.8872 -1.4954
   98SAPS  H18S 9818   5.528   1.788   7.960  1.2666 -1.1825  0.8253
   98SAPS  C219 9819   5.680   1.844   8.103  0.5516  0.7063  0.3992
   98SAPS  H19R 9820   5.681   1.742   8.148  0.2511 -0.1541 -1.4505
   98SAPS  H19S 9821   5.688   1.919   8.184  1.4629 -0.4664  1.4457
   98SAPS  C220 9822   5.798   1.860   8.007 -0.2011 -0.2681  0.2061
   98SAPS  H20R 9823   5.797   1.968   7.983  0.0689  0.2193  2.1763
   98SAPS  H20S 9824   5.792   1.784   7.926  0.0949 -1.1213  0.9608
   98SAPS  H20T 9825   5.892   1.834   8.061 -1.5456  0.2271  2.9750
   98SAPS   C33 9826   4.708   2.588   6.743 -0.3517  0.4314  0.6182
   98SAPS   H3X 9827   4.641   2.567   6.656  0.7295 -2.2995  0.3346
   98SAPS   H3Y 9828   4.663   2.674   6.797 -0.2750 -0.8700  2.8749
   98SAPS   C34 9829   4.723   2.468   6.833 -0.0080  0.1587 -0.2681
   98SAPS   H4X 9830   4.788   2.491   6.920 -1.0025  0.4634  0.4117
   98SAPS   H4Y 9831   4.775   2.376   6.798  0.4009 -0.4062  1.7114
   98SAPS   C35 9832   4.589   2.431   6.902 -0.1857 -0.2988  0.6890
   98SAPS   H5X 9833   4.528   2.398   6.815  2.9631  1.0966 -2.2927
   98SAPS   H5Y 9834   4.558   2.532   6.937  0.8758 -0.4463  2.1521
   98SAPS   C36 9835   4.597   2.330   7.011 -0.3214 -0.3706  0.1235
   98SAPS   H6X 9836   4.650   2.239   6.977  0.2650 -0.2354  0.6701
   98SAPS   H6Y 9837   4.492   2.313   7.044 -0.7345  1.5793 -0.0138
   98SAPS   C37 9838   4.671   2.378   7.135 -0.2543 -0.0353 -0.5250
   98SAPS   H7X 9839   4.627   2.472   7.175  0.5597  0.3737 -0.5704
   98SAPS   H7Y 9840   4.778   2.399   7.114  0.8168 -1.2070  2.9577
   98SAPS   C38 9841   4.665   2.275   7.246  0.3329  0.2662  0.1272
   98SAPS   H8X 9842   4.704   2.174   7.222 -0.1069 -0.0242  0.6146
   98SAPS   H8Y 9843   4.556   2.277   7.268 -0.1821 -0.1213 -2.1804
   98SAPS   C39 9844   4.754   2.320   7.365 -0.0940  0.1009 -0.0041
   98SAPS   H9X 9845   4.712   2.417   7.398 -0.0530  0.0796  0.1092
   98SAPS   H9Y 9846   4.861   2.345   7.353 -0.0264  0.7593  1.7390
   98SAPS  C310 9847   4.754   2.221   7.479 -0.3023  1.0436 -0.9173
   98SAPS  H10X 9848   4.809   2.130   7.446  0.8558  1.0533  0.8457
   98SAPS  H10Y 9849   4.651   2.188   7.506 -0.2873  1.2663 -0.5852
   98SAPS  C311 9850   4.823   2.254   7.608 -0.6013 -0.0704 -1.6539
   98SAPS  H11X 9851   4.785   2.348   7.654  2.0837  0.3737 -0.1205
   98SAPS  H11Y 9852   4.931   2.258   7.584 -0.1950 -1.0704 -0.1534
   98SAPS  C312 9853   4.808   2.143   7.711 -0.7248  0.3619  0.3446
   98SAPS  H12X 9854   4.844   2.047   7.669 -2.2180  0.0748 -0.3460
   98SAPS  H12Y 9855   4.700   2.133   7.735 -0.2788 -1.6822  1.6795
   98SAPS  C313 9856   4.901   2.168   7.832 -0.5450  0.5816 -0.0849
   98SAPS  H13X 9857   4.878   2.265   7.881  1.1958  0.3151  1.3535
   98SAPS  H13Y 9858   5.004   2.175   7.792 -0.6836  1.7476 -0.2807
   98SAPS  C314 9859   4.882   2.052   7.936 -0.4346 -0.2350  0.4290
   98SAPS  H14X 9860   4.924   1.956   7.900  1.6880  1.7914 -3.1096
   98SAPS  H14Y 9861   4.780   2.038   7.976  0.0910 -0.8011  1.6371
   98SAPS  C315 9862   4.961   2.084   8.059  0.1950  0.0007 -0.6179
   98SAPS  H15X 9863   4.940   2.188   8.088  2.4117 -0.2488  2.3691
   98SAPS  H15Y 9864   5.071   2.081   8.043  0.1553 -0.1676 -0.8574
   98SAPS  C316 9865   4.923   1.983   8.170 -0.5252 -0.3893  0.1499
   98SAPS  H16X 9866   4.956   1.883   8.133 -0.1574  0.2147 -1.1904
   98SAPS  H16Y 9867   4.812   1.975   8.178 -0.6320  0.6912 -0.1130
   98SAPS  C317 9868   4.967   2.020   8.314 -0.2101 -0.0401  0.1949
   98SAPS  H17X 9869   4.966   1.922   8.367  0.2476 -0.8821 -1.2978
   98SAPS  H17Y 9870   4.895   2.093   8.358 -0.9288 -0.7550  0.2315
   98SAPS  C318 9871   5.110   2.082   8.309  0.6649  0.0019 -0.0434
   98SAPS  H18X 9872   5.181   2.031   8.241 -0.4920 -2.6906  0.6141
   98SAPS  H18Y 9873   5.155   2.083   8.411 -1.4536 -0.2820  0.9513
   98SAPS  H18Z 9874   5.099   2.189   8.282 -0.0947  0.3237  1.4303
   99SAPS     N 9875   4.555   5.523   6.166  0.0289 -0.5137  0.5190
   99SAPS   HN1 9876   4.650   5.564   6.156  1.2128 -2.8112  1.7269
   99SAPS   HN2 9877   4.527   5.535   6.265  2.4635  1.0533  1.1060
   99SAPS   HN3 9878   4.559   5.424   6.136  0.6912 -0.8678  1.7071
   99SAPS   C12 9879   4.477   5.596   6.058 -0.0355  0.9178 -0.5591
   99SAPS  H12A 9880   4.558   5.636   5.999  2.4782 -1.1738  1.2402
   99SAPS   C13 9881   4.388   5.514   5.971  0.6461 -0.1077 -0.2268
   99SAPS  O13A 9882   4.333   5.413   6.025 -0.1904  0.5293  0.6150
   99SAPS  O13B 9883   4.343   5.562   5.861  0.1873  0.2454 -0.2796
   99SAPS   C11 9884   4.391   5.703   6.140 -0.2079 -0.2411  0.5794
   99SAPS  H11A 9885   4.313   5.648   6.197  0.4398  0.4854  2.2365
   99SAPS  H11B 9886   4.326   5.767   6.076 -1.2188  0.2021  1.9989
   99SAPS     P 9887   4.557   5.906   6.181  0.1531 -0.0884 -0.3483
   99SAPS   O13 9888   4.656   5.858   6.082 -0.1159 -0.7435 -0.0206
   99SAPS   O14 9889   4.463   6.008   6.143  0.4165  0.3900 -0.1115
   99SAPS   O12 9890   4.474   5.780   6.231  0.5851  0.0333 -0.1804
   99SAPS   O11 9891   4.632   5.950   6.315 -0.1049 -0.2045  0.2072
   99SAPS    C1 9892   4.683   5.847   6.395  0.1423  0.1600  0.0615
   99SAPS    HA 9893   4.713   5.752   6.348 -1.1141 -0.1611 -0.1101
   99SAPS    HB 9894   4.779   5.878   6.444  0.4581  1.5020 -1.3416
   99SAPS    C2 9895   4.588   5.813   6.506  0.6428 -0.4613  0.0395
   99SAPS    HS 9896   4.489   5.786   6.463  0.5421  0.2222 -0.1678
   99SAPS   O21 9897   4.575   5.931   6.579 -0.5380 -0.2407 -0.3148
   99SAPS   C21 9898   4.454   5.963   6.624 -0.2573 -0.8114 -0.4420
   99SAPS   O22 9899   4.357   5.890   6.635  0.5703  0.2423  0.2623
   99SAPS   C22 9900   4.454   6.098   6.680  0.2646  0.3535  0.2176
   99SAPS   H2R 9901   4.395   6.081   6.773  0.3566 -3.5598 -0.2703
   99SAPS   H2S 9902   4.553   6.142   6.707  1.5096 -0.8487 -2.1185
   99SAPS    C3 9903   4.640   5.696   6.596  0.0817  0.0755  0.5839
   99SAPS    HX 9904   4.745   5.718   6.625  0.4102 -0.6339 -0.0453
   99SAPS    HY 9905   4.647   5.600   6.540  0.6978  0.8704 -0.7634
   99SAPS   O31 9906   4.565   5.693   6.720 -0.0523  0.4442  0.9050
   99SAPS   C31 9907   4.474   5.599   6.733  0.0747  0.0595 -0.5969
   99SAPS   O32 9908   4.468   5.498   6.660  0.4189 -0.7532 -0.3440
   99SAPS   C32 9909   4.378   5.630   6.853 -0.1074  0.5336 -0.5194
   99SAPS   H2X 9910   4.299   5.553   6.857  0.8277 -0.4419  3.0905
   99SAPS   H2Y 9911   4.339   5.732   6.837 -2.3231  0.3120  2.6641
   99SAPS   C23 9912   4.381   6.197   6.581  0.7172  0.3671 -0.2128
   99SAPS   H3R 9913   4.284   6.147   6.558  0.0570  1.0623  0.9493
   99SAPS   H3S 9914   4.431   6.213   6.484  2.8748 -0.2969  0.7201
   99SAPS   C24 9915   4.354   6.322   6.660 -0.0530  0.0223  0.1604
   99SAPS   H4R 9916   4.299   6.284   6.749  0.7939 -1.6253  0.0205
   99SAPS   H4S 9917   4.281   6.392   6.614 -0.1426  0.1803  0.5364
   99SAPS   C25 9918   4.474   6.397   6.712 -0.5447 -0.1683  0.4608
   99SAPS   H5R 9919   4.550   6.422   6.637 -1.5777 -0.7682 -0.8307
   99SAPS   C26 9920   4.503   6.440   6.836 -0.0544  0.5498  0.4506
   99SAPS   H6R 9921   4.602   6.485   6.853  0.3674 -0.0398 -0.3879
   99SAPS   C27 9922   4.415   6.426   6.955  0.8613  0.4438 -0.3411
   99SAPS   H7R 9923   4.367   6.326   6.948 -0.8884  1.1132  1.3114
   99SAPS   H7S 9924   4.337   6.505   6.944  1.5670  1.0860 -0.8642
   99SAPS   C28 9925   4.492   6.433   7.085 -0.0413 -0.0437 -0.1761
   99SAPS   H8R 9926   4.596   6.399   7.084  0.5722  1.7440 -1.2279
   99SAPS   C29 9927   4.439   6.482   7.199 -0.7261 -0.8778  0.7645
   99SAPS   H9R 9928   4.501   6.485   7.289 -0.2644 -0.8827  0.4483
   99SAPS  C210 9929   4.300   6.548   7.207 -0.6389 -0.5948  0.2267
   99SAPS  H10R 9930   4.238   6.486   7.275 -0.6289 -0.0449  0.7463
   99SAPS  H10S 9931   4.246   6.548   7.109 -2.2485  1.4778  1.0438
   99SAPS  C211 9932   4.321   6.686   7.266 -0.0818  0.1406 -0.7111
   99SAPS  H11R 9933   4.345   6.765   7.193  0.3370  3.0823  2.3164
   99SAPS  C212 9934   4.320   6.724   7.398  0.0395 -0.5401 -0.2871
   99SAPS  H12R 9935   4.339   6.831   7.414 -2.0433 -0.3600  1.4209
   99SAPS  C213 9936   4.292   6.642   7.516 -0.5852  0.6337  0.2525
   99SAPS  H13R 9937   4.240   6.550   7.483  0.4177  0.3855 -0.6859
   99SAPS  H13S 9938   4.219   6.691   7.585 -0.2494 -2.2701  2.8670
   99SAPS  C214 9939   4.422   6.596   7.584  0.3558 -0.1212 -0.0555
   99SAPS  H14R 9940   4.463   6.505   7.537  1.0880  2.1618 -4.3906
   99SAPS  C215 9941   4.482   6.639   7.696  0.3089  0.0357 -0.5262
   99SAPS  H15R 9942   4.572   6.592   7.737  0.3097 -0.8936 -1.5326
   99SAPS  C216 9943   4.432   6.755   7.777 -0.3983 -0.0833 -0.7991
   99SAPS  H16R 9944   4.334   6.798   7.747 -0.2661  1.4921  0.8733
   99SAPS  H16S 9945   4.499   6.843   7.784 -1.2175  0.5231 -0.4282
   99SAPS  C217 9946   4.423   6.693   7.920  0.3541  0.2271  1.0712
   99SAPS  H17R 9947   4.512   6.634   7.952 -0.3066 -1.8216 -0.6929
   99SAPS  H17S 9948   4.345   6.616   7.932  0.4879  0.0038  0.5159
   99SAPS  C218 9949   4.407   6.802   8.024  0.8364  0.0916 -0.1857
   99SAPS  H18R 9950   4.495   6.870   8.012 -0.3631  1.2692 -3.9221
   99SAPS  H18S 9951   4.392   6.748   8.120  1.7170 -1.1503 -0.7075
   99SAPS  C219 9952   4.286   6.895   8.014  0.8187 -0.3526  0.4043
   99SAPS  H19R 9953   4.297   6.959   7.924  3.5160 -1.2361  0.0215
   99SAPS  H19S 9954   4.288   6.960   8.105  2.1662  0.4253 -0.1580
   99SAPS  C220 9955   4.152   6.819   8.014 -0.1707 -0.1898 -0.1084
   99SAPS  H20R 9956   4.065   6.888   8.020  0.5713  0.8652 -1.2064
   99SAPS  H20S 9957   4.152   6.754   8.105  0.1773  0.6220  0.4855
   99SAPS  H20T 9958   4.149   6.753   7.925 -0.6341 -1.2883  0.6950
   99SAPS   C33 9959   4.451   5.631   6.987  0.3213  0.2384 -0.0080
   99SAPS   H3X 9960   4.542   5.694   6.991 -0.1617  1.0059  4.5939
   99SAPS   H3Y 9961   4.471   5.527   7.020  0.6471  0.0267 -0.8342
   99SAPS   C34 9962   4.365   5.715   7.089 -0.0791  0.2538  0.6443
   99SAPS   H4X 9963   4.266   5.665   7.080  1.7066 -3.3390 -1.7602
   99SAPS   H4Y 9964   4.350   5.821   7.061 -2.9273  0.2355  1.8017
   99SAPS   C35 9965   4.425   5.705   7.225 -0.1072 -0.1590  0.2823
   99SAPS   H5X 9966   4.530   5.739   7.223 -0.0136 -0.4485 -1.6146
   99SAPS   H5Y 9967   4.440   5.598   7.251  0.4163  0.3951  2.3680
   99SAPS   C36 9968   4.355   5.768   7.346 -0.8989 -0.6199 -0.0545
   99SAPS   H6X 9969   4.248   5.737   7.354 -0.4651 -1.8654  1.3862
   99SAPS   H6Y 9970   4.356   5.878   7.331 -2.3478 -0.7977 -1.8345
   99SAPS   C37 9971   4.426   5.739   7.477 -0.6842  0.4253  0.3527
   99SAPS   H7X 9972   4.525   5.790   7.474  0.9535 -2.5438 -0.0895
   99SAPS   H7Y 9973   4.443   5.629   7.482 -2.6721 -0.0215 -1.2579
   99SAPS   C38 9974   4.334   5.777   7.604 -0.1479 -0.1268 -0.0454
   99SAPS   H8X 9975   4.229   5.742   7.595 -0.3455  0.0025  1.4424
   99SAPS   H8Y 9976   4.326   5.887   7.614 -1.3381 -0.2580  0.7859
   99SAPS   C39 9977   4.376   5.710   7.733 -0.0831 -0.0740 -0.4636
   99SAPS   H9X 9978   4.360   5.601   7.725 -3.2078  0.4354 -2.8320
   99SAPS   H9Y 9979   4.312   5.732   7.820  0.0448 -0.1916 -0.3399
   99SAPS  C310 9980   4.522   5.736   7.776  0.6766  0.2484 -0.0832
   99SAPS  H10X 9981   4.551   5.843   7.764 -0.7311  0.6351 -0.2749
   99SAPS  H10Y 9982   4.591   5.673   7.717  1.7256  0.2911  1.0739
   99SAPS  C311 9983   4.562   5.694   7.922 -0.2019  0.1995 -0.0077
   99SAPS  H11X 9984   4.672   5.683   7.936 -0.5998 -0.5961  3.7527
   99SAPS  H11Y 9985   4.518   5.593   7.936  0.2154 -0.4280 -2.7146
   99SAPS  C312 9986   4.508   5.789   8.035 -0.7108 -0.8848 -0.0816
   99SAPS  H12X 9987   4.402   5.810   8.007 -1.0102 -1.7235  0.3972
   99SAPS  H12Y 9988   4.572   5.879   8.028  0.6942 -1.9209 -1.0348
   99SAPS  C313 9989   4.504   5.722   8.178 -0.1797 -0.3485  0.5213
   99SAPS  H13X 9990   4.453   5.801   8.238  0.5693 -0.9918  2.0661
   99SAPS  H13Y 9991   4.608   5.697   8.208  0.1497 -0.7112 -0.8598
   99SAPS  C314 9992   4.412   5.602   8.187 -0.1281  0.1010  0.2839
   99SAPS  H14X 9993   4.470   5.515   8.150 -1.2185  0.0111 -1.3438
   99SAPS  H14Y 9994   4.323   5.627   8.124 -1.4302  0.1296  2.0758
   99SAPS  C315 9995   4.352   5.581   8.327  0.1433  0.1663 -0.5308
   99SAPS  H15X 9996   4.282   5.666   8.342 -2.7080 -1.9695 -0.8135
   99SAPS  H15Y 9997   4.435   5.583   8.400  0.7585  0.6421 -1.2256
   99SAPS  C316 9998   4.273   5.446   8.355  0.5697 -0.1606  0.1652
   99SAPS  H16X 9999   4.334   5.354   8.342 -1.3536 -1.6062  0.8711
   99SAPS  H16Y10000   4.187   5.444   8.284  0.9751  3.0795 -0.5465
   99SAPS  C31710001   4.215   5.434   8.495 -0.5243 -0.3112 -1.2504
   99SAPS  H17X10002   4.290   5.454   8.574 -0.3817 -0.6806 -1.2889
   99SAPS  H17Y10003   4.196   5.325   8.502 -0.0228 -0.3328 -0.0909
   99SAPS  C31810004   4.094   5.524   8.511 -0.2678 -0.1731 -0.7946
   99SAPS  H18X10005   4.066   5.523   8.619  0.7212  0.0306 -0.5260
   99SAPS  H18Y10006   4.010   5.499   8.442 -1.0097  0.1229 -0.0197
   99SAPS  H18Z10007   4.118   5.632   8.503  0.9672  0.0107  2.9817
  100SAPS     N10008   0.156   0.979   6.543 -0.3051  0.2107 -0.5628
  100SAPS   HN110009   0.234   0.941   6.601  0.5639  0.2010 -1.6909
  100SAPS   HN210010   0.199   1.022   6.459  0.6034  0.0119 -0.2151
  100SAPS   HN310011   0.107   1.057   6.591  1.1360 -0.0588  1.4499
  100SAPS   C1210012   0.067   0.881   6.483  0.0357  0.6929 -0.1680
  100SAPS  H12A10013   0.041   0.816   6.566  1.3387  0.8395  0.3732
  100SAPS   C1310014  -0.053   0.942   6.407 -0.1608 -0.3546  0.4577
  100SAPS  O13A10015  -0.073   1.067   6.411  0.2231 -0.6830 -0.3260
  100SAPS  O13B10016  -0.141   0.860   6.369  0.8097 -0.3257 -0.3727
  100SAPS   C1110017   0.139   0.784   6.383 -1.2116  0.5066  0.2024
  100SAPS  H11A10018   0.174   0.838   6.292  0.6852  0.8148  1.0795
  100SAPS  H11B10019   0.054   0.714   6.363 -0.6898 -0.0045 -0.2541
  100SAPS     P10020   0.301   0.572   6.370  0.3385 -0.1885 -0.0574
  100SAPS   O1310021   0.234   0.453   6.421 -0.0416 -0.0794  0.3715
  100SAPS   O1410022   0.294   0.598   6.222 -0.0579 -0.3163 -0.0613
  100SAPS   O1210023   0.235   0.701   6.446 -0.5458  0.7011  0.5771
  100SAPS   O1110024   0.447   0.564   6.422 -0.3836 -0.1839 -0.0846
  100SAPS    C110025   0.500   0.612   6.549  0.0143  0.4853 -0.2191
  100SAPS    HA10026   0.609   0.632   6.538  0.1476  0.4122  0.8943
  100SAPS    HB10027   0.454   0.708   6.581 -1.2638  0.4709 -1.8628
  100SAPS    C210028   0.494   0.506   6.669 -0.2044  0.4571  0.4830
  100SAPS    HS10029   0.543   0.410   6.641 -2.4189 -1.0166  1.3297
  100SAPS   O2110030   0.364   0.483   6.712  0.4846 -0.3577 -0.1890
  100SAPS   C2110031   0.324   0.365   6.730 -0.2989  0.5005  0.4273
  100SAPS   O2210032   0.393   0.263   6.719  0.0540 -0.6823 -0.3584
  100SAPS   C2210033   0.178   0.357   6.778 -0.6006  0.1061 -0.3688
  100SAPS   H2R10034   0.114   0.405   6.701 -1.4047  1.1215  0.8936
  100SAPS   H2S10035   0.153   0.249   6.792  2.0859 -0.3837  1.3320
  100SAPS    C310036   0.574   0.577   6.780  0.2439  0.4508 -0.3585
  100SAPS    HX10037   0.540   0.681   6.796 -1.8524 -0.2991  0.3945
  100SAPS    HY10038   0.681   0.575   6.748  0.8230  1.1480  1.4099
  100SAPS   O3110039   0.576   0.500   6.903 -0.4294  0.3969 -0.2493
  100SAPS   C3110040   0.525   0.557   7.016  0.1033  0.1714  0.0759
  100SAPS   O3210041   0.475   0.669   7.021  0.0404  0.2379  0.3421
  100SAPS   C3210042   0.551   0.459   7.133 -0.3485  0.1133 -0.1723
  100SAPS   H2X10043   0.661   0.445   7.134 -0.4932 -1.1584 -0.6784
  100SAPS   H2Y10044   0.513   0.358   7.108  0.7294 -0.7931  1.6001
  100SAPS   C2310045   0.155   0.416   6.919  0.0866 -0.4136  0.0906
  100SAPS   H3R10046   0.084   0.501   6.910 -0.7258 -1.0275  0.5620
  100SAPS   H3S10047   0.252   0.454   6.957  0.3734  0.7141 -1.6256
  100SAPS   C2410048   0.087   0.317   7.020  0.0163 -0.0676 -0.8885
  100SAPS   H4R10049   0.169   0.246   7.044 -0.8102 -1.1773 -1.1992
  100SAPS   H4S10050   0.001   0.266   6.970  0.6385 -1.9132 -0.1762
  100SAPS   C2510051   0.044   0.402   7.138  0.7297  0.3769  0.0808
  100SAPS   H5R10052   0.013   0.504   7.111  0.7448  0.4092  0.1821
  100SAPS   C2610053   0.026   0.368   7.263  0.0598  0.4009  0.4707
  100SAPS   H6R10054   0.002   0.440   7.342  0.3645 -1.5417  2.4031
  100SAPS   C2710055   0.050   0.226   7.313  0.0585  0.0455  0.1868
  100SAPS   H7R10056   0.091   0.165   7.230 -0.3770 -1.0977  0.8019
  100SAPS   H7S10057  -0.051   0.191   7.341 -0.7187  1.5651 -0.5783
  100SAPS   C2810058   0.150   0.219   7.420 -0.0223  0.3886 -0.0659
  100SAPS   H8R10059   0.250   0.215   7.373 -0.6501  1.4093 -1.5592
  100SAPS   C2910060   0.129   0.211   7.551 -0.7000 -0.6039  0.3228
  100SAPS   H9R10061   0.219   0.218   7.615  0.8189 -0.6789 -1.7285
  100SAPS  C21010062  -0.007   0.221   7.613 -0.8759  0.2322  0.0921
  100SAPS  H10R10063  -0.060   0.124   7.600 -0.1826  0.1923 -3.8590
  100SAPS  H10S10064  -0.065   0.295   7.552  0.9528 -0.2510 -2.3964
  100SAPS  C21110065  -0.010   0.258   7.756  0.5874 -0.1920 -0.2706
  100SAPS  H11R10066  -0.041   0.363   7.769  1.2811 -0.1475  1.3597
  100SAPS  C21210067   0.033   0.181   7.858  0.4282 -0.0499 -0.7685
  100SAPS  H12R10068   0.037   0.221   7.960 -0.1671 -2.4983  0.2747
  100SAPS  C21310069   0.064   0.040   7.842  0.5862  0.2027 -0.7191
  100SAPS  H13R10070   0.022  -0.019   7.757  1.9166 -2.0993  0.1341
  100SAPS  H13S10071   0.021  -0.001   7.936  1.8134 -1.8645 -1.0136
  100SAPS  C21410072   0.211   0.020   7.836 -1.2720 -0.0899 -0.2607
  100SAPS  H14R10073   0.281   0.104   7.826 -0.9162 -0.6375 -4.3630
  100SAPS  C21510074   0.269  -0.097   7.849 -0.5853 -0.0722  0.0519
  100SAPS  H15R10075   0.378  -0.092   7.853 -0.5591 -0.1112 -0.6577
  100SAPS  C21610076   0.210  -0.232   7.866  0.2297  0.1549  0.3314
  100SAPS  H16R10077   0.219  -0.297   7.776 -2.2643 -2.6441  1.9514
  100SAPS  H16S10078   0.101  -0.220   7.885 -0.0348  0.5497 -1.2253
  100SAPS  C21710079   0.282  -0.306   7.977 -0.9032  0.7402 -0.1730
  100SAPS  H17R10080   0.383  -0.346   7.959 -1.0546  0.7766 -1.1682
  100SAPS  H17S10081   0.215  -0.394   7.987 -1.7389  1.1758 -1.5899
  100SAPS  C21810082   0.301  -0.237   8.114 -0.3288  0.1965 -0.9382
  100SAPS  H18R10083   0.198  -0.201   8.136 -1.2225 -1.9814 -1.2487
  100SAPS  H18S10084   0.353  -0.139   8.114 -3.6801  2.1461 -0.9191
  100SAPS  C21910085   0.338  -0.330   8.232  0.3972  0.3043 -0.2301
  100SAPS  H19R10086   0.437  -0.379   8.217  0.3306 -0.2401  1.0353
  100SAPS  H19S10087   0.262  -0.412   8.231  0.0766  0.5647 -2.1086
  100SAPS  C22010088   0.338  -0.263   8.363 -0.1296 -0.0479  0.3506
  100SAPS  H20R10089   0.403  -0.173   8.360  0.1328 -0.2519 -0.2495
  100SAPS  H20S10090   0.373  -0.333   8.443 -0.5256 -0.2874  0.3190
  100SAPS  H20T10091   0.240  -0.232   8.406 -0.2105  0.3322 -0.0994
  100SAPS   C3310092   0.487   0.501   7.272 -0.1758  0.2895  0.1453
  100SAPS   H3X10093   0.378   0.501   7.251  0.0371 -0.6498 -0.9999
  100SAPS   H3Y10094   0.522   0.604   7.297  1.5041 -0.0009 -0.8460
  100SAPS   C3410095   0.520   0.410   7.386 -0.5483 -0.1388 -0.9026
  100SAPS   H4X10096   0.631   0.405   7.400 -0.4087  0.5402 -1.6715
  100SAPS   H4Y10097   0.481   0.309   7.363 -2.0773  0.1712  0.1703
  100SAPS   C3510098   0.459   0.453   7.523 -0.0118 -0.3929  0.0466
  100SAPS   H5X10099   0.475   0.373   7.599 -2.2695  0.1529  1.1620
  100SAPS   H5Y10100   0.350   0.471   7.516  0.1867  0.9666  0.1329
  100SAPS   C3610101   0.516   0.592   7.575  0.0408  0.5244  0.7388
  100SAPS   H6X10102   0.457   0.677   7.535  0.5880  0.8692  0.6527
  100SAPS   H6Y10103   0.619   0.608   7.536  0.2137  2.1411  1.7973
  100SAPS   C3710104   0.527   0.597   7.721  0.3285 -0.3636  0.5473
  100SAPS   H7X10105   0.592   0.510   7.745  0.4287 -0.7976 -1.1448
  100SAPS   H7Y10106   0.440   0.572   7.785 -0.4578  1.7238  0.3481
  100SAPS   C3810107   0.588   0.734   7.772  0.1558  0.1977  0.1377
  100SAPS   H8X10108   0.534   0.820   7.728  0.3876 -0.3506 -1.2867
  100SAPS   H8Y10109   0.695   0.741   7.742  0.1992 -0.9350 -0.0248
  100SAPS   C3910110   0.574   0.737   7.921 -0.1521  0.7797 -0.1178
  100SAPS   H9X10111   0.467   0.715   7.944 -0.1571  1.5676  0.6207
  100SAPS   H9Y10112   0.597   0.842   7.948 -0.4798  0.8169  0.0258
  100SAPS  C31010113   0.675   0.644   7.984  0.0697  0.1694 -0.0844
  100SAPS  H10X10114   0.774   0.678   7.947  1.6483 -3.1223  0.6702
  100SAPS  H10Y10115   0.674   0.540   7.946 -0.0129  0.5714 -1.2197
  100SAPS  C31110116   0.678   0.647   8.135  0.1580 -0.2762 -0.2804
  100SAPS  H11X10117   0.771   0.591   8.156  1.9715  1.7906 -2.2387
  100SAPS  H11Y10118   0.593   0.592   8.180  0.1979 -0.3845 -0.3373
  100SAPS  C31210119   0.705   0.782   8.206 -0.2776 -0.8783 -0.6913
  100SAPS  H12X10120   0.613   0.842   8.195 -0.4722 -1.2797 -1.3166
  100SAPS  H12Y10121   0.795   0.820   8.153 -1.9261 -0.4791 -3.3768
  100SAPS  C31310122   0.739   0.759   8.353 -0.3328 -0.2780 -0.2323
  100SAPS  H13X10123   0.816   0.679   8.360  2.2240  2.1708  1.6387
  100SAPS  H13Y10124   0.649   0.734   8.414  0.4032  1.3227  1.6211
  100SAPS  C31410125   0.791   0.886   8.418 -0.6823 -0.3108  0.3126
  100SAPS  H14X10126   0.887   0.907   8.367 -1.6709 -0.1432 -1.5954
  100SAPS  H14Y10127   0.816   0.860   8.523  0.5643  0.5419  0.2463
  100SAPS  C31510128   0.703   1.018   8.402 -1.0231 -0.1381  0.6322
  100SAPS  H15X10129   0.665   1.027   8.298  0.9834  1.0534 -0.0384
  100SAPS  H15Y10130   0.766   1.104   8.431 -0.5503 -0.5946  0.9699
  100SAPS  C31610131   0.587   1.019   8.499 -0.0946  0.4502  0.1922
  100SAPS  H16X10132   0.624   0.980   8.596 -1.0815 -0.0858  0.3620
  100SAPS  H16Y10133   0.517   0.944   8.457  0.5746  0.4065 -0.9037
  100SAPS  C31710134   0.514   1.162   8.493 -0.5044  0.2900 -0.0799
  100SAPS  H17X10135   0.487   1.182   8.387 -0.1558  0.3078 -0.1662
  100SAPS  H17Y10136   0.596   1.228   8.527 -0.5933  0.6180 -0.4975
  100SAPS  C31810137   0.397   1.176   8.584 -0.0115 -0.2216  0.4393
  100SAPS  H18X10138   0.436   1.159   8.687 -1.0565  0.0768  0.8901
  100SAPS  H18Y10139   0.314   1.103   8.574 -0.0790  0.2216 -4.1210
  100SAPS  H18Z10140   0.339   1.269   8.571  0.1368 -0.3245 -1.2189
  101OSM      N10141   5.913   4.391  10.823  0.2214  1.1137  0.1906
  101OSM    C1510142   5.867   4.473  10.939 -0.8865 -0.0429 -0.0008
  101OSM   H15A10143   5.947   4.524  10.991 -0.5409  1.3425 -1.8132
  101OSM   H15B10144   5.809   4.404  10.999 -1.5108  0.8583  0.4576
  101OSM   H15C10145   5.793   4.547  10.913 -0.3640  0.6195  0.3752
  101OSM    C1410146   6.032   4.450  10.753 -0.3696  0.1651  0.5529
  101OSM   H14A10147   6.110   4.455  10.827 -2.3523  1.1451  2.7260
  101OSM   H14B10148   6.018   4.553  10.724  0.0785  0.5444  1.6188
  101OSM   H14C10149   6.074   4.387  10.677  0.2437  1.0999  0.0995
  101OSM    C1310150   5.951   4.258  10.879 -0.2475  0.3797  0.1475
  101OSM   H13A10151   5.959   4.192  10.794  1.6981  1.1316 -0.3223
  101OSM   H13B10152   5.866   4.215  10.929 -2.4507  0.5856 -3.1205
  101OSM   H13C10153   6.040   4.265  10.940  0.3083  2.5337 -0.8116
  101OSM    C1210154   5.788   4.360  10.729  0.5774 -0.0377  0.2645
  101OSM   H12A10155   5.714   4.302  10.782  2.1331 -0.9841  1.4556
  101OSM   H12B10156   5.826   4.290  10.656  0.0965 -0.6004  0.5437
  101OSM    C1110157   5.718   4.488  10.665 -1.1700  0.9003  0.5223
  101OSM   H11A10158   5.644   4.470  10.585  0.4367 -0.0842 -0.8213
  101OSM   H11B10159   5.787   4.554  10.609 -2.3011  0.6531 -1.2322
  101OSM      P10160   5.515   4.517  10.811  0.0073 -0.3198 -0.1794
  101OSM    O1310161   5.498   4.373  10.812 -0.8660  0.2709  0.2143
  101OSM    O1410162   5.493   4.583  10.944 -0.3200  0.5051  0.1691
  101OSM    O1110163   5.426   4.575  10.691 -0.2247 -0.1203  1.0011
  101OSM    O1210164   5.660   4.559  10.766 -0.4826  0.3283 -0.6017
  101OSM    C1S10165   5.395   4.715  10.683  0.4455  0.0382  0.2853
  101OSM    H1S10166   5.472   4.774  10.736  0.3211  0.6468 -0.2042
  101OSM    H1T10167   5.293   4.729  10.725 -0.5974  1.9971 -2.5701
  101OSM     NF10168   5.375   4.903  10.525  0.0676 -0.1564  0.8500
  101OSM    HNF10169   5.288   4.949  10.506  1.6499  2.6832 -0.1219
  101OSM    C2S10170   5.385   4.757  10.535  0.6035 -1.1767 -0.6587
  101OSM    H2S10171   5.475   4.718  10.482  2.0482 -2.2179  2.3553
  101OSM    C3S10172   5.250   4.688  10.479 -0.4861  0.5685  0.1438
  101OSM    H3S10173   5.157   4.709  10.536 -0.9220 -2.4760  0.7438
  101OSM     O310174   5.250   4.550  10.496 -0.1637  0.3464  0.2443
  101OSM    HO310175   5.326   4.536  10.554  1.3673 -0.1557 -1.7756
  101OSM    C4S10176   5.239   4.720  10.335  0.4617 -0.2149  0.2371
  101OSM    H4S10177   5.303   4.651  10.279  0.3639 -0.1689  0.0660
  101OSM    C5S10178   5.171   4.820  10.279  0.5067 -0.0353 -0.2870
  101OSM    H5S10179   5.099   4.867  10.347  0.7278 -1.2573  0.8288
  101OSM    C6S10180   5.163   4.845  10.130  0.1619  0.1414 -0.3529
  101OSM    H6S10181   5.204   4.943  10.099  1.2984 -0.1227  0.2872
  101OSM    H6T10182   5.055   4.848  10.103  0.0066 -3.0319 -0.4801
  101OSM    C7S10183   5.254   4.747  10.042 -0.0114 -0.3453  0.1613
  101OSM    H7S10184   5.214   4.643  10.050 -1.0883 -0.0007 -0.4569
  101OSM    H7T10185   5.358   4.752  10.079 -0.3479  0.6377  1.0213
  101OSM    C8S10186   5.257   4.776   9.892  0.0852 -0.2963 -0.1439
  101OSM    H8S10187   5.267   4.885   9.868 -1.1263  0.0305  0.7937
  101OSM    H8T10188   5.167   4.730   9.846  1.8580 -1.5005 -2.6387
  101OSM    C9S10189   5.368   4.707   9.818  0.0108 -0.2589  0.4308
  101OSM    H9S10190   5.351   4.599   9.834 -2.0626 -0.0838 -0.2310
  101OSM    H9T10191   5.458   4.738   9.875  1.1711 -1.3479 -0.7403
  101OSM   C10S10192   5.390   4.736   9.673  0.0740  0.7582 -0.4019
  101OSM   H10S10193   5.488   4.686   9.658 -0.1906 -0.4742  1.5900
  101OSM   H10T10194   5.394   4.844   9.651 -1.0427  1.2341  1.5078
  101OSM   C11S10195   5.297   4.667   9.562  0.1870 -0.0836 -0.9385
  101OSM   H11S10196   5.194   4.705   9.577  0.1566  0.8438 -3.2231
  101OSM   H11T10197   5.302   4.557   9.572  0.2357 -0.1902 -2.0518
  101OSM   C12S10198   5.338   4.706   9.419 -0.4360 -0.2792  0.6869
  101OSM   H12S10199   5.344   4.814   9.398  1.5529 -0.7687 -1.7610
  101OSM   H12T10200   5.256   4.664   9.356  1.7014 -0.5426 -2.1427
  101OSM   C13S10201   5.471   4.632   9.377  0.0700 -0.2833  0.6785
  101OSM   H13S10202   5.464   4.522   9.386  1.1750 -0.2713  2.2019
  101OSM   H13T10203   5.544   4.666   9.454  2.0786  0.8713 -1.6048
  101OSM   C14S10204   5.518   4.683   9.240 -0.3357  0.3337 -0.2416
  101OSM   H14S10205   5.505   4.793   9.241 -1.5025  0.2088  0.0332
  101OSM   H14T10206   5.451   4.655   9.156 -0.2326  1.6404 -0.7844
  101OSM   C15S10207   5.654   4.649   9.204 -0.2875 -0.4177 -0.1092
  101OSM   H15S10208   5.670   4.547   9.245  1.8579  0.2807  0.9399
  101OSM   H15T10209   5.734   4.707   9.255  0.0024 -0.6538 -0.2898
  101OSM   C16S10210   5.681   4.639   9.053 -0.6777  0.5106 -0.3339
  101OSM   H16S10211   5.690   4.744   9.019  1.8425  0.5432  0.2010
  101OSM   H16T10212   5.601   4.583   9.001  0.1606 -2.7902  1.5853
  101OSM   C17S10213   5.798   4.556   9.015  0.1337  0.3785 -0.3456
  101OSM   H17S10214   5.794   4.449   9.045  0.2617  0.7778  1.2075
  101OSM   H17T10215   5.885   4.603   9.066 -0.3294  1.3481 -0.4192
  101OSM   C18S10216   5.836   4.558   8.868 -0.5249  0.6286 -0.5616
  101OSM   H18S10217   5.926   4.494   8.852  0.3989  1.3194  1.4768
  101OSM   H18T10218   5.850   4.660   8.827 -0.2031  0.4898 -0.8055
  101OSM   H18U10219   5.761   4.503   8.807 -1.5238  1.4495 -0.0997
  101OSM    C1F10220   5.479   4.983  10.555 -0.4748  1.4016  0.3563
  101OSM     OF10221   5.588   4.929  10.581 -0.3268  0.1336  0.1711
  101OSM    C2F10222   5.461   5.127  10.564 -0.5612 -0.7559  0.2637
  101OSM    H2F10223   5.550   5.184  10.600 -0.0586 -0.7329 -0.9745
  101OSM    H2G10224   5.383   5.148  10.640 -0.0941 -0.5222  0.6917
  101OSM    C3F10225   5.423   5.175  10.426  0.4032 -0.0852  0.2519
  101OSM    H3F10226   5.422   5.287  10.423  0.1645 -0.0728  0.6740
  101OSM    H3G10227   5.324   5.136  10.395  0.8423 -1.1262  0.1276
  101OSM    C4F10228   5.516   5.132  10.309 -0.8544  0.0012  0.4378
  101OSM    H4F10229   5.533   5.022  10.310  0.0170  0.1250  0.0478
  101OSM    H4G10230   5.616   5.181  10.305 -0.9437  0.0845 -2.7236
  101OSM    C5F10231   5.446   5.159  10.173  0.1500 -0.4903 -0.7082
  101OSM    H5F10232   5.429   5.269  10.171 -1.4603 -0.6938  0.3907
  101OSM    H5G10233   5.347   5.111  10.161  0.6051 -2.1985  1.8068
  101OSM    C6F10234   5.534   5.127  10.055 -0.3360 -0.2929 -0.8351
  101OSM    H6F10235   5.557   5.019  10.069 -0.3426  0.0582  2.9072
  101OSM    H6G10236   5.625   5.189  10.069 -0.6044 -0.1443  0.2992
  101OSM    C7F10237   5.478   5.158   9.914  0.5384 -0.1825  0.4935
  101OSM    H7F10238   5.475   5.267   9.892  0.9339 -0.8450 -3.5224
  101OSM    H7G10239   5.372   5.127   9.922  0.8169 -1.8577 -1.5086
  101OSM    C8F10240   5.558   5.082   9.804 -0.4594 -0.5902 -0.2582
  101OSM    H8F10241   5.557   4.973   9.827  0.3665 -1.1484 -2.4860
  101OSM    H8G10242   5.662   5.118   9.791 -0.0405 -1.5244  0.3928
  101OSM    C9F10243   5.481   5.097   9.668 -0.2858  0.6311  0.0898
  101OSM    H9F10244   5.372   5.092   9.683  0.0421 -1.8026  2.3593
  101OSM   C10F10245   5.528   5.122   9.545 -0.5629 -0.4490 -0.3205
  101OSM   H10F10246   5.458   5.129   9.461 -1.2390  0.3434  0.2912
  101OSM   C11F10247   5.675   5.147   9.512 -0.0499  0.2301 -0.3586
  101OSM   H11F10248   5.739   5.132   9.602  0.3223  0.0639 -0.6455
  101OSM   H11G10249   5.685   5.256   9.493 -2.7361  0.6397  0.2493
  101OSM   C12F10250   5.719   5.046   9.397 -0.5205 -0.0461  0.4837
  101OSM   H12F10251   5.688   4.942   9.423  0.3569 -0.3305  0.4369
  101OSM   H12G10252   5.830   5.053   9.401 -0.3220 -0.6611 -2.0638
  101OSM   C13F10253   5.675   5.077   9.254 -0.3024 -0.3690  0.0891
  101OSM   H13F10254   5.666   5.187   9.247 -0.8385 -0.4197 -0.0620
  101OSM   H13G10255   5.573   5.034   9.248 -0.3925 -0.5725  2.1478
  101OSM   C14F10256   5.766   5.038   9.147 -0.2761 -0.2372 -0.3335
  101OSM   H14F10257   5.710   5.054   9.052  0.8667  0.8492 -0.8618
  101OSM   H14G10258   5.793   4.930   9.145 -0.0992 -0.4108  3.8027
  101OSM   C15F10259   5.889   5.138   9.141  1.3225 -0.3135  0.4603
  101OSM   H15F10260   5.967   5.117   9.216  1.8581 -2.4133 -0.5982
  101OSM   H15G10261   5.844   5.237   9.162  0.2989 -0.8751  0.9970
  101OSM   C16F10262   5.948   5.148   9.001  0.4525 -0.4275 -0.1896
  101OSM   H16F10263   6.015   5.236   9.009 -1.7881  1.1946  2.1184
  101OSM   H16G10264   5.867   5.179   8.931  0.8767  1.2377  0.0135
  101OSM   C17F10265   6.010   5.021   8.941  0.5593  1.1365  0.9000
  101OSM   H17F10266   5.931   4.948   8.914  0.9561  0.9069  0.3410
  101OSM   H17G10267   6.070   4.976   9.023  0.3059 -2.7590 -0.8515
  101OSM   C18F10268   6.098   5.035   8.818 -0.2093  0.6731  0.3343
  101OSM   H18F10269   6.051   5.062   8.721  2.0599 -1.1253 -1.3683
  101OSM   H18G10270   6.140   4.935   8.793  1.2131  1.4262 -0.4011
  101OSM   H18H10271   6.177   5.107   8.846  1.2899 -0.1033 -1.6488
  102OSM      N10272   5.384   5.772  11.266  0.0102  0.6789  0.4544
  102OSM    C1510273   5.326   5.902  11.290  0.4010  0.1372  0.5358
  102OSM   H15A10274   5.261   5.897  11.376  0.9756 -0.9615  0.9184
  102OSM   H15B10275   5.271   5.932  11.201 -1.0958  3.1438  2.3178
  102OSM   H15C10276   5.397   5.984  11.294  0.7884 -0.1870  0.3904
  102OSM    C1410277   5.514   5.761  11.348  0.6085  0.2774  0.1250
  102OSM   H14A10278   5.504   5.807  11.445  2.6218 -1.4829  1.2670
  102OSM   H14B10279   5.595   5.796  11.285  1.1005 -0.8116  0.1202
  102OSM   H14C10280   5.535   5.656  11.361 -0.2850  0.2104  1.1563
  102OSM    C1310281   5.293   5.661  11.320 -0.8091 -0.2931 -0.4412
  102OSM   H13A10282   5.341   5.564  11.330  0.0373  0.2421  1.0058
  102OSM   H13B10283   5.211   5.647  11.251 -0.9215  0.9805 -0.5728
  102OSM   H13C10284   5.257   5.683  11.419 -1.8506 -0.8968 -0.6687
  102OSM    C1210285   5.431   5.744  11.125  0.0609  0.1607 -0.7969
  102OSM   H12A10286   5.478   5.647  11.113  1.8793  0.8236  0.5886
  102OSM   H12B10287   5.498   5.823  11.094 -0.6706  1.4539  0.7825
  102OSM    C1110288   5.321   5.740  11.018  0.3520  0.6422  0.2350
  102OSM   H11A10289   5.244   5.668  11.053  1.1474 -0.0968  0.5094
  102OSM   H11B10290   5.364   5.701  10.923  0.7784 -0.3852  0.8324
  102OSM      P10291   5.317   5.987  10.927  0.2567 -0.1149 -0.2444
  102OSM    O1310292   5.219   6.098  10.938  0.0801 -0.8102  0.5753
  102OSM    O1410293   5.450   6.021  10.976  0.1432  0.1958  0.0788
  102OSM    O1110294   5.315   5.925  10.779  0.2343 -0.4537  0.1972
  102OSM    O1210295   5.260   5.870  11.003 -0.3229  0.0561  1.0735
  102OSM    C1S10296   5.187   5.907  10.712 -0.0221  0.4959  0.7577
  102OSM    H1S10297   5.124   5.996  10.733 -1.9371 -0.4399 -0.7461
  102OSM    H1T10298   5.134   5.815  10.745  1.8508 -2.0540 -2.6792
  102OSM     NF10299   5.086   5.910  10.476  0.0274  0.6993 -0.3777
  102OSM    HNF10300   5.045   5.835  10.424  0.4103  0.3797 -0.2216
  102OSM    C2S10301   5.205   5.890  10.555  0.3827  0.1117 -0.3992
  102OSM    H2S10302   5.289   5.957  10.528 -0.1865  1.3840  0.8514
  102OSM    C3S10303   5.265   5.750  10.538  0.8029 -0.2815  0.2283
  102OSM    H3S10304   5.200   5.672  10.584  0.9451 -0.4032  0.2215
  102OSM     O310305   5.380   5.721  10.621 -0.1403 -0.5359 -0.0633
  102OSM    HO310306   5.376   5.786  10.691  0.0759 -0.8444  0.2377
  102OSM    C4S10307   5.295   5.728  10.394  0.3526 -0.0816 -0.9733
  102OSM    H4S10308   5.342   5.814  10.345 -1.6807  1.6273 -0.0622
  102OSM    C5S10309   5.257   5.623  10.320 -0.3679 -0.3358 -0.1371
  102OSM    H5S10310   5.186   5.549  10.361 -0.9567  0.3106  0.0401
  102OSM    C6S10311   5.270   5.618  10.172 -0.7152  0.3845  0.1164
  102OSM    H6S10312   5.175   5.604  10.116 -0.4675  1.9807 -0.7467
  102OSM    H6T10313   5.336   5.532  10.146 -0.4056  0.2040  1.3931
  102OSM    C7S10314   5.345   5.739  10.115 -0.1749 -0.5411  0.3498
  102OSM    H7S10315   5.447   5.709  10.150 -0.1807 -1.7463 -0.5842
  102OSM    H7T10316   5.305   5.837  10.148 -0.1688 -0.4081 -0.0422
  102OSM    C8S10317   5.349   5.762   9.960  0.1127 -0.3313 -0.1047
  102OSM    H8S10318   5.402   5.855   9.931 -0.2742 -1.0210 -3.4233
  102OSM    H8T10319   5.242   5.767   9.933 -0.3318  1.1186  1.7457
  102OSM    C9S10320   5.416   5.645   9.884 -0.2743  0.2436 -0.4474
  102OSM    H9S10321   5.348   5.563   9.914  0.6378 -0.6718 -0.8047
  102OSM    H9T10322   5.517   5.625   9.925 -0.0662 -0.1317 -1.1209
  102OSM   C10S10323   5.424   5.664   9.736 -0.0095  0.3432  0.6490
  102OSM   H10S10324   5.491   5.752   9.726  0.3582 -0.0151 -0.0882
  102OSM   H10T10325   5.326   5.693   9.694  0.1145  0.7571  0.6396
  102OSM   C11S10326   5.488   5.542   9.658 -0.5579 -0.3982 -0.3054
  102OSM   H11S10327   5.426   5.452   9.681 -1.2955  0.0680 -0.4141
  102OSM   H11T10328   5.594   5.528   9.689 -1.0949 -0.2382  1.7885
  102OSM   C12S10329   5.479   5.563   9.503  0.2447  0.1161  0.2346
  102OSM   H12S10330   5.377   5.597   9.474  0.7601  1.7805  0.2541
  102OSM   H12T10331   5.500   5.460   9.468 -0.5790  0.2190 -0.6123
  102OSM   C13S10332   5.577   5.674   9.451 -0.4216 -0.4565  0.7808
  102OSM   H13S10333   5.682   5.646   9.475  0.4089  1.9489  0.3477
  102OSM   H13T10334   5.558   5.771   9.502  0.9469  0.0953  0.2839
  102OSM   C14S10335   5.574   5.688   9.295 -0.2923  0.1634  0.5277
  102OSM   H14S10336   5.645   5.769   9.265 -1.0534  0.2887 -1.0543
  102OSM   H14T10337   5.471   5.711   9.260 -1.2509 -0.7516  2.5983
  102OSM   C15S10338   5.625   5.568   9.221  0.9668  0.0426 -0.1253
  102OSM   H15S10339   5.558   5.479   9.230  0.9526  0.1172  0.5513
  102OSM   H15T10340   5.723   5.555   9.271 -0.0071  1.6279  2.3981
  102OSM   C16S10341   5.645   5.593   9.072 -0.0677  0.4473 -0.4358
  102OSM   H16S10342   5.709   5.514   9.026 -0.3613 -0.2847  0.3986
  102OSM   H16T10343   5.694   5.691   9.053  0.3555  0.3181 -0.0188
  102OSM   C17S10344   5.512   5.594   8.999  0.3516  0.4653 -0.1604
  102OSM   H17S10345   5.452   5.686   9.016 -0.9829 -0.5060  0.4728
  102OSM   H17T10346   5.453   5.509   9.038  0.5414 -0.7032 -2.2790
  102OSM   C18S10347   5.529   5.566   8.844 -0.5357  0.0812  0.9821
  102OSM   H18S10348   5.567   5.462   8.837  1.1400  0.6857  0.7390
  102OSM   H18T10349   5.616   5.619   8.799 -1.5686 -1.7853 -3.8713
  102OSM   H18U10350   5.444   5.593   8.778  0.4679 -0.4971 -0.5985
  102OSM    C1F10351   5.035   6.035  10.468 -0.4100  0.6517 -0.4840
  102OSM     OF10352   5.093   6.127  10.516  0.3954 -0.2068 -0.2058
  102OSM    C2F10353   4.906   6.045  10.390  0.3846  0.0939 -0.0494
  102OSM    H2F10354   4.821   6.067  10.458 -0.3309  2.4907 -1.6113
  102OSM    H2G10355   4.882   5.946  10.345 -0.1143  0.3092 -0.2643
  102OSM    C3F10356   4.898   6.174  10.304 -0.3995 -0.6699  0.7802
  102OSM    H3F10357   4.924   6.260  10.369  3.5978 -1.3881  0.3623
  102OSM    H3G10358   4.794   6.171  10.264 -0.4061 -4.4266  0.7277
  102OSM    C4F10359   4.991   6.153  10.180 -0.4589 -1.5003  1.1074
  102OSM    H4F10360   4.955   6.057  10.138  2.4020 -1.3345 -2.2101
  102OSM    H4G10361   5.093   6.121  10.212  0.3525 -0.1354  0.0182
  102OSM    C5F10362   5.000   6.261  10.078  0.6837  0.0066 -0.2258
  102OSM    H5F10363   5.057   6.349  10.116 -1.3279  0.6638  1.4745
  102OSM    H5G10364   4.896   6.300  10.062  0.3143 -0.7907  0.1988
  102OSM    C6F10365   5.057   6.214   9.949 -0.0389 -0.3410  0.4074
  102OSM    H6F10366   4.995   6.128   9.915 -0.5180  0.4929 -0.9306
  102OSM    H6G10367   5.159   6.173   9.964  0.4160 -1.0175 -3.4057
  102OSM    C7F10368   5.061   6.320   9.839  0.5739  0.4565 -0.0177
  102OSM    H7F10369   5.120   6.405   9.878  0.9392  0.1613  0.0828
  102OSM    H7G10370   4.962   6.356   9.803  1.0365  1.0906 -0.6816
  102OSM    C8F10371   5.140   6.252   9.719  0.3895  0.1949  0.1066
  102OSM    H8F10372   5.079   6.192   9.648  2.8500 -2.9546  0.4492
  102OSM    H8G10373   5.215   6.184   9.765  0.5483  0.2624 -0.0518
  102OSM    C9F10374   5.214   6.357   9.643  0.2273  0.2595 -0.4632
  102OSM    H9F10375   5.308   6.385   9.692 -0.2623 -0.4122  0.9067
  102OSM   C10F10376   5.200   6.413   9.517  0.0438  0.1702  0.9093
  102OSM   H10F10377   5.264   6.501   9.500  1.2081 -0.7282  0.4863
  102OSM   C11F10378   5.094   6.397   9.417 -0.6188  0.0961 -0.6898
  102OSM   H11F10379   5.022   6.483   9.415  0.6661  1.2356  0.2642
  102OSM   H11G10380   5.038   6.312   9.462  1.3977  0.0430  1.9413
  102OSM   C12F10381   5.129   6.357   9.274  0.2679 -0.3318  0.3248
  102OSM   H12F10382   5.033   6.364   9.219  0.8149 -1.0350 -0.7416
  102OSM   H12G10383   5.173   6.255   9.276 -0.0103 -0.4414  1.6775
  102OSM   C13F10384   5.248   6.443   9.212  0.0344 -0.4659  0.4801
  102OSM   H13F10385   5.336   6.425   9.277  0.7010  2.0273  0.3612
  102OSM   H13G10386   5.224   6.551   9.201 -1.9108 -0.9286 -0.2885
  102OSM   C14F10387   5.285   6.402   9.067  0.1667  0.0425  0.7236
  102OSM   H14F10388   5.193   6.404   9.006  0.7615  1.9031 -0.1692
  102OSM   H14G10389   5.302   6.292   9.063 -1.7176 -0.2486 -0.0534
  102OSM   C15F10390   5.383   6.482   8.989  0.3119 -0.5575 -0.4024
  102OSM   H15F10391   5.485   6.462   9.029 -0.0211 -5.2560 -1.2821
  102OSM   H15G10392   5.353   6.589   9.000  2.8519  0.1091  0.8083
  102OSM   C16F10393   5.391   6.429   8.847 -0.3822 -0.1301 -0.0472
  102OSM   H16F10394   5.293   6.449   8.799 -1.3194 -2.6157  0.6685
  102OSM   H16G10395   5.423   6.323   8.842  3.1921  0.7663  0.7437
  102OSM   C17F10396   5.488   6.506   8.763 -0.5678  0.1482 -0.9563
  102OSM   H17F10397   5.590   6.492   8.806 -1.2078 -1.9453  0.0399
  102OSM   H17G10398   5.472   6.614   8.785 -0.1386  0.0308 -0.0083
  102OSM   C18F10399   5.474   6.486   8.607 -0.1767 -0.7602  0.1987
  102OSM   H18F10400   5.370   6.505   8.570  0.9531  2.0030 -1.9483
  102OSM   H18G10401   5.497   6.379   8.589 -0.9615 -0.3916 -4.0291
  102OSM   H18H10402   5.543   6.542   8.541 -1.6218  0.5345 -0.2908
  103OSM      N10403   5.728   6.599  11.158  0.1603  0.0764  0.3787
  103OSM    C1510404   5.632   6.603  11.267 -0.6715 -0.8526 -0.0862
  103OSM   H15A10405   5.673   6.602  11.367  1.6039 -1.2554 -0.9735
  103OSM   H15B10406   5.555   6.527  11.269 -1.2110 -0.4321  3.5281
  103OSM   H15C10407   5.581   6.699  11.266 -1.0677 -1.0689 -0.5448
  103OSM    C1410408   5.854   6.681  11.192  0.1844 -0.6280  0.1525
  103OSM   H14A10409   5.912   6.635  11.270 -1.0412  1.2813  2.2933
  103OSM   H14B10410   5.822   6.782  11.213  1.7167  0.0098 -0.4470
  103OSM   H14C10411   5.908   6.685  11.099  1.4154  0.5717  0.8962
  103OSM    C1310412   5.769   6.459  11.137 -0.0533  0.3822  0.6422
  103OSM   H13A10413   5.682   6.400  11.114  0.2116 -1.2364  3.2843
  103OSM   H13B10414   5.822   6.410  11.218  0.3630  1.1711  0.8597
  103OSM   H13C10415   5.830   6.443  11.049 -0.0469 -0.7570  0.8423
  103OSM    C1210416   5.662   6.653  11.032  0.1423 -0.8705 -0.0609
  103OSM   H12A10417   5.623   6.749  11.061  3.0800  0.2197  0.6934
  103OSM   H12B10418   5.569   6.603  11.011  1.1847 -1.7486 -3.1607
  103OSM    C1110419   5.741   6.657  10.902 -0.1524 -0.2691  0.1359
  103OSM   H11A10420   5.667   6.671  10.820 -0.9316  2.4785  1.1832
  103OSM   H11B10421   5.808   6.570  10.895  0.5879  0.3454 -0.5931
  103OSM      P10422   5.796   6.914  10.898 -0.1466  0.3393  0.1797
  103OSM    O1310423   5.667   6.942  10.961 -0.0804  0.0161 -0.1787
  103OSM    O1410424   5.911   6.995  10.948  0.4250  0.1799  0.2796
  103OSM    O1110425   5.793   6.930  10.739  0.1122 -0.0059  0.2045
  103OSM    O1210426   5.832   6.765  10.920  0.3225  0.2402 -0.0980
  103OSM    C1S10427   5.676   6.957  10.666  0.7079  0.2049  0.0236
  103OSM    H1S10428   5.619   7.037  10.717 -2.1331 -3.1318  2.5121
  103OSM    H1T10429   5.615   6.865  10.657  1.2631 -0.1712  0.0536
  103OSM     NF10430   5.595   7.073  10.464  0.2300 -0.3936 -0.4175
  103OSM    HNF10431   5.521   7.026  10.416 -1.1542 -0.2000  1.4307
  103OSM    C2S10432   5.703   6.993  10.518  0.5429  0.1609  0.2446
  103OSM    H2S10433   5.797   7.052  10.518  1.0859 -0.6795 -0.3043
  103OSM    C3S10434   5.738   6.859  10.443 -0.4376 -0.3878  0.3525
  103OSM    H3S10435   5.646   6.798  10.435 -0.4867 -0.1301 -4.7751
  103OSM     O310436   5.836   6.782  10.505 -0.8126 -0.1885  0.5062
  103OSM    HO310437   5.850   6.831  10.587 -2.7705 -0.2929  0.9561
  103OSM    C4S10438   5.783   6.889  10.305 -0.1040  0.1853  1.1061
  103OSM    H4S10439   5.881   6.938  10.298 -1.5060  3.0782  0.2247
  103OSM    C5S10440   5.716   6.860  10.187 -0.3101 -0.2904  0.9231
  103OSM    H5S10441   5.621   6.805  10.188 -0.0931 -0.6764  0.9866
  103OSM    C6S10442   5.769   6.887  10.047  0.1862 -0.5556 -0.5969
  103OSM    H6S10443   5.793   6.789  10.000  1.6709 -0.6019  0.2149
  103OSM    H6T10444   5.867   6.939  10.046  0.6729 -1.4500 -0.0511
  103OSM    C7S10445   5.663   6.967   9.958  0.0107  0.2119  0.5041
  103OSM    H7S10446   5.642   7.067  10.002  1.7315  0.9668 -0.2826
  103OSM    H7T10447   5.566   6.912   9.957  1.3778 -2.3933  0.6014
  103OSM    C8S10448   5.702   7.012   9.813 -0.5606 -0.0677  0.9289
  103OSM    H8S10449   5.717   6.924   9.747 -1.0446  0.0513  0.6580
  103OSM    H8T10450   5.801   7.063   9.820 -0.2593 -0.2796 -1.0933
  103OSM    C9S10451   5.610   7.101   9.742  0.1293 -0.0312 -0.7492
  103OSM    H9S10452   5.600   7.195   9.800 -2.0728 -1.0845  0.6992
  103OSM    H9T10453   5.504   7.069   9.736  0.1323 -0.8577  2.1642
  103OSM   C10S10454   5.663   7.135   9.605 -0.3540  0.3692  0.1174
  103OSM   H10S10455   5.652   7.061   9.523 -0.1952  2.0063 -1.4262
  103OSM   H10T10456   5.771   7.152   9.623 -0.8763  1.4955  2.6586
  103OSM   C11S10457   5.609   7.266   9.551 -0.0846 -0.3829  0.7026
  103OSM   H11S10458   5.642   7.346   9.620  0.9661 -1.7095  1.8263
  103OSM   H11T10459   5.500   7.269   9.532 -0.1737 -1.3162  0.9767
  103OSM   C12S10460   5.674   7.310   9.413  0.3269 -0.1177 -0.6604
  103OSM   H12S10461   5.784   7.310   9.427  0.3331 -0.9304 -0.6971
  103OSM   H12T10462   5.648   7.417   9.394  0.4514  0.1268  0.5215
  103OSM   C13S10463   5.636   7.220   9.296 -0.1591  0.5950 -0.0871
  103OSM   H13S10464   5.528   7.196   9.303 -0.4109  1.4774 -0.9274
  103OSM   H13T10465   5.698   7.128   9.305  0.6094  1.2663  2.7620
  103OSM   C14S10466   5.656   7.289   9.162 -0.0218  0.6582  0.4806
  103OSM   H14S10467   5.759   7.331   9.165 -0.4624  2.2286 -2.8190
  103OSM   H14T10468   5.600   7.385   9.170 -0.4252  0.3968  0.8531
  103OSM   C15S10469   5.621   7.213   9.031  0.2282 -0.4803 -0.5134
  103OSM   H15S10470   5.545   7.269   8.973  0.2907  1.8376  1.4910
  103OSM   H15T10471   5.585   7.110   9.054  0.4387 -0.1849  1.2875
  103OSM   C16S10472   5.741   7.202   8.929  0.3674  0.7362  0.5510
  103OSM   H16S10473   5.834   7.166   8.978 -0.3923  1.6040  2.7362
  103OSM   H16T10474   5.770   7.300   8.885  1.6362  0.0816 -0.1534
  103OSM   C17S10475   5.703   7.109   8.817  0.1545 -0.2121 -0.3682
  103OSM   H17S10476   5.706   7.007   8.861  2.8101  0.2954  0.8007
  103OSM   H17T10477   5.783   7.114   8.740 -0.6280  2.0219 -1.1111
  103OSM   C18S10478   5.571   7.143   8.755  0.1971  0.4704 -1.4326
  103OSM   H18S10479   5.572   7.080   8.663 -2.4272  0.4127 -1.4868
  103OSM   H18T10480   5.557   7.253   8.749 -0.1861  0.5603  0.5779
  103OSM   H18U10481   5.488   7.109   8.821  1.6421 -0.0576  0.1989
  103OSM    C1F10482   5.565   7.196  10.507 -0.3498 -0.3911  0.3857
  103OSM     OF10483   5.633   7.253  10.592  0.8555  0.0957  0.1176
  103OSM    C2F10484   5.447   7.266  10.453  0.3362 -0.4986 -0.6163
  103OSM    H2F10485   5.445   7.374  10.475  2.2939 -0.3407 -1.0577
  103OSM    H2G10486   5.356   7.216  10.492  1.3776 -3.4698 -1.6688
  103OSM    C3F10487   5.429   7.244  10.301 -0.3508  0.1864  0.1951
  103OSM    H3F10488   5.328   7.282  10.272  0.6647  0.9347 -2.6948
  103OSM    H3G10489   5.425   7.137  10.273  0.6997  0.2804 -0.3428
  103OSM    C4F10490   5.531   7.327  10.217  0.3131 -0.0522 -0.6236
  103OSM    H4F10491   5.633   7.285  10.210  0.7667  1.2296 -2.7361
  103OSM    H4G10492   5.537   7.426  10.268 -1.6791 -0.4672  0.5113
  103OSM    C5F10493   5.485   7.352  10.069 -0.5274  0.4095 -0.0979
  103OSM    H5F10494   5.378   7.379  10.075 -0.7904 -0.2508 -1.4582
  103OSM    H5G10495   5.483   7.254  10.017  0.0329 -0.8288  2.0939
  103OSM    C6F10496   5.562   7.450   9.986 -0.2220 -0.2828  0.3132
  103OSM    H6F10497   5.671   7.427   9.979  0.2559  1.4293  1.6085
  103OSM    H6G10498   5.563   7.539  10.051 -0.3598  0.4196 -0.6281
  103OSM    C7F10499   5.492   7.474   9.850  0.0919 -0.6623  0.7611
  103OSM    H7F10500   5.393   7.520   9.871  0.7955  0.5461  1.5632
  103OSM    H7G10501   5.459   7.383   9.795 -0.7902  0.7674 -1.2119
  103OSM    C8F10502   5.564   7.567   9.750  0.0726  0.0893  0.0660
  103OSM    H8F10503   5.533   7.540   9.647  1.7683  1.9530 -0.9997
  103OSM    H8G10504   5.674   7.547   9.757 -0.2134 -1.3868  0.6853
  103OSM    C9F10505   5.526   7.709   9.769  0.4457  0.2861 -0.1072
  103OSM    H9F10506   5.527   7.748   9.872  0.9874  1.3257 -0.4898
  103OSM   C10F10507   5.468   7.784   9.673  0.5868 -0.8597  0.4247
  103OSM   H10F10508   5.453   7.889   9.702  1.8256 -0.3633 -0.6808
  103OSM   C11F10509   5.432   7.741   9.537 -0.2147  0.3018 -0.1885
  103OSM   H11F10510   5.354   7.810   9.498 -0.6337  0.6350  1.1878
  103OSM   H11G10511   5.379   7.644   9.531  2.1117 -1.0541 -0.1705
  103OSM   C12F10512   5.555   7.735   9.449  0.3586  0.2858  0.7199
  103OSM   H12F10513   5.631   7.657   9.473 -0.8634 -1.1461  0.1384
  103OSM   H12G10514   5.601   7.836   9.442  0.8273 -0.0075 -0.8272
  103OSM   C13F10515   5.513   7.692   9.308 -0.1465  0.5637  0.0348
  103OSM   H13F10516   5.515   7.582   9.300 -0.1548  0.3938  1.9333
  103OSM   H13G10517   5.409   7.730   9.304 -0.5048 -0.0437  2.5896
  103OSM   C14F10518   5.596   7.768   9.194  0.0527 -0.1804 -0.6092
  103OSM   H14F10519   5.696   7.721   9.190 -0.8208 -2.3334  1.0710
  103OSM   H14G10520   5.614   7.872   9.229  0.9773 -1.4689  3.2369
  103OSM   C15F10521   5.529   7.758   9.058 -0.3600  0.6049 -0.0734
  103OSM   H15F10522   5.564   7.838   8.989  0.8818  0.8653  0.8317
  103OSM   H15G10523   5.425   7.785   9.086 -0.2185  0.1575  0.9058
  103OSM   C16F10524   5.552   7.629   8.987 -0.1895  0.4276 -0.2514
  103OSM   H16F10525   5.483   7.638   8.900  0.3772  0.2740 -0.7267
  103OSM   H16G10526   5.511   7.552   9.055  1.3708  1.7386  2.3441
  103OSM   C17F10527   5.693   7.602   8.942 -0.1164 -0.2660 -0.6092
  103OSM   H17F10528   5.691   7.501   8.896  0.5103 -0.4651 -0.2124
  103OSM   H17G10529   5.755   7.582   9.032 -1.4408 -0.2411  0.3358
  103OSM   C18F10530   5.760   7.718   8.867  0.4479  0.6406  0.3640
  103OSM   H18F10531   5.698   7.770   8.790  0.5777  1.2557  0.6696
  103OSM   H18G10532   5.851   7.681   8.816 -0.0240  1.2115 -0.9432
  103OSM   H18H10533   5.784   7.801   8.936 -0.2973  2.0725 -1.0280
  104OSM      N10534   2.964   3.527  10.726  0.6067 -0.0524 -0.0855
  104OSM    C1510535   3.054   3.626  10.795 -0.3429 -0.5325 -0.7852
  104OSM   H15A10536   3.060   3.723  10.749 -0.3037  0.0209  0.3536
  104OSM   H15B10537   3.156   3.591  10.790 -0.1075  0.1295 -0.6238
  104OSM   H15C10538   3.021   3.640  10.897 -0.4022  0.6116 -0.9581
  104OSM    C1410539   2.982   3.391  10.789 -0.1377  0.3145  0.5353
  104OSM   H14A10540   3.081   3.358  10.762 -1.2788 -1.2901 -2.0687
  104OSM   H14B10541   2.920   3.315  10.744  1.7764 -1.6676  1.0432
  104OSM   H14C10542   2.976   3.379  10.896  0.5749 -1.2270  0.4240
  104OSM    C1310543   2.818   3.556  10.741  0.4125  0.1865  0.4086
  104OSM   H13A10544   2.757   3.467  10.742 -0.1795  0.5918  0.6020
  104OSM   H13B10545   2.787   3.627  10.665  2.0104  1.9820  1.3568
  104OSM   H13C10546   2.811   3.605  10.837  2.3891 -1.6598  1.5863
  104OSM    C1210547   3.002   3.518  10.578 -0.2542  0.4728 -0.8151
  104OSM   H12A10548   2.953   3.603  10.532 -1.0682  1.1886  1.2729
  104OSM   H12B10549   2.954   3.431  10.538  0.2643  0.2779 -1.0287
  104OSM    C1110550   3.155   3.505  10.533 -0.1584  0.0235 -0.4600
  104OSM   H11A10551   3.210   3.596  10.566 -1.7619  0.7807  0.1855
  104OSM   H11B10552   3.157   3.506  10.421 -0.6975 -2.2460 -0.5387
  104OSM      P10553   3.335   3.375  10.669 -0.2537  0.4790 -0.1574
  104OSM    O1310554   3.333   3.480  10.775  0.2078  0.0170 -0.1395
  104OSM    O1410555   3.362   3.235  10.720 -0.4448  0.1853  0.2398
  104OSM    O1110556   3.441   3.414  10.562 -0.5467  0.6042 -0.1324
  104OSM    O1210557   3.210   3.376  10.577  0.2294 -0.1962 -0.2972
  104OSM    C1S10558   3.484   3.304  10.479 -0.2853 -0.4824 -0.4543
  104OSM    H1S10559   3.457   3.203  10.517  0.0287 -0.7104 -0.8252
  104OSM    H1T10560   3.594   3.312  10.463 -0.3726 -1.5759 -1.7580
  104OSM     NF10561   3.461   3.191  10.271 -0.6528 -0.6754  0.7570
  104OSM    HNF10562   3.547   3.182  10.223 -0.9720 -3.0400  0.5292
  104OSM    C2S10563   3.426   3.316  10.337  0.6330  0.8279 -0.2830
  104OSM    H2S10564   3.317   3.324  10.359 -0.1406  0.4748 -3.5444
  104OSM    C3S10565   3.470   3.447  10.265  0.5549  0.1806 -0.4777
  104OSM    H3S10566   3.577   3.462  10.243  0.1592  2.5923 -1.0788
  104OSM     O310567   3.436   3.563  10.338 -0.6020 -0.2016  0.1765
  104OSM    HO310568   3.437   3.531  10.428 -1.9779 -2.4207 -0.5022
  104OSM    C4S10569   3.396   3.443  10.133  0.3550  0.2097 -0.3680
  104OSM    H4S10570   3.465   3.408  10.055 -0.0425 -1.7557  0.1094
  104OSM    C5S10571   3.265   3.477  10.100 -0.0632 -1.1502  0.3282
  104OSM    H5S10572   3.195   3.514  10.177 -1.1209 -1.2477 -0.5543
  104OSM    C6S10573   3.196   3.467   9.967 -0.2532 -0.7707  0.9654
  104OSM    H6S10574   3.129   3.551   9.938  1.0287 -0.2556 -0.6461
  104OSM    H6T10575   3.143   3.370   9.978  0.0711 -1.2658 -1.3842
  104OSM    C7S10576   3.284   3.444   9.838  0.0733 -0.1939  0.1383
  104OSM    H7S10577   3.358   3.364   9.856  0.4966  0.3837  1.0399
  104OSM    H7T10578   3.342   3.537   9.816  0.7426 -0.8130 -0.7689
  104OSM    C8S10579   3.197   3.422   9.717  0.2426  0.5308 -0.2948
  104OSM    H8S10580   3.128   3.507   9.701  0.0534  0.6208  0.8808
  104OSM    H8T10581   3.124   3.347   9.754 -0.5728  2.1627  1.6074
  104OSM    C9S10582   3.273   3.387   9.596  0.3450  0.7342 -0.6057
  104OSM    H9S10583   3.348   3.309   9.619  1.7377  2.1129 -0.2332
  104OSM    H9T10584   3.322   3.480   9.559 -1.0881  1.4169 -0.8754
  104OSM   C10S10585   3.186   3.327   9.478 -0.2234 -0.1291  0.5568
  104OSM   H10S10586   3.115   3.407   9.447 -0.3313 -0.2745  0.4315
  104OSM   H10T10587   3.131   3.241   9.521 -1.1559 -0.3838 -1.1016
  104OSM   C11S10588   3.262   3.298   9.346  0.7147 -0.7159  0.7589
  104OSM   H11S10589   3.318   3.203   9.357  1.0991 -0.4440  1.2000
  104OSM   H11T10590   3.325   3.386   9.319 -3.2573  1.6048 -2.2258
  104OSM   C12S10591   3.153   3.267   9.234 -0.0692 -0.2315 -0.3132
  104OSM   H12S10592   3.089   3.356   9.216  0.9364  0.2832 -1.4128
  104OSM   H12T10593   3.096   3.180   9.274  2.1763 -2.8832 -2.4651
  104OSM   C13S10594   3.222   3.222   9.106  0.1211  0.0658  0.9318
  104OSM   H13S10595   3.272   3.123   9.109  1.3918  0.7143  3.8626
  104OSM   H13T10596   3.290   3.304   9.075 -1.1097  0.5114 -0.7996
  104OSM   C14S10597   3.122   3.217   8.984  0.0527 -0.6896 -0.3931
  104OSM   H14S10598   3.050   3.301   8.997  0.2982 -0.6636  1.0053
  104OSM   H14T10599   3.063   3.123   8.984  0.4661 -1.0425 -3.4958
  104OSM   C15S10600   3.193   3.225   8.847  0.0825 -0.1048  0.0066
  104OSM   H15S10601   3.301   3.202   8.857 -0.4274 -3.6771 -1.4882
  104OSM   H15T10602   3.197   3.332   8.816 -2.5921 -0.4806 -1.9647
  104OSM   C16S10603   3.133   3.128   8.745  0.5260  0.2594  0.0663
  104OSM   H16S10604   3.175   3.151   8.644 -0.5711  0.9291 -0.2608
  104OSM   H16T10605   3.024   3.150   8.739 -0.1749 -2.5699  1.0351
  104OSM   C17S10606   3.153   2.981   8.780 -0.7251  1.3863  0.1311
  104OSM   H17S10607   3.100   2.974   8.877  1.6639  0.5545  1.4417
  104OSM   H17T10608   3.260   2.962   8.802 -0.7848  0.1670 -0.5403
  104OSM   C18S10609   3.106   2.874   8.684 -0.1284  0.0092  1.0575
  104OSM   H18S10610   3.177   2.863   8.599 -1.5834  2.9551 -0.7006
  104OSM   H18T10611   3.005   2.895   8.644  1.4912  3.0746 -1.9300
  104OSM   H18U10612   3.109   2.773   8.732 -1.3137 -2.0849 -2.8595
  104OSM    C1F10613   3.402   3.078  10.293  0.2285  0.0022 -0.4322
  104OSM     OF10614   3.305   3.080  10.373 -0.7074  0.1663 -0.0431
  104OSM    C2F10615   3.453   2.949  10.229 -0.5595  0.2928 -0.0013
  104OSM    H2F10616   3.545   2.911  10.277 -1.2921 -2.0812 -0.3425
  104OSM    H2G10617   3.490   2.982  10.129 -1.1591  1.3686  0.1178
  104OSM    C3F10618   3.359   2.824  10.230  0.1036 -0.1011 -0.0300
  104OSM    H3F10619   3.262   2.853  10.186 -0.2617 -1.1511  0.0477
  104OSM    H3G10620   3.344   2.797  10.337  1.6055  1.5936  0.6682
  104OSM    C4F10621   3.417   2.700  10.151 -0.3785 -0.4523  0.0908
  104OSM    H4F10622   3.363   2.611  10.191 -2.2065  0.8141  0.5436
  104OSM    H4G10623   3.527   2.695  10.165 -0.1731 -0.2017 -1.3099
  104OSM    C5F10624   3.386   2.710  10.006  0.3000 -0.4007 -0.3894
  104OSM    H5F10625   3.434   2.805   9.976 -0.4180 -0.1531 -0.7707
  104OSM    H5G10626   3.277   2.725  10.013 -0.1141 -2.5419 -1.3483
  104OSM    C6F10627   3.433   2.589   9.920 -0.0657  0.3074  0.0102
  104OSM    H6F10628   3.388   2.496   9.959  0.4934 -0.1344 -0.3894
  104OSM    H6G10629   3.543   2.571   9.915 -0.0960  0.3335 -2.6828
  104OSM    C7F10630   3.393   2.619   9.778 -0.1009  0.5112  0.6341
  104OSM    H7F10631   3.442   2.709   9.735 -0.5273 -0.1500 -1.3634
  104OSM    H7G10632   3.283   2.628   9.761 -0.2770  0.3840  1.6924
  104OSM    C8F10633   3.457   2.518   9.686 -0.1445  0.3009 -0.5704
  104OSM    H8F10634   3.426   2.415   9.713  1.5868 -0.0769  0.0872
  104OSM    H8G10635   3.565   2.512   9.712 -0.3791  0.5187  0.4945
  104OSM    C9F10636   3.433   2.539   9.540 -0.2738 -0.6677  0.1268
  104OSM    H9F10637   3.332   2.579   9.523  0.2854  1.2010  0.9443
  104OSM   C10F10638   3.525   2.531   9.440  0.0580 -0.2923  0.3781
  104OSM   H10F10639   3.482   2.553   9.341 -2.1910 -1.1002  1.0991
  104OSM   C11F10640   3.671   2.494   9.439 -0.3313  0.2383  0.0880
  104OSM   H11F10641   3.694   2.451   9.539 -3.4598  1.4980  1.4616
  104OSM   H11G10642   3.735   2.585   9.426  1.1670 -0.8926 -0.8325
  104OSM   C12F10643   3.712   2.390   9.333  0.0775  0.4437 -0.1182
  104OSM   H12F10644   3.660   2.296   9.361  0.9474 -0.6586 -2.0013
  104OSM   H12G10645   3.821   2.379   9.348  0.0818  0.1500 -0.3551
  104OSM   C13F10646   3.700   2.436   9.183  0.1190  0.1729 -1.2890
  104OSM   H13F10647   3.750   2.535   9.179 -0.0101  0.2479 -1.0026
  104OSM   H13G10648   3.595   2.447   9.149  0.0884  0.1453 -1.2032
  104OSM   C14F10649   3.777   2.335   9.094 -0.0221  0.3408  0.1992
  104OSM   H14F10650   3.719   2.240   9.092  1.7271 -0.8017  0.9004
  104OSM   H14G10651   3.875   2.312   9.142  0.2989  0.2878 -0.4696
  104OSM   C15F10652   3.797   2.383   8.953 -0.0430 -0.2151  0.4874
  104OSM   H15F10653   3.835   2.488   8.951  2.3213 -1.0216 -1.4338
  104OSM   H15G10654   3.705   2.382   8.890  0.5069 -0.7690 -0.3278
  104OSM   C16F10655   3.909   2.304   8.889 -0.2595  0.2561  0.0283
  104OSM   H16F10656   3.885   2.196   8.874 -0.8086  0.6235 -2.1097
  104OSM   H16G10657   3.999   2.306   8.955 -0.9373 -1.0703  1.0376
  104OSM   C17F10658   3.936   2.361   8.743 -0.3299  0.1471 -0.2107
  104OSM   H17F10659   3.975   2.465   8.755  1.0089 -0.0850 -2.0694
  104OSM   H17G10660   3.847   2.363   8.677  0.0049 -1.6467 -0.7513
  104OSM   C18F10661   4.048   2.298   8.668  0.3582  0.6541  0.6878
  104OSM   H18F10662   4.035   2.188   8.657 -1.3182  0.9371 -0.5794
  104OSM   H18G10663   4.145   2.317   8.718  0.1437  0.4057  1.2108
  104OSM   H18H10664   4.048   2.327   8.561 -0.7301  0.4174  0.6085
  105OSM      N10665   2.900   2.726  11.084  0.2224  0.2861  0.4425
  105OSM    C1510666   3.019   2.815  11.065  0.3610  0.3266 -0.3006
  105OSM   H15A10667   3.091   2.749  11.020  0.4768 -0.0780  0.4629
  105OSM   H15B10668   3.041   2.865  11.158 -1.3164  0.4547  0.0521
  105OSM   H15C10669   2.983   2.880  10.986 -0.9959 -0.7323 -0.5780
  105OSM    C1410670   2.941   2.624  11.194  0.6558  0.0092 -0.0756
  105OSM   H14A10671   3.007   2.548  11.155  1.4921  0.7456 -0.1469
  105OSM   H14B10672   2.861   2.567  11.237  0.5054 -0.8063 -1.3797
  105OSM   H14C10673   2.984   2.673  11.280  2.2767 -0.0298 -0.8079
  105OSM    C1310674   2.792   2.811  11.132  0.4598 -0.6009  0.4711
  105OSM   H13A10675   2.748   2.877  11.058  2.7867 -0.0038 -0.4551
  105OSM   H13B10676   2.820   2.861  11.224 -3.3949  2.7373  0.1478
  105OSM   H13C10677   2.710   2.747  11.164 -1.0496 -0.6014 -2.9583
  105OSM    C1210678   2.862   2.653  10.955 -0.6056 -0.5577 -0.5761
  105OSM   H12A10679   2.757   2.627  10.960 -0.9305  0.7105  4.2956
  105OSM   H12B10680   2.930   2.569  10.956 -0.2591 -0.3145  1.2781
  105OSM    C1110681   2.878   2.728  10.822  0.0644  0.4644  0.5117
  105OSM   H11A10682   2.859   2.670  10.728 -1.4736  1.2231  0.3170
  105OSM   H11B10683   2.987   2.745  10.809 -0.0468  0.1252 -1.1005
  105OSM      P10684   2.658   2.861  10.816 -0.0398  0.4775  0.3054
  105OSM    O1310685   2.611   2.737  10.889 -0.5336  0.6349 -0.1803
  105OSM    O1410686   2.611   2.989  10.866  0.4342  0.4793  0.0355
  105OSM    O1110687   2.623   2.840  10.661  0.3862 -0.6817 -0.0959
  105OSM    O1210688   2.821   2.857  10.820  0.2124 -0.0690 -0.3076
  105OSM    C1S10689   2.710   2.917  10.569 -0.2153  0.5303  0.0019
  105OSM    H1S10690   2.814   2.880  10.582 -1.5798 -2.9086  2.7349
  105OSM    H1T10691   2.688   3.026  10.573  0.0296  0.6604 -1.6064
  105OSM     NF10692   2.726   2.971  10.324 -0.0043 -0.5458 -0.2816
  105OSM    HNF10693   2.665   3.038  10.281  0.5135  0.6882  0.8309
  105OSM    C2S10694   2.669   2.882  10.424  0.1392 -0.9245 -0.1207
  105OSM    H2S10695   2.707   2.781  10.398  2.2180  0.5223 -3.4002
  105OSM    C3S10696   2.512   2.876  10.413  0.6569 -0.4793 -0.7960
  105OSM    H3S10697   2.461   2.972  10.438 -0.8521 -0.4042 -3.7155
  105OSM     O310698   2.440   2.775  10.482 -0.1884 -0.6969 -0.2708
  105OSM    HO310699   2.500   2.758  10.555 -0.7374  0.1667  0.3942
  105OSM    C4S10700   2.486   2.852  10.269  0.3589  0.2192  0.6199
  105OSM    H4S10701   2.532   2.764  10.223 -2.9195 -0.2666 -2.1513
  105OSM    C5S10702   2.401   2.926  10.190  0.1160 -0.5730  0.3301
  105OSM    H5S10703   2.351   3.007  10.244  1.8256  1.1482 -0.5675
  105OSM    C6S10704   2.361   2.891  10.046  0.1080 -0.4024  0.6828
  105OSM    H6S10705   2.354   2.990   9.995 -0.1444 -0.4951  0.5382
  105OSM    H6T10706   2.255   2.859  10.036 -0.4588  1.8021 -1.1178
  105OSM    C7S10707   2.452   2.797   9.965  0.1464  0.2797  0.6791
  105OSM    H7S10708   2.405   2.772   9.867  1.9986 -3.6390  0.5909
  105OSM    H7T10709   2.455   2.701  10.022  0.0187  0.3590  0.8192
  105OSM    C8S10710   2.588   2.863   9.948 -0.6917 -0.5725 -0.1398
  105OSM    H8S10711   2.653   2.807   9.876 -1.9531  0.0998 -1.8781
  105OSM    H8T10712   2.637   2.876  10.047  3.4178  0.2659 -2.0729
  105OSM    C9S10713   2.595   3.003   9.872 -0.3326  0.1602 -0.1443
  105OSM    H9S10714   2.699   3.036   9.852 -0.4157  0.2007 -0.5201
  105OSM    H9T10715   2.553   3.077   9.944 -0.4538  1.1951 -1.2453
  105OSM   C10S10716   2.510   3.012   9.742 -0.2407  0.5520  0.6736
  105OSM   H10S10717   2.526   3.116   9.706  1.8344  0.3406  0.8171
  105OSM   H10T10718   2.406   2.996   9.775  0.1298 -1.2823  1.0804
  105OSM   C11S10719   2.540   2.913   9.635  0.3686  0.8171 -0.3083
  105OSM   H11S10720   2.548   2.810   9.677 -0.0273  0.5297 -0.9220
  105OSM   H11T10721   2.639   2.944   9.596  0.3918 -1.4597 -2.3300
  105OSM   C12S10722   2.435   2.925   9.532 -0.4603  0.2925  0.2891
  105OSM   H12S10723   2.328   2.931   9.562 -0.2912 -1.7995  1.5898
  105OSM   H12T10724   2.458   2.830   9.478  2.5200 -0.6897  2.9696
  105OSM   C13S10725   2.444   3.050   9.434 -0.4035  0.2147 -0.2496
  105OSM   H13S10726   2.546   3.051   9.390 -0.2964 -0.7089 -0.0278
  105OSM   H13T10727   2.441   3.139   9.500  0.5462 -2.1886  3.2666
  105OSM   C14S10728   2.343   3.064   9.320 -0.3162 -0.0091  0.0809
  105OSM   H14S10729   2.393   3.141   9.256 -0.7737  0.3015  0.0962
  105OSM   H14T10730   2.244   3.090   9.362 -0.1171 -0.0765  0.5980
  105OSM   C15S10731   2.320   2.939   9.239 -0.2777 -0.2149  0.4307
  105OSM   H15S10732   2.259   2.859   9.287 -0.4820 -0.9153 -0.9285
  105OSM   H15T10733   2.417   2.883   9.241 -1.8486 -3.1578  0.5439
  105OSM   C16S10734   2.266   2.957   9.097  0.4722  0.5693  0.2363
  105OSM   H16S10735   2.181   3.029   9.100 -0.2866 -0.1625 -1.9404
  105OSM   H16T10736   2.225   2.862   9.055 -0.1570  0.6854  0.5735
  105OSM   C17S10737   2.363   3.003   8.998 -0.0386 -0.5338  0.3978
  105OSM   H17S10738   2.448   2.936   8.974  1.2183  1.0309  0.3659
  105OSM   H17T10739   2.414   3.097   9.025  3.0846 -1.4532 -1.7015
  105OSM   C18S10740   2.297   3.025   8.860  0.3752 -0.4095  0.1157
  105OSM   H18S10741   2.226   2.944   8.831 -0.0504 -0.0843  0.2346
  105OSM   H18T10742   2.379   3.037   8.787  2.7926  1.6729  2.9549
  105OSM   H18U10743   2.243   3.122   8.854 -0.8204 -0.8094  2.8880
  105OSM    C1F10744   2.853   2.987  10.308 -0.0595  0.4484 -0.8612
  105OSM     OF10745   2.930   2.954  10.395  0.4267  0.2083  0.8584
  105OSM    C2F10746   2.890   3.046  10.176 -0.2248  0.2953 -0.4621
  105OSM    H2F10747   2.875   3.155  10.184 -0.8734  0.2386 -0.8001
  105OSM    H2G10748   2.825   3.008  10.094  2.4512 -1.9156 -1.7404
  105OSM    C3F10749   3.038   3.016  10.144 -0.8194 -0.0334 -0.2083
  105OSM    H3F10750   3.048   2.905  10.143 -2.6091 -0.2400  0.7544
  105OSM    H3G10751   3.099   3.050  10.230 -0.5646  0.0511 -0.4229
  105OSM    C4F10752   3.096   3.076  10.014 -0.3277  0.7167 -0.3121
  105OSM    H4F10753   3.204   3.054  10.010 -0.3039  0.7239  0.1704
  105OSM    H4G10754   3.117   3.185  10.015  2.4177  0.2762  1.9855
  105OSM    C5F10755   3.031   3.022   9.889 -0.0559 -0.7613  0.4531
  105OSM    H5F10756   2.948   3.082   9.847 -1.2980 -0.5464  3.0465
  105OSM    H5G10757   2.968   2.938   9.924  0.8841 -1.9297 -0.5993
  105OSM    C6F10758   3.122   2.991   9.775 -0.5965 -0.6228 -0.3760
  105OSM    H6F10759   3.220   2.968   9.822 -0.4054  0.5742 -0.1583
  105OSM    H6G10760   3.155   3.077   9.713 -0.0170  0.8699  1.8802
  105OSM    C7F10761   3.079   2.876   9.686 -0.1727  0.2879 -0.4183
  105OSM    H7F10762   3.069   2.777   9.734 -2.4079  0.1919 -0.9754
  105OSM    H7G10763   3.145   2.873   9.597 -2.0979  3.1560 -2.1376
  105OSM    C8F10764   2.932   2.899   9.626  0.0317 -0.5626  0.6626
  105OSM    H8F10765   2.870   2.899   9.718  1.7425 -0.6224  1.8702
  105OSM    H8G10766   2.916   2.806   9.568  0.3738 -0.8517  1.0277
  105OSM    C9F10767   2.935   3.020   9.544  0.9507  0.2380  0.9388
  105OSM    H9F10768   2.968   3.110   9.599  1.2065 -0.3318  1.7293
  105OSM   C10F10769   2.891   3.039   9.418  0.0201  0.2937  0.2277
  105OSM   H10F10770   2.879   3.139   9.375  2.1202  0.0325 -1.0963
  105OSM   C11F10771   2.830   2.930   9.323 -0.0766  0.2812 -0.1563
  105OSM   H11F10772   2.728   2.968   9.298 -1.3501 -1.8235  1.4589
  105OSM   H11G10773   2.816   2.838   9.383  0.4037  1.3202  1.6171
  105OSM   C12F10774   2.908   2.895   9.200 -0.0935  0.2379  0.8423
  105OSM   H12F10775   2.916   2.988   9.139 -2.3733  1.6312  2.5025
  105OSM   H12G10776   2.854   2.815   9.145  0.0926 -0.4743  1.6769
  105OSM   C13F10777   3.045   2.838   9.248 -0.2436 -0.3076  0.5999
  105OSM   H13F10778   3.019   2.767   9.330  0.6605  0.6829  1.7828
  105OSM   H13G10779   3.105   2.923   9.286 -0.1656 -1.4032  3.1071
  105OSM   C14F10780   3.129   2.768   9.138  0.7375 -0.9602 -0.4409
  105OSM   H14F10781   3.194   2.833   9.076  0.3036 -1.0159 -0.9652
  105OSM   H14G10782   3.053   2.722   9.071  0.3409  1.2658 -1.6230
  105OSM   C15F10783   3.219   2.663   9.197 -0.7066  0.2350  0.0141
  105OSM   H15F10784   3.169   2.606   9.278 -1.8544  0.5930 -0.4349
  105OSM   H15G10785   3.302   2.713   9.252 -2.0501  0.6345  1.7800
  105OSM   C16F10786   3.280   2.573   9.086 -0.1512  0.5091 -0.0007
  105OSM   H16F10787   3.195   2.536   9.025  0.7613 -0.0374 -0.9434
  105OSM   H16G10788   3.333   2.493   9.141 -1.0159  0.6995  1.1670
  105OSM   C17F10789   3.390   2.645   9.006 -0.1636 -0.5668  0.1316
  105OSM   H17F10790   3.475   2.680   9.069  0.7472 -0.0466 -1.3298
  105OSM   H17G10791   3.343   2.737   8.966 -0.7433  0.4017  2.8424
  105OSM   C18F10792   3.461   2.567   8.900  0.1379 -0.0008 -0.3392
  105OSM   H18F10793   3.537   2.634   8.854 -0.6186  1.4198  0.4288
  105OSM   H18G10794   3.394   2.535   8.818 -0.1094  1.4320 -0.7217
  105OSM   H18H10795   3.505   2.479   8.952  0.1733 -0.3877 -1.0056
  106OSM      N10796   2.195   0.684  10.743 -0.4169 -0.1112  0.3568
  106OSM    C1510797   2.191   0.824  10.688 -0.3959 -0.0903 -0.3382
  106OSM   H15A10798   2.091   0.847  10.653  0.1982  3.7840  0.1274
  106OSM   H15B10799   2.261   0.853  10.611  0.6542 -0.8243  0.3056
  106OSM   H15C10800   2.195   0.892  10.771 -0.9185 -1.4831  0.8793
  106OSM    C1410801   2.327   0.659  10.792 -0.4161  0.9177  1.3993
  106OSM   H14A10802   2.330   0.563  10.842  1.3900 -0.0780 -0.4929
  106OSM   H14B10803   2.358   0.732  10.866 -0.8675  0.5757  1.9358
  106OSM   H14C10804   2.399   0.655  10.712 -0.5556  2.0543  1.2045
  106OSM    C1310805   2.088   0.677  10.839  0.0047 -0.1826 -0.2984
  106OSM   H13A10806   1.998   0.727  10.807  0.3759 -1.2811 -3.4011
  106OSM   H13B10807   2.109   0.717  10.937 -0.2090 -3.1484  1.0509
  106OSM   H13C10808   2.076   0.574  10.867 -1.4191  0.7782  3.0819
  106OSM    C1210809   2.164   0.584  10.636  0.5710 -0.3234  0.3702
  106OSM   H12A10810   2.212   0.621  10.546 -1.3473 -2.5847 -1.7136
  106OSM   H12B10811   2.058   0.586  10.617  0.1656 -1.2457  2.2844
  106OSM    C1110812   2.206   0.431  10.654  0.1671  0.2019  0.1004
  106OSM   H11A10813   2.317   0.426  10.658  0.1172 -0.4855  0.7905
  106OSM   H11B10814   2.163   0.387  10.562  0.1089  1.3692 -0.4455
  106OSM      P10815   2.120   0.210  10.752 -0.7344 -0.4984 -0.2805
  106OSM    O1310816   2.257   0.152  10.717  0.2083 -0.7487  0.6429
  106OSM    O1410817   2.067   0.158  10.880  0.7712 -0.3945  1.1509
  106OSM    O1110818   2.023   0.192  10.630 -0.0190  0.1430 -0.2494
  106OSM    O1210819   2.136   0.366  10.763  0.2268 -0.2775 -0.2286
  106OSM    C1S10820   1.891   0.246  10.644  0.3251 -0.0905 -0.6946
  106OSM    H1S10821   1.884   0.332  10.714 -0.3160 -1.5241  1.1096
  106OSM    H1T10822   1.820   0.165  10.676  0.3155 -0.2217 -1.0460
  106OSM     NF10823   1.753   0.407  10.510  0.1914 -0.5740 -0.0278
  106OSM    HNF10824   1.660   0.377  10.494  0.3768 -0.6654 -0.9839
  106OSM    C2S10825   1.847   0.302  10.504  0.5602  0.4727 -0.2293
  106OSM    H2S10826   1.938   0.335  10.449  0.3726 -1.3292 -1.7310
  106OSM    C3S10827   1.789   0.170  10.429 -0.7857 -0.1035 -0.0251
  106OSM    H3S10828   1.709   0.129  10.495  1.3042 -1.8496  1.5550
  106OSM     O310829   1.892   0.069  10.426  0.3138 -0.0053  0.6052
  106OSM    HO310830   1.959   0.103  10.486  0.2726 -0.2902  0.8150
  106OSM    C4S10831   1.721   0.219  10.301  0.2891  0.8877  0.2218
  106OSM    H4S10832   1.611   0.224  10.302  0.0696  0.2681 -3.8847
  106OSM    C5S10833   1.778   0.231  10.176  0.2411  0.4661  0.2708
  106OSM    H5S10834   1.885   0.219  10.154  0.2005 -0.3327  0.4885
  106OSM    C6S10835   1.703   0.265  10.052  0.2237 -0.1584 -0.1903
  106OSM    H6S10836   1.594   0.277  10.071  0.2361 -0.1237 -0.1428
  106OSM    H6T10837   1.717   0.186   9.975  0.5291  1.2422 -1.6159
  106OSM    C7S10838   1.749   0.401  10.010  0.3256 -0.2833  0.3124
  106OSM    H7S10839   1.860   0.408  10.016  0.6899  1.0474 -4.0687
  106OSM    H7T10840   1.703   0.478  10.075  1.5874  1.5705 -0.8864
  106OSM    C8S10841   1.716   0.444   9.861 -0.5565 -0.2442 -0.3405
  106OSM    H8S10842   1.759   0.367   9.794  2.1027 -2.4770  3.5448
  106OSM    H8T10843   1.757   0.546   9.847  0.3055  0.1055  3.5192
  106OSM    C9S10844   1.566   0.455   9.825 -0.2760  1.1008  0.2030
  106OSM    H9S10845   1.531   0.558   9.850 -0.5729  0.7996  1.0678
  106OSM    H9T10846   1.515   0.391   9.900  0.8100 -0.8413 -0.6526
  106OSM   C10S10847   1.538   0.414   9.678 -0.0326  0.3906  0.4247
  106OSM   H10S10848   1.430   0.403   9.654  0.9778 -2.3665 -4.0032
  106OSM   H10T10849   1.588   0.316   9.663 -0.1219  0.1870  1.3771
  106OSM   C11S10850   1.591   0.517   9.578  0.0608 -0.2668 -0.1047
  106OSM   H11S10851   1.700   0.540   9.585 -0.2542  1.4371 -0.3403
  106OSM   H11T10852   1.540   0.615   9.592 -1.1902 -0.7676 -0.9853
  106OSM   C12S10853   1.570   0.480   9.431  0.0344 -0.2959  0.0914
  106OSM   H12S10854   1.460   0.475   9.417  0.3243  1.0802 -3.5410
  106OSM   H12T10855   1.634   0.389   9.426  2.2599  1.0231  2.1073
  106OSM   C13S10856   1.612   0.578   9.324  0.3272 -0.5033 -0.1778
  106OSM   H13S10857   1.723   0.577   9.332  0.6209 -0.3151 -3.2370
  106OSM   H13T10858   1.568   0.676   9.353 -2.4969 -1.2836 -1.4926
  106OSM   C14S10859   1.574   0.547   9.179  0.1954 -0.4168 -0.0135
  106OSM   H14S10860   1.463   0.536   9.175  0.1018 -0.3849  1.8642
  106OSM   H14T10861   1.618   0.450   9.150 -0.5449 -1.2357  1.4984
  106OSM   C15S10862   1.627   0.648   9.080  0.3865 -0.6012 -0.3012
  106OSM   H15S10863   1.737   0.650   9.093  0.0742  0.8292  2.8418
  106OSM   H15T10864   1.581   0.748   9.095  0.0387 -0.0718 -3.9236
  106OSM   C16S10865   1.586   0.599   8.936  0.1398 -0.4508 -0.6248
  106OSM   H16S10866   1.476   0.588   8.930  0.1073 -0.2401 -0.4089
  106OSM   H16T10867   1.633   0.499   8.920  0.9888 -0.2130  0.2631
  106OSM   C17S10868   1.644   0.692   8.825 -0.0410 -0.2699  0.3802
  106OSM   H17S10869   1.750   0.661   8.823  0.0880  0.1812 -0.1175
  106OSM   H17T10870   1.633   0.799   8.851 -0.3044  0.4659 -2.4235
  106OSM   C18S10871   1.586   0.675   8.689  0.5045 -0.7365 -0.0076
  106OSM   H18S10872   1.560   0.768   8.634 -0.3578 -1.2988 -0.5821
  106OSM   H18T10873   1.498   0.607   8.693  0.9246 -1.3715 -1.1463
  106OSM   H18U10874   1.657   0.614   8.628  1.0883 -1.3384  1.2487
  106OSM    C1F10875   1.780   0.533  10.552 -0.0071 -0.6138 -0.4613
  106OSM     OF10876   1.879   0.556  10.616  0.3336 -0.1558  0.3773
  106OSM    C2F10877   1.687   0.644  10.546  0.3342 -0.4549  0.3404
  106OSM    H2F10878   1.683   0.706  10.637  0.2046  2.5666 -1.5874
  106OSM    H2G10879   1.584   0.601  10.541 -0.0754  0.3589  1.4834
  106OSM    C3F10880   1.737   0.745  10.433 -0.6868 -0.2341  0.1195
  106OSM    H3F10881   1.840   0.784  10.441 -0.0450 -1.5354 -1.3461
  106OSM    H3G10882   1.677   0.838  10.450  0.1147  0.7469 -2.0346
  106OSM    C4F10883   1.726   0.697  10.289 -0.5339 -0.1485  0.2639
  106OSM    H4F10884   1.622   0.657  10.288 -0.7524  0.4176 -0.4157
  106OSM    H4G10885   1.794   0.615  10.257  0.5735 -0.0773  2.3035
  106OSM    C5F10886   1.723   0.816  10.187  0.1378 -0.8579  0.0530
  106OSM    H5F10887   1.799   0.888  10.225 -0.2331 -0.1567 -0.5039
  106OSM    H5G10888   1.625   0.864  10.206  0.1773 -1.8832  3.5844
  106OSM    C6F10889   1.730   0.782  10.044 -0.1714 -0.5024  0.3007
  106OSM    H6F10890   1.673   0.688  10.028  0.7281 -1.3197  1.7534
  106OSM    H6G10891   1.832   0.750  10.017 -0.2128  0.3969 -1.0653
  106OSM    C7F10892   1.687   0.898   9.946 -0.3526 -1.0202 -0.5415
  106OSM    H7F10893   1.755   0.984   9.962  0.5473 -1.6327 -0.9657
  106OSM    H7G10894   1.583   0.923   9.977  0.3709 -0.1081  1.2998
  106OSM    C8F10895   1.693   0.849   9.801  0.6290  0.6603 -0.2008
  106OSM    H8F10896   1.634   0.929   9.751  1.2247  1.2251 -0.0069
  106OSM    H8G10897   1.635   0.754   9.797  2.1732 -0.3606  0.6643
  106OSM    C9F10898   1.829   0.840   9.747 -0.1408 -0.0304  0.1520
  106OSM    H9F10899   1.900   0.828   9.830 -0.7184 -0.8108  0.5423
  106OSM   C10F10900   1.871   0.838   9.619 -0.2709  0.0889 -0.4522
  106OSM   H10F10901   1.979   0.824   9.603 -0.2065 -0.3868  0.3465
  106OSM   C11F10902   1.794   0.841   9.493  0.6080  0.4169  0.6992
  106OSM   H11F10903   1.687   0.860   9.515 -0.0099 -0.7489 -1.1381
  106OSM   H11G10904   1.786   0.737   9.455 -0.2583  0.1556  1.5462
  106OSM   C12F10905   1.851   0.942   9.389 -0.0671  0.5926 -0.6353
  106OSM   H12F10906   1.962   0.945   9.395 -0.1014  0.3333  0.6083
  106OSM   H12G10907   1.814   1.045   9.408 -0.3666  0.1645  1.3379
  106OSM   C13F10908   1.811   0.905   9.253 -0.0001  0.8817  0.5523
  106OSM   H13F10909   1.706   0.933   9.228  0.5911  2.6538 -0.0869
  106OSM   H13G10910   1.807   0.795   9.233  0.3589  1.3145 -2.4726
  106OSM   C14F10911   1.898   0.979   9.148  0.1120  0.4652  0.7294
  106OSM   H14F10912   2.005   0.974   9.177  0.6104  1.4751 -0.8488
  106OSM   H14G10913   1.875   1.087   9.136  2.0072  0.8093 -0.2011
  106OSM   C15F10914   1.881   0.916   9.005 -0.0237 -0.5831 -0.3062
  106OSM   H15F10915   1.784   0.953   8.965  0.5647  1.9827  0.4723
  106OSM   H15G10916   1.893   0.805   9.003 -2.1975 -0.8715 -0.1876
  106OSM   C16F10917   1.992   0.969   8.916 -0.6351 -0.4793  0.5582
  106OSM   H16F10918   1.999   1.079   8.930  0.5669 -0.5331  0.5443
  106OSM   H16G10919   1.975   0.955   8.807  0.5263 -0.5050  0.3628
  106OSM   C17F10920   2.135   0.906   8.928  0.2082 -0.2361  0.2680
  106OSM   H17F10921   2.175   0.915   9.031 -1.3515  1.3991  0.7751
  106OSM   H17G10922   2.212   0.963   8.871 -0.1235 -0.9598 -0.9321
  106OSM   C18F10923   2.151   0.768   8.869 -0.1274 -0.1716  0.1731
  106OSM   H18F10924   2.109   0.755   8.767 -3.0925  1.9452  0.9623
  106OSM   H18G10925   2.095   0.696   8.932  0.1587 -1.4719 -1.0071
  106OSM   H18H10926   2.257   0.735   8.877 -0.0468  0.0012 -0.1682
  107OSM      N10927   4.618   5.740  10.984  0.8311  0.3108  0.3154
  107OSM    C1510928   4.713   5.654  11.058 -0.0612  0.1400  1.0653
  107OSM   H15A10929   4.737   5.561  11.009  1.7533  1.9736 -1.7844
  107OSM   H15B10930   4.673   5.623  11.154  1.8714 -0.7362  1.6640
  107OSM   H15C10931   4.807   5.704  11.078 -0.1930  1.2295 -0.8799
  107OSM    C1410932   4.589   5.862  11.065  0.0668 -0.2346 -0.4197
  107OSM   H14A10933   4.536   5.840  11.157 -0.7025 -1.0633 -1.0485
  107OSM   H14B10934   4.531   5.935  11.010 -0.4898  0.1202  0.6052
  107OSM   H14C10935   4.686   5.903  11.088 -1.1552  2.2164  0.7512
  107OSM    C1310936   4.686   5.791  10.858 -0.1952 -0.3097  0.1239
  107OSM   H13A10937   4.626   5.862  10.802 -2.0256 -1.9293 -0.0771
  107OSM   H13B10938   4.720   5.717  10.788  0.3507 -1.5409  1.6230
  107OSM   H13C10939   4.781   5.835  10.885  0.0606 -0.7516 -0.0401
  107OSM    C1210940   4.492   5.672  10.942  0.4744 -0.1506 -0.3430
  107OSM   H12A10941   4.514   5.574  10.903  1.2288 -0.5962  1.1504
  107OSM   H12B10942   4.436   5.735  10.874  0.7620  1.7734  1.1382
  107OSM    C1110943   4.387   5.643  11.060 -0.3520 -0.0491 -0.6157
  107OSM   H11A10944   4.301   5.594  11.009 -1.5059  1.8946 -0.6102
  107OSM   H11B10945   4.359   5.738  11.109  0.0868 -0.2382  0.0256
  107OSM      P10946   4.455   5.397  11.134 -0.0022  0.1453  0.1615
  107OSM    O1310947   4.579   5.340  11.189  0.7352 -0.1447  0.1708
  107OSM    O1410948   4.327   5.339  11.179 -0.7190  0.6689  0.7712
  107OSM    O1110949   4.466   5.384  10.976  0.2889 -0.3859  0.0385
  107OSM    O1210950   4.451   5.556  11.158 -0.5097  0.1865 -0.2931
  107OSM    C1S10951   4.483   5.247  10.934 -0.7758  0.1403 -0.5280
  107OSM    H1S10952   4.423   5.169  10.986 -1.1240  0.2543 -0.7602
  107OSM    H1T10953   4.588   5.218  10.914 -0.7708  0.3117 -0.7497
  107OSM     NF10954   4.450   5.080  10.760 -0.0852 -0.1089  0.1654
  107OSM    HNF10955   4.535   5.032  10.738  1.6158  1.1312  3.3564
  107OSM    C2S10956   4.445   5.227  10.780 -0.9415  0.4071 -0.1977
  107OSM    H2S10957   4.342   5.267  10.767 -0.9106  0.5659  0.0503
  107OSM    C3S10958   4.538   5.304  10.685  0.0470  0.0638  0.0385
  107OSM    H3S10959   4.635   5.250  10.679  0.1778  0.1385  1.2441
  107OSM     O310960   4.556   5.439  10.733 -0.4928 -0.3715 -0.0519
  107OSM    HO310961   4.519   5.429  10.821  0.8812 -0.3731  0.5575
  107OSM    C4S10962   4.486   5.311  10.549  0.4089 -1.0340  0.1317
  107OSM    H4S10963   4.430   5.406  10.536  0.4850 -1.1461 -1.0957
  107OSM    C5S10964   4.503   5.225  10.451  0.6912 -0.2652  0.0433
  107OSM    H5S10965   4.550   5.127  10.467  0.0498 -0.4616  0.7909
  107OSM    C6S10966   4.439   5.253  10.312 -0.2743 -0.7607 -0.1406
  107OSM    H6S10967   4.350   5.320  10.312  0.7190  0.6051 -1.1844
  107OSM    H6T10968   4.390   5.171  10.254 -1.1918 -0.1761 -0.2146
  107OSM    C7S10969   4.536   5.327  10.224  0.2372 -0.7586 -0.1638
  107OSM    H7S10970   4.640   5.287  10.217  0.5349  0.0210 -0.2785
  107OSM    H7T10971   4.534   5.431  10.263 -0.0087 -1.3076  1.3410
  107OSM    C8S10972   4.480   5.327  10.084  0.2933  0.2595  0.1527
  107OSM    H8S10973   4.390   5.393  10.086  0.2789  0.3031 -1.0703
  107OSM    H8T10974   4.438   5.232  10.043  1.9670  0.0242 -1.1181
  107OSM    C9S10975   4.587   5.380   9.986 -0.0889 -1.1071  0.1610
  107OSM    H9S10976   4.682   5.323   9.989  1.5627  1.3420 -1.3813
  107OSM    H9T10977   4.597   5.486  10.019 -0.2727 -0.8805 -0.4968
  107OSM   C10S10978   4.549   5.380   9.834 -0.0759 -0.6252  0.1493
  107OSM   H10S10979   4.622   5.441   9.777 -0.0929  0.1142  0.8921
  107OSM   H10T10980   4.448   5.422   9.815  0.7918  1.0575 -0.9573
  107OSM   C11S10981   4.576   5.240   9.772  0.3171 -0.1542  0.0690
  107OSM   H11S10982   4.504   5.174   9.824  0.3077  1.4712  2.2689
  107OSM   H11T10983   4.682   5.213   9.791  1.0819  0.4313 -2.8870
  107OSM   C12S10984   4.541   5.225   9.618 -0.5954  0.7933  0.4885
  107OSM   H12S10985   4.433   5.235   9.596 -0.1493 -1.2173 -3.3529
  107OSM   H12T10986   4.564   5.121   9.587 -1.9030  1.0889 -1.6844
  107OSM   C13S10987   4.632   5.317   9.530  0.2282  0.1618 -0.0147
  107OSM   H13S10988   4.729   5.324   9.585 -1.0310 -0.3757  2.4217
  107OSM   H13T10989   4.573   5.411   9.535  0.0763  0.1019 -0.5969
  107OSM   C14S10990   4.645   5.274   9.388 -0.0022 -0.0491  0.6191
  107OSM   H14S10991   4.545   5.236   9.355  0.9581 -2.5957  0.3826
  107OSM   H14T10992   4.711   5.185   9.382 -1.2261 -1.1006  1.9116
  107OSM   C15S10993   4.678   5.380   9.289 -0.0319  0.4491 -0.0197
  107OSM   H15S10994   4.770   5.431   9.327  0.3983  1.0455 -1.7855
  107OSM   H15T10995   4.592   5.450   9.287  0.5241  1.1321 -0.7519
  107OSM   C16S10996   4.708   5.325   9.150 -0.2353 -0.8475 -0.4232
  107OSM   H16S10997   4.616   5.281   9.105 -1.4715  1.7226 -0.5995
  107OSM   H16T10998   4.782   5.244   9.163  0.4497 -0.4756 -1.8003
  107OSM   C17S10999   4.768   5.421   9.045  0.0676 -0.3256 -0.0889
  107OSM   H17S11000   4.696   5.506   9.041  0.1746 -0.2864 -1.3338
  107OSM   H17T11001   4.767   5.374   8.945 -0.2127  2.1898 -1.3593
  107OSM   C18S11002   4.909   5.471   9.089  0.6820  0.3332 -0.1780
  107OSM   H18S11003   4.896   5.542   9.174  1.6524 -0.0780  0.3365
  107OSM   H18T11004   4.957   5.538   9.015 -0.7187  1.5207 -0.0551
  107OSM   H18U11005   4.977   5.387   9.117  0.5116  0.4137  0.5145
  107OSM    C1F11006   4.355   5.001  10.803  0.4096 -0.5619  0.3667
  107OSM     OF11007   4.257   5.035  10.870  0.4082  0.4245 -0.8966
  107OSM    C2F11008   4.371   4.858  10.763 -0.4264 -0.7727  0.3181
  107OSM    H2F11009   4.391   4.794  10.851  0.0969  0.1105  0.8499
  107OSM    H2G11010   4.457   4.844  10.695 -1.7827 -0.3857 -1.5650
  107OSM    C3F11011   4.243   4.797  10.703 -0.4688 -0.0434  0.2293
  107OSM    H3F11012   4.165   4.808  10.781  0.0039 -0.0346  0.7052
  107OSM    H3G11013   4.259   4.688  10.688  0.6045  0.2876 -1.3761
  107OSM    C4F11014   4.194   4.870  10.580 -0.1277  0.2117 -0.1276
  107OSM    H4F11015   4.178   4.979  10.595 -0.7828  0.0508  0.3843
  107OSM    H4G11016   4.094   4.835  10.545  1.5681 -2.5418 -2.6141
  107OSM    C5F11017   4.285   4.853  10.464 -0.7510  0.3678 -0.5074
  107OSM    H5F11018   4.305   4.747  10.434 -3.3322  0.0487 -1.2927
  107OSM    H5G11019   4.386   4.894  10.485  0.1000 -1.9181  0.1866
  107OSM    C6F11020   4.228   4.922  10.338  1.0235 -0.5805  0.3730
  107OSM    H6F11021   4.228   5.029  10.368 -0.8476  0.2146 -2.0593
  107OSM    H6G11022   4.128   4.876  10.325  0.6316  0.3280  0.1235
  107OSM    C7F11023   4.316   4.905  10.212  0.4414 -0.2906  0.4461
  107OSM    H7F11024   4.333   4.795  10.204  1.6496 -0.0768 -0.1443
  107OSM    H7G11025   4.417   4.949  10.227  1.8602 -2.3807 -2.0219
  107OSM    C8F11026   4.245   4.964  10.081  0.0850  0.4555 -0.3725
  107OSM    H8F11027   4.243   5.074  10.097  0.9833  0.2043  1.8947
  107OSM    H8G11028   4.143   4.919  10.078  0.5098 -0.5238 -0.7367
  107OSM    C9F11029   4.322   4.930   9.955 -0.1824  0.2555  0.5425
  107OSM    H9F11030   4.428   4.960   9.960  0.0257 -0.4045  0.2058
  107OSM   C10F11031   4.287   4.863   9.842  0.5446  0.0577  1.3849
  107OSM   H10F11032   4.363   4.857   9.763  1.2900  2.8061  1.7941
  107OSM   C11F11033   4.145   4.828   9.800 -0.0324  0.4892 -0.6198
  107OSM   H11F11034   4.078   4.866   9.880  1.5241 -1.8145  1.9403
  107OSM   H11G11035   4.136   4.717   9.798  1.4771  0.2136  2.5878
  107OSM   C12F11036   4.090   4.892   9.667  0.0487 -0.8904 -0.4724
  107OSM   H12F11037   4.080   5.002   9.680 -0.7597 -0.7901 -1.8085
  107OSM   H12G11038   3.988   4.850   9.655  0.4222 -2.1310  0.4590
  107OSM   C13F11039   4.181   4.867   9.545 -0.0049 -0.1400  0.4655
  107OSM   H13F11040   4.225   4.765   9.548  0.2684 -0.0322  0.1868
  107OSM   H13G11041   4.259   4.947   9.545  0.5022 -0.6030  1.5769
  107OSM   C14F11042   4.103   4.886   9.418  0.3672 -0.2831  0.0045
  107OSM   H14F11043   4.071   4.992   9.417 -0.4321 -0.4788  1.5318
  107OSM   H14G11044   4.016   4.820   9.441  2.2504 -2.7861  0.3739
  107OSM   C15F11045   4.165   4.838   9.278  0.2624  0.7469 -0.1413
  107OSM   H15F11046   4.191   4.732   9.295  2.0357  1.6806  4.2462
  107OSM   H15G11047   4.257   4.897   9.257 -0.0020  1.0326 -0.5163
  107OSM   C16F11048   4.076   4.853   9.154 -0.1299 -0.2134  1.2108
  107OSM   H16F11049   4.142   4.850   9.065 -1.2000  0.1269  0.3980
  107OSM   H16G11050   4.041   4.958   9.154 -1.7118 -0.6426 -2.0872
  107OSM   C17F11051   3.955   4.770   9.158  0.3635 -0.2599 -0.8957
  107OSM   H17F11052   3.893   4.790   9.248  3.2640 -0.4724  1.2812
  107OSM   H17G11053   3.990   4.665   9.158  1.0308 -0.0453 -1.1899
  107OSM   C18F11054   3.866   4.800   9.042  0.3146  0.5240 -0.1178
  107OSM   H18F11055   3.824   4.902   9.043 -2.8697 -0.6745  0.4596
  107OSM   H18G11056   3.779   4.732   9.054  0.2769  0.2477 -1.6934
  107OSM   H18H11057   3.919   4.784   8.945  0.2473  3.1546 -0.6602
  108OSM      N11058   2.208   2.818  10.819  0.2559 -0.4757  0.5607
  108OSM    C1511059   2.266   2.899  10.699  0.5789 -0.0669  0.2060
  108OSM   H15A11060   2.184   2.906  10.629  0.5755  1.2040  0.3197
  108OSM   H15B11061   2.341   2.845  10.643  0.1018  1.2675 -1.8097
  108OSM   H15C11062   2.290   3.000  10.727  1.0946  0.6760 -2.6071
  108OSM    C1411063   2.294   2.809  10.939 -0.0254  0.5361  0.5173
  108OSM   H14A11064   2.258   2.734  11.008 -2.5998  1.2257  0.0362
  108OSM   H14B11065   2.308   2.905  10.988  1.1200  0.2897  0.6954
  108OSM   H14C11066   2.393   2.770  10.920 -0.4137 -1.2537  1.8842
  108OSM    C1311067   2.079   2.894  10.848  0.3080 -0.0947  0.4297
  108OSM   H13A11068   2.022   2.903  10.757  1.5354 -0.3084 -0.3890
  108OSM   H13B11069   2.107   2.996  10.871 -0.5273  0.8046 -2.2155
  108OSM   H13C11070   2.021   2.845  10.925 -0.5071 -1.0732 -0.7652
  108OSM    C1211071   2.174   2.684  10.774 -0.2526 -0.2598  0.1368
  108OSM   H12A11072   2.263   2.647  10.725  0.0856  0.1005  0.4709
  108OSM   H12B11073   2.100   2.696  10.697 -0.3575  1.1677  0.4373
  108OSM    C1111074   2.130   2.576  10.870  0.1343 -0.3357 -0.5907
  108OSM   H11A11075   2.203   2.588  10.953 -0.3229  2.0904 -0.4564
  108OSM   H11B11076   2.149   2.475  10.828  0.9091  0.3749 -2.0237
  108OSM      P11077   1.877   2.514  10.862  0.0556  0.5992 -0.2039
  108OSM    O1311078   1.895   2.371  10.895  0.7401 -0.0312 -0.0081
  108OSM    O1411079   1.753   2.571  10.921 -0.1643 -0.1748  0.2938
  108OSM    O1111080   1.872   2.534  10.709 -0.1843 -0.2356  0.1691
  108OSM    O1211081   1.994   2.600  10.913  0.3590 -0.5746  0.1085
  108OSM    C1S11082   1.956   2.454  10.619 -0.2116  0.3552 -0.0316
  108OSM    H1S11083   1.923   2.348  10.621 -0.2584  0.3630  1.5752
  108OSM    H1T11084   2.064   2.456  10.646 -0.5555  0.1277  1.4969
  108OSM     NF11085   2.010   2.428  10.383 -0.3061 -0.1217  0.6360
  108OSM    HNF11086   2.107   2.445  10.366 -0.4102  0.7657  0.9102
  108OSM    C2S11087   1.948   2.519  10.478 -0.2024  0.7120 -0.2657
  108OSM    H2S11088   1.838   2.518  10.462 -0.1310 -2.2016 -1.0975
  108OSM    C3S11089   1.997   2.663  10.464 -0.5222  0.4883 -0.8617
  108OSM    H3S11090   2.108   2.661  10.465 -0.5094  1.0033  0.0854
  108OSM     O311091   1.957   2.758  10.567  0.2586  0.5189  0.1342
  108OSM    HO311092   1.895   2.712  10.624  0.4643 -0.1527 -0.1782
  108OSM    C4S11093   1.954   2.708  10.331 -0.2750  0.4863  0.0445
  108OSM    H4S11094   2.023   2.673  10.252  0.6284  2.0717  0.0825
  108OSM    C5S11095   1.843   2.774  10.285 -0.4509 -0.2501 -0.2551
  108OSM    H5S11096   1.777   2.809  10.366  0.4106 -0.0750  0.3901
  108OSM    C6S11097   1.814   2.823  10.148 -0.0590  0.3706 -0.9951
  108OSM    H6S11098   1.844   2.930  10.150 -0.6693  0.5418  1.0254
  108OSM    H6T11099   1.708   2.802  10.119 -0.3363  1.7690 -1.0794
  108OSM    C7S11100   1.908   2.777  10.035 -0.0822  0.0618 -0.0930
  108OSM    H7S11101   1.894   2.668  10.019  0.3730  0.1549 -1.2779
  108OSM    H7T11102   2.012   2.788  10.072 -0.0822 -1.3157  0.3488
  108OSM    C8S11103   1.884   2.844   9.899  0.1518 -0.2239  0.3963
  108OSM    H8S11104   1.913   2.951   9.909  2.7284 -0.4629 -2.8310
  108OSM    H8T11105   1.775   2.836   9.880  0.0075  0.3431  0.9610
  108OSM    C9S11106   1.959   2.765   9.780 -0.0289 -0.2451 -0.2829
  108OSM    H9S11107   1.923   2.659   9.778  2.2149 -1.1150  1.4767
  108OSM    H9T11108   2.066   2.764   9.809 -0.4742 -0.1226  1.4532
  108OSM   C10S11109   1.933   2.821   9.646  0.0274  0.4788 -0.0756
  108OSM   H10S11110   1.964   2.928   9.647  3.5245 -0.3732  3.1693
  108OSM   H10T11111   1.822   2.817   9.632 -0.0459 -0.0839  0.6098
  108OSM   C11S11112   2.006   2.752   9.528 -0.6715  0.7111 -0.1804
  108OSM   H11S11113   2.006   2.641   9.538  2.3339  0.5953 -0.4529
  108OSM   H11T11114   2.112   2.788   9.530 -0.2365 -0.5397  1.1343
  108OSM   C12S11115   1.947   2.788   9.396 -0.1239  0.0797  0.1410
  108OSM   H12S11116   1.969   2.896   9.380  0.2623  0.3837  2.4719
  108OSM   H12T11117   1.836   2.795   9.398 -0.2517 -1.5208 -0.0648
  108OSM   C13S11118   2.000   2.703   9.274 -0.7129 -0.1234 -0.4928
  108OSM   H13S11119   1.972   2.599   9.301 -0.3918 -0.5324 -1.6738
  108OSM   H13T11120   2.110   2.696   9.284 -0.6405 -2.7252 -2.1854
  108OSM   C14S11121   1.946   2.756   9.142  0.7839 -0.1600 -0.3133
  108OSM   H14S11122   2.002   2.851   9.128  2.5659 -1.1450 -0.2281
  108OSM   H14T11123   1.838   2.779   9.152 -0.2650 -2.4181 -4.1695
  108OSM   C15S11124   1.973   2.658   9.034  0.4364 -0.0405 -0.4965
  108OSM   H15S11125   1.903   2.574   9.056  0.3199  0.1873 -0.0038
  108OSM   H15T11126   2.077   2.619   9.038 -0.2426 -1.8176  2.7824
  108OSM   C16S11127   1.931   2.708   8.898  0.2344 -0.0214 -0.0289
  108OSM   H16S11128   2.002   2.786   8.862  0.2274 -1.0894 -2.5364
  108OSM   H16T11129   1.834   2.762   8.909 -0.0166 -0.5560  0.4345
  108OSM   C17S11130   1.915   2.600   8.791  0.5344  0.2562 -0.4714
  108OSM   H17S11131   1.876   2.653   8.701  1.3373  0.4024 -0.7433
  108OSM   H17T11132   1.827   2.538   8.820  1.6461 -0.9411  0.4307
  108OSM   C18S11133   2.037   2.508   8.774 -0.4979 -0.3454 -0.8262
  108OSM   H18S11134   2.055   2.456   8.871  0.0926  0.0240 -0.7328
  108OSM   H18T11135   2.123   2.570   8.743 -0.2309 -1.0518 -1.5361
  108OSM   H18U11136   2.016   2.420   8.710 -0.0123 -1.9092  1.0670
  108OSM    C1F11137   1.974   2.300  10.365  0.3876  0.4851  0.5479
  108OSM     OF11138   1.857   2.269  10.389  0.1341  0.2656  0.0658
  108OSM    C2F11139   2.081   2.212  10.300  0.3660  0.8357 -0.7729
  108OSM    H2F11140   2.133   2.157  10.382  1.8359  1.6523 -1.1294
  108OSM    H2G11141   2.146   2.274  10.235 -1.2936  2.6516 -0.7900
  108OSM    C3F11142   2.015   2.103  10.213  0.6513 -0.1168  0.1645
  108OSM    H3F11143   1.968   2.155  10.127  0.1918 -1.4881 -0.4372
  108OSM    H3G11144   1.940   2.046  10.272  1.1075 -1.1021 -0.1834
  108OSM    C4F11145   2.113   1.994  10.157  1.0266 -0.3315 -0.5887
  108OSM    H4F11146   2.062   1.898  10.136 -1.4109  0.9262 -0.7202
  108OSM    H4G11147   2.183   1.955  10.234 -0.3873 -1.4350  0.1704
  108OSM    C5F11148   2.179   2.030  10.026  0.6096 -0.1911 -1.0743
  108OSM    H5F11149   2.268   1.966  10.010  2.1184  0.7167  2.6303
  108OSM    H5G11150   2.226   2.130  10.039 -0.1927 -0.1629  2.4601
  108OSM    C6F11151   2.083   2.029   9.907 -0.0438  0.0944  0.0517
  108OSM    H6F11152   2.006   2.106   9.925  1.1722  0.6043  4.1772
  108OSM    H6G11153   2.036   1.928   9.904 -1.2682  0.6808 -1.1799
  108OSM    C7F11154   2.154   2.060   9.773 -0.2937  0.4899 -0.1277
  108OSM    H7F11155   2.230   1.983   9.748  0.2833  0.5791  1.2594
  108OSM    H7G11156   2.214   2.153   9.786 -0.0768  0.2185  0.9053
  108OSM    C8F11157   2.052   2.086   9.658  0.1494 -0.2019 -0.5203
  108OSM    H8F11158   2.094   2.146   9.575 -2.1006 -0.5098 -1.9633
  108OSM    H8G11159   1.969   2.150   9.697 -0.2878 -1.0081 -0.0931
  108OSM    C9F11160   2.002   1.959   9.603 -0.2521 -0.6210 -0.4237
  108OSM    H9F11161   1.982   1.872   9.668  0.3791 -0.1363  0.4336
  108OSM   C10F11162   1.973   1.941   9.473 -0.0859  0.4337  0.3224
  108OSM   H10F11163   1.930   1.845   9.442 -1.6828  0.8527  1.1642
  108OSM   C11F11164   1.981   2.033   9.350 -0.1768  0.1418  0.0582
  108OSM   H11F11165   1.965   2.141   9.375  1.2844  0.4968 -0.4705
  108OSM   H11G11166   1.887   2.000   9.300  0.3640 -0.7468 -0.3842
  108OSM   C12F11167   2.098   2.029   9.255  0.5340  0.8633 -0.6326
  108OSM   H12F11168   2.107   1.921   9.229  0.3869  0.6751  0.0881
  108OSM   H12G11169   2.195   2.060   9.300  0.9947 -1.0062 -0.2378
  108OSM   C13F11170   2.086   2.122   9.133 -0.6030  1.0158 -0.0988
  108OSM   H13F11171   2.186   2.130   9.085 -0.8185  0.2670 -0.6993
  108OSM   H13G11172   2.062   2.227   9.159 -3.5551 -0.1191  2.3576
  108OSM   C14F11173   1.996   2.062   9.026 -0.0330  0.2512  0.1677
  108OSM   H14F11174   1.896   2.055   9.072 -0.8449 -0.2604 -1.5650
  108OSM   H14G11175   2.040   1.964   8.998 -2.4013 -0.5974 -0.8843
  108OSM   C15F11176   1.970   2.143   8.901  0.1408 -0.2346  0.8617
  108OSM   H15F11177   2.044   2.112   8.824 -0.2178 -0.1152  0.4656
  108OSM   H15G11178   1.974   2.254   8.911  0.6839 -0.3085  1.5929
  108OSM   C16F11179   1.834   2.116   8.827  0.1200  0.1326 -0.5429
  108OSM   H16F11180   1.748   2.149   8.888  0.5978  4.1055 -1.6830
  108OSM   H16G11181   1.827   2.005   8.823  0.6796 -0.0736  2.2240
  108OSM   C17F11182   1.825   2.180   8.684 -0.0481  0.0296  0.2686
  108OSM   H17F11183   1.915   2.150   8.625 -0.1655  1.2054 -0.5531
  108OSM   H17G11184   1.831   2.291   8.694 -0.4826 -0.0445  1.5615
  108OSM   C18F11185   1.709   2.137   8.605 -0.2491  0.4519  0.4602
  108OSM   H18F11186   1.616   2.189   8.638  0.0976  0.9163  0.7170
  108OSM   H18G11187   1.694   2.027   8.608 -0.6980  0.5292  1.8350
  108OSM   H18H11188   1.719   2.161   8.497  0.7889 -0.4726  0.3385
  109OSM      N11189   2.147   3.667  10.954  0.5780  0.0106 -0.3133
  109OSM    C1511190   2.082   3.757  11.054 -0.6638 -0.5519 -0.9830
  109OSM   H15A11191   1.976   3.772  11.046 -0.4479  0.6169 -1.9096
  109OSM   H15B11192   2.125   3.856  11.058 -0.5870 -0.5759  2.9362
  109OSM   H15C11193   2.104   3.721  11.154  3.9794 -0.6946 -1.8382
  109OSM    C1411194   2.295   3.668  10.973  0.4590 -0.5747  0.1280
  109OSM   H14A11195   2.336   3.768  10.981 -1.4532  0.1658  1.2428
  109OSM   H14B11196   2.345   3.616  10.892  1.7005 -1.0181  1.1403
  109OSM   H14C11197   2.319   3.608  11.060 -0.9705 -5.0038 -2.2019
  109OSM    C1311198   2.084   3.537  10.980 -0.3449 -0.3070 -0.0011
  109OSM   H13A11199   2.110   3.465  10.904  2.0274 -0.7218  1.1089
  109OSM   H13B11200   1.976   3.542  10.982 -0.5070 -1.7485 -2.1003
  109OSM   H13C11201   2.111   3.491  11.073  0.2436  0.2213  0.1019
  109OSM    C1211202   2.118   3.715  10.813  0.0411  0.3556  0.3285
  109OSM   H12A11203   2.202   3.778  10.785 -0.0143  0.7085  0.9226
  109OSM   H12B11204   2.026   3.772  10.816 -0.1196  0.2507 -1.6630
  109OSM    C1111205   2.097   3.610  10.703  0.1797  0.0358  0.3186
  109OSM   H11A11206   2.055   3.670  10.619 -1.9391 -1.8277 -0.0622
  109OSM   H11B11207   2.012   3.540  10.718  0.6529 -0.3672  1.1961
  109OSM      P11208   2.318   3.622  10.575  0.1090  0.4141  0.4832
  109OSM    O1311209   2.340   3.765  10.617  0.6299  0.0012 -0.5517
  109OSM    O1411210   2.434   3.533  10.559 -0.1639 -0.3983 -1.1817
  109OSM    O1111211   2.245   3.607  10.439 -0.1076 -0.6937  0.5948
  109OSM    O1211212   2.223   3.552  10.665  0.2368 -1.0516 -0.0210
  109OSM    C1S11213   2.146   3.509  10.414  0.5753 -0.5969 -0.6939
  109OSM    H1S11214   2.047   3.549  10.447  1.9984  3.4903 -0.8456
  109OSM    H1T11215   2.163   3.416  10.472  0.1617 -0.0514  0.3289
  109OSM     NF11216   2.023   3.385  10.243  0.3548  0.2188 -0.4371
  109OSM    HNF11217   2.049   3.291  10.223  0.6209  0.3276 -0.6175
  109OSM    C2S11218   2.133   3.472  10.265 -0.0202 -0.1265 -0.6769
  109OSM    H2S11219   2.119   3.568  10.211 -1.6405  1.2354  1.9618
  109OSM    C3S11220   2.266   3.397  10.232 -0.2417  0.7654  0.4938
  109OSM    H3S11221   2.269   3.303  10.293 -0.5715 -0.1978 -0.9343
  109OSM     O311222   2.395   3.456  10.274  0.2685  0.1281 -0.2952
  109OSM    HO311223   2.369   3.519  10.341  1.0185  1.0818 -0.8725
  109OSM    C4S11224   2.258   3.383  10.084 -0.0886  0.1702  0.1352
  109OSM    H4S11225   2.253   3.471  10.018 -2.9277 -0.0075  0.0287
  109OSM    C5S11226   2.228   3.267  10.025  0.1738  0.0409  1.1540
  109OSM    H5S11227   2.217   3.174  10.082  1.4091 -0.6403  0.3104
  109OSM    C6S11228   2.216   3.255   9.876 -0.1423 -0.6483 -0.0548
  109OSM    H6S11229   2.119   3.208   9.850 -1.3841  0.3382  2.4343
  109OSM    H6T11230   2.292   3.188   9.830  0.5126 -0.3900  0.6213
  109OSM    C7S11231   2.221   3.375   9.774 -0.0127 -0.0025 -0.1357
  109OSM    H7S11232   2.324   3.417   9.779 -0.0471  0.2787 -1.3310
  109OSM    H7T11233   2.153   3.461   9.792 -0.9658 -1.3312  3.4756
  109OSM    C8S11234   2.181   3.329   9.634 -0.3017  0.1298 -0.0628
  109OSM    H8S11235   2.091   3.264   9.639  0.2504 -0.5888  0.9935
  109OSM    H8T11236   2.256   3.256   9.594  0.7925  0.6074  1.0637
  109OSM    C9S11237   2.166   3.431   9.529  0.4392 -1.1130 -0.3838
  109OSM    H9S11238   2.246   3.508   9.543  2.2895 -2.5764 -2.2886
  109OSM    H9T11239   2.068   3.481   9.541  1.0034 -0.1365  0.3487
  109OSM   C10S11240   2.166   3.372   9.385  0.4602 -0.9441 -0.7545
  109OSM   H10S11241   2.082   3.300   9.382 -2.8463  2.5261  0.4009
  109OSM   H10T11242   2.266   3.330   9.361  0.3579 -1.3845 -0.4234
  109OSM   C11S11243   2.143   3.486   9.281 -0.1813 -0.0214  0.6333
  109OSM   H11S11244   2.230   3.555   9.266 -0.7790  1.0405  1.9102
  109OSM   H11T11245   2.065   3.553   9.321 -0.6451  0.6627 -1.2943
  109OSM   C12S11246   2.117   3.426   9.139 -0.6377 -0.4965 -1.0116
  109OSM   H12S11247   2.019   3.374   9.148 -0.6300 -0.3175  0.3155
  109OSM   H12T11248   2.201   3.356   9.118 -0.4356 -0.3538 -0.6794
  109OSM   C13S11249   2.105   3.530   9.027  0.4280  0.4062 -0.2170
  109OSM   H13S11250   2.211   3.558   9.008  1.3901 -1.4196  1.9827
  109OSM   H13T11251   2.048   3.617   9.067 -1.4060 -0.7311 -0.2323
  109OSM   C14S11252   2.036   3.484   8.897  0.4764 -0.5451 -0.6835
  109OSM   H14S11253   1.953   3.414   8.919 -0.0110  0.1977 -0.0880
  109OSM   H14T11254   2.106   3.417   8.843  0.7697  0.1249 -1.1579
  109OSM   C15S11255   1.986   3.605   8.813 -0.3044 -0.1237 -0.2221
  109OSM   H15S11256   2.072   3.661   8.772  0.8160 -1.6968 -0.1008
  109OSM   H15T11257   1.939   3.668   8.892 -0.6981 -1.4304  0.6067
  109OSM   C16S11258   1.882   3.583   8.704  0.8490 -0.4922  0.3694
  109OSM   H16S11259   1.937   3.509   8.642  1.3219 -0.2896  0.5473
  109OSM   H16T11260   1.870   3.681   8.654  0.9086 -1.3748 -1.4703
  109OSM   C17S11261   1.743   3.543   8.747 -0.1196  0.9253 -0.2991
  109OSM   H17S11262   1.716   3.612   8.830 -3.5961  0.8485 -1.2158
  109OSM   H17T11263   1.759   3.444   8.793 -4.3793  0.9154  1.6216
  109OSM   C18S11264   1.642   3.529   8.644  0.3151 -0.0805 -0.4196
  109OSM   H18S11265   1.628   3.621   8.582 -2.8562 -1.1806 -1.5289
  109OSM   H18T11266   1.539   3.510   8.680 -0.0663 -0.0584 -1.4577
  109OSM   H18U11267   1.678   3.445   8.582 -2.4102 -0.5169 -1.5401
  109OSM    C1F11268   1.893   3.416  10.245 -0.4106 -0.0195 -0.3012
  109OSM     OF11269   1.843   3.526  10.261  0.7711 -0.7439  0.3259
  109OSM    C2F11270   1.799   3.300  10.213 -0.4214  0.8772  0.8685
  109OSM    H2F11271   1.735   3.284  10.302 -0.8040  1.7669  0.7661
  109OSM    H2G11272   1.863   3.214  10.183 -0.8774  0.6453  0.5338
  109OSM    C3F11273   1.707   3.324  10.091 -0.1502  0.3875  0.1202
  109OSM    H3F11274   1.659   3.423  10.105 -0.9743 -0.2001  1.7047
  109OSM    H3G11275   1.619   3.256  10.095  0.0563  0.0756 -0.4718
  109OSM    C4F11276   1.787   3.302   9.961 -0.2829  0.6356  0.3889
  109OSM    H4F11277   1.822   3.198   9.944 -0.4246  0.8895 -1.7367
  109OSM    H4G11278   1.870   3.376   9.955 -1.1112  1.6493  1.0671
  109OSM    C5F11279   1.691   3.325   9.845 -0.0883 -0.4079 -0.6346
  109OSM    H5F11280   1.673   3.435   9.850 -1.7311 -0.6811  0.2194
  109OSM    H5G11281   1.595   3.277   9.873 -0.2198  0.4375  0.4106
  109OSM    C6F11282   1.746   3.279   9.698  0.1647 -0.2281 -0.3735
  109OSM    H6F11283   1.770   3.171   9.710  1.6343  0.3292  2.7508
  109OSM    H6G11284   1.836   3.344   9.687 -0.5432  0.8254 -0.1664
  109OSM    C7F11285   1.648   3.298   9.583 -0.1330 -0.5434  0.5654
  109OSM    H7F11286   1.593   3.391   9.607 -1.4890 -1.2688  0.3568
  109OSM    H7G11287   1.578   3.212   9.594 -0.4771 -0.3927 -0.3925
  109OSM    C8F11288   1.731   3.305   9.445 -0.4150 -0.0006 -1.0813
  109OSM    H8F11289   1.821   3.367   9.462 -0.1893 -0.9736  1.8062
  109OSM    H8G11290   1.659   3.360   9.379 -0.7127  1.3673  0.3242
  109OSM    C9F11291   1.767   3.161   9.403 -0.5770  0.1172 -0.6538
  109OSM    H9F11292   1.843   3.115   9.469 -1.3206  0.6417  0.6026
  109OSM   C10F11293   1.717   3.093   9.302 -1.0579  0.4513 -0.6438
  109OSM   H10F11294   1.765   2.996   9.283 -0.6915  0.5758 -0.3609
  109OSM   C11F11295   1.613   3.140   9.204  0.5841  0.9791 -0.4065
  109OSM   H11F11296   1.555   3.223   9.249  0.3573  1.1617 -1.0289
  109OSM   H11G11297   1.535   3.063   9.184 -0.0454  1.1973  1.1022
  109OSM   C12F11298   1.665   3.191   9.066  0.2960  0.2779  0.1942
  109OSM   H12F11299   1.748   3.260   9.093 -0.0885  0.2512  1.4745
  109OSM   H12G11300   1.582   3.247   9.018 -1.7756 -0.3944  2.7662
  109OSM   C13F11301   1.696   3.077   8.965 -0.1299 -0.3679 -0.9072
  109OSM   H13F11302   1.609   3.020   8.925 -1.2119  0.0614  0.7099
  109OSM   H13G11303   1.766   3.001   9.005  2.7294  1.1729 -2.6365
  109OSM   C14F11304   1.762   3.146   8.843  0.2478  0.8903 -0.0931
  109OSM   H14F11305   1.864   3.187   8.860  0.6910  0.0176 -0.5336
  109OSM   H14G11306   1.692   3.230   8.825 -0.1419  0.6521  0.2987
  109OSM   C15F11307   1.776   3.048   8.722  0.4671 -0.0795  0.1721
  109OSM   H15F11308   1.684   2.986   8.714 -0.6361  1.2660  1.6688
  109OSM   H15G11309   1.861   2.979   8.741 -1.8277 -3.5424 -1.1147
  109OSM   C16F11310   1.806   3.120   8.582  0.3957  0.4870  1.5421
  109OSM   H16F11311   1.743   3.210   8.569  1.4052  1.3456  2.4943
  109OSM   H16G11312   1.794   3.055   8.492  0.3121  1.2231  1.0128
  109OSM   C17F11313   1.948   3.178   8.579  0.0364 -0.1570 -0.2433
  109OSM   H17F11314   2.017   3.091   8.584 -0.2225 -0.5311 -2.3402
  109OSM   H17G11315   1.947   3.253   8.661 -2.8808  0.9304 -1.1490
  109OSM   C18F11316   1.988   3.260   8.458 -0.6242  0.4293  0.4527
  109OSM   H18F11317   2.005   3.202   8.365 -2.3803  0.8165 -0.1445
  109OSM   H18G11318   2.085   3.304   8.489 -2.2761  2.4348  3.2534
  109OSM   H18H11319   1.924   3.351   8.449  0.4117  1.1968  0.6320
  110OSM      N11320   3.979   1.073  11.038 -0.6451 -0.2485  0.1560
  110OSM    C1511321   4.125   1.085  11.036 -0.1089  0.1794 -0.2216
  110OSM   H15A11322   4.170   1.153  11.107 -1.3351 -1.7348  2.5886
  110OSM   H15B11323   4.151   1.110  10.935  0.2631 -0.6382 -0.3382
  110OSM   H15C11324   4.175   0.996  11.072 -0.0498  0.4777  0.4527
  110OSM    C1411325   3.936   1.082  11.182 -0.3610 -0.5130  0.5616
  110OSM   H14A11326   3.968   1.174  11.229 -1.2278  0.0150  0.1354
  110OSM   H14B11327   3.988   0.999  11.229  1.1511  0.1264  0.0567
  110OSM   H14C11328   3.829   1.076  11.196 -0.8572  0.0163 -2.3850
  110OSM    C1311329   3.918   1.192  10.968 -0.8194  0.1404 -0.0621
  110OSM   H13A11330   3.922   1.181  10.860  1.6534 -1.2804  0.0954
  110OSM   H13B11331   3.958   1.290  10.990 -0.3357  0.4785 -2.1556
  110OSM   H13C11332   3.813   1.203  10.987 -0.4244  2.8931  1.0349
  110OSM    C1211333   3.943   0.944  10.972  0.5030 -0.6868 -0.5917
  110OSM   H12A11334   4.004   0.867  11.017 -0.1048 -1.4164 -0.9901
  110OSM   H12B11335   3.975   0.943  10.869  1.8126 -0.2755 -0.2106
  110OSM    C1111336   3.798   0.898  10.986  0.0933  0.3783 -0.8602
  110OSM   H11A11337   3.783   0.895  11.096  2.3023  1.8233 -0.4480
  110OSM   H11B11338   3.790   0.794  10.948  0.6457  0.0313 -0.0420
  110OSM      P11339   3.660   0.949  10.785 -0.1187 -0.1273  0.0630
  110OSM    O1311340   3.580   0.830  10.792 -0.3289 -0.0132 -0.5977
  110OSM    O1411341   3.614   1.075  10.719 -0.2675  0.0032 -0.8530
  110OSM    O1111342   3.798   0.912  10.718 -0.1248  0.0943 -0.0400
  110OSM    O1211343   3.706   0.984  10.930  0.4570  0.4649 -0.1144
  110OSM    C1S11344   3.820   0.835  10.604  0.1766  0.1940  0.0877
  110OSM    H1S11345   3.750   0.752  10.580  1.5627 -0.2223 -2.9232
  110OSM    H1T11346   3.923   0.795  10.619  0.3098  0.2706 -0.6256
  110OSM     NF11347   3.827   0.834  10.360  0.0636 -0.0434  0.3965
  110OSM    HNF11348   3.914   0.824  10.312 -0.2756 -0.4379 -0.1314
  110OSM    C2S11349   3.829   0.923  10.477 -0.1028  0.0864  0.0895
  110OSM    H2S11350   3.735   0.982  10.484  0.4265  0.7673  2.6568
  110OSM    C3S11351   3.954   1.016  10.488  0.5089  0.1471 -0.4194
  110OSM    H3S11352   4.043   0.951  10.481 -0.2363 -1.1828  1.5098
  110OSM     O311353   3.970   1.085  10.610 -0.2544  0.0459 -0.3599
  110OSM    HO311354   3.909   1.042  10.670 -1.9216  2.9048  0.1602
  110OSM    C4S11355   3.960   1.103  10.363 -0.1529 -0.0596  0.2090
  110OSM    H4S11356   4.020   1.053  10.286  0.5831  0.6448  0.3184
  110OSM    C5S11357   3.901   1.224  10.344 -0.4137  0.2851  0.9072
  110OSM    H5S11358   3.861   1.259  10.441  1.7223 -1.4878  2.5408
  110OSM    C6S11359   3.924   1.309  10.221  0.6075 -0.3676  0.7391
  110OSM    H6S11360   3.963   1.408  10.252 -1.0802  0.2703  0.8788
  110OSM    H6T11361   3.827   1.324  10.170  3.1002  2.2227 -3.8513
  110OSM    C7S11362   4.021   1.251  10.107 -0.5638 -0.3170  0.0749
  110OSM    H7S11363   3.963   1.176  10.049 -2.1805 -0.2911  1.5792
  110OSM    H7T11364   4.108   1.197  10.149 -1.3360 -1.3138  0.4313
  110OSM    C8S11365   4.048   1.357  10.004 -0.9113  0.8487  1.0285
  110OSM    H8S11366   4.108   1.437  10.052  1.1879 -0.7082  1.1399
  110OSM    H8T11367   3.952   1.398   9.964 -0.6837 -0.9011 -1.5873
  110OSM    C9S11368   4.124   1.305   9.881 -0.5045 -0.1122  0.3300
  110OSM    H9S11369   4.208   1.242   9.917  0.2593  1.0760  0.6857
  110OSM    H9T11370   4.170   1.386   9.822  1.1463 -0.5652  0.9497
  110OSM   C10S11371   4.035   1.218   9.794  0.3435  0.0751  0.6519
  110OSM   H10S11372   3.958   1.280   9.743 -0.2993 -0.3177  1.1268
  110OSM   H10T11373   3.976   1.139   9.845  0.4456 -0.9630 -0.7879
  110OSM   C11S11374   4.120   1.154   9.684  0.3086 -0.0390  0.7158
  110OSM   H11S11375   4.179   1.071   9.729  0.5318  0.3274  1.1067
  110OSM   H11T11376   4.199   1.227   9.660  0.9540 -0.8050  0.4694
  110OSM   C12S11377   4.053   1.102   9.557  0.1084  0.4464 -0.5122
  110OSM   H12S11378   3.986   1.190   9.551  0.0245  0.6123  1.7557
  110OSM   H12T11379   3.982   1.016   9.571  0.8460 -0.1710 -0.5084
  110OSM   C13S11380   4.142   1.079   9.441  0.0958  0.0939  0.6507
  110OSM   H13S11381   4.145   0.968   9.435  1.8120  0.0626  1.3500
  110OSM   H13T11382   4.250   1.097   9.464 -0.0558  0.3244  1.2075
  110OSM   C14S11383   4.104   1.129   9.304 -0.4192  0.0131 -0.8545
  110OSM   H14S11384   4.122   1.238   9.302 -0.4939  0.0781  0.7220
  110OSM   H14T11385   3.996   1.116   9.285 -0.4358 -0.4016 -0.5002
  110OSM   C15S11386   4.195   1.069   9.193  0.2838  0.0290 -0.5828
  110OSM   H15S11387   4.174   0.960   9.192 -0.6479  0.2059 -1.1227
  110OSM   H15T11388   4.298   1.107   9.214  0.4909 -1.4564  1.4093
  110OSM   C16S11389   4.160   1.109   9.050 -0.8466 -0.6661  0.1309
  110OSM   H16S11390   4.071   1.052   9.015 -0.8991 -0.3300 -0.2994
  110OSM   H16T11391   4.240   1.076   8.980 -1.3552 -0.7916 -0.3993
  110OSM   C17S11392   4.139   1.259   9.031 -0.0326  0.5339 -0.1648
  110OSM   H17S11393   4.246   1.290   9.024  0.3264 -0.8818 -1.4480
  110OSM   H17T11394   4.075   1.304   9.110 -2.2194 -0.2865 -1.3746
  110OSM   C18S11395   4.080   1.289   8.895  0.6663 -0.9805 -0.1484
  110OSM   H18S11396   4.135   1.237   8.813  0.4693 -2.4009  0.5778
  110OSM   H18T11397   4.093   1.398   8.878  0.0770 -0.8179  0.3954
  110OSM   H18U11398   3.973   1.257   8.895  0.2386  0.4010  0.6228
  110OSM    C1F11399   3.724   0.764  10.330  0.2129 -0.3143  0.2143
  110OSM     OF11400   3.611   0.789  10.369 -0.5252 -0.2069 -0.2076
  110OSM    C2F11401   3.750   0.652  10.236 -0.0773 -0.0314  0.4771
  110OSM    H2F11402   3.860   0.658  10.217 -0.2360 -0.4882 -0.6664
  110OSM    H2G11403   3.701   0.681  10.141  1.8870  2.2290  0.0416
  110OSM    C3F11404   3.704   0.516  10.293  0.5684 -0.8417  0.1135
  110OSM    H3F11405   3.594   0.510  10.283  0.5899 -4.0831  0.7850
  110OSM    H3G11406   3.726   0.512  10.402  1.0054 -0.4845  0.0457
  110OSM    C4F11407   3.772   0.406  10.214  0.4632 -0.4259 -0.4818
  110OSM    H4F11408   3.776   0.311  10.270  3.1896 -0.5297 -0.6921
  110OSM    H4G11409   3.880   0.412  10.189 -0.0774 -1.5960 -3.4701
  110OSM    C5F11410   3.702   0.369  10.081 -0.4307 -0.6532  0.3224
  110OSM    H5F11411   3.671   0.452  10.013 -0.8917 -1.0149  0.0891
  110OSM    H5G11412   3.611   0.317  10.118 -0.4932 -0.3756  0.5666
  110OSM    C6F11413   3.787   0.273  10.005 -0.1501  0.3741 -0.0487
  110OSM    H6F11414   3.796   0.180  10.065 -1.5829  1.3696  1.7978
  110OSM    H6G11415   3.890   0.310   9.988 -0.1891  1.2853  1.4926
  110OSM    C7F11416   3.718   0.221   9.885 -0.0473  1.1361 -0.4332
  110OSM    H7F11417   3.705   0.300   9.809 -2.5810  0.7694 -0.4696
  110OSM    H7G11418   3.622   0.174   9.916  0.5856  0.3795  0.4374
  110OSM    C8F11419   3.798   0.109   9.811  0.5487 -0.2421  0.5341
  110OSM    H8F11420   3.731   0.074   9.730  0.3076 -0.9153  1.0133
  110OSM    H8G11421   3.802   0.028   9.886  1.1441 -1.1891 -0.4845
  110OSM    C9F11422   3.944   0.137   9.770 -0.5902  0.6620  0.4705
  110OSM    H9F11423   4.006   0.159   9.858 -1.0934 -0.9727  1.2711
  110OSM   C10F11424   3.989   0.154   9.644 -0.0993 -0.7921  0.1292
  110OSM   H10F11425   4.097   0.161   9.627 -0.3298 -2.7050 -2.8576
  110OSM   C11F11426   3.899   0.132   9.525  0.0908  0.0903 -0.3803
  110OSM   H11F11427   3.790   0.142   9.545 -0.3894  0.5591 -2.8988
  110OSM   H11G11428   3.928   0.031   9.490 -0.0340  0.0233 -0.2902
  110OSM   C12F11429   3.943   0.229   9.407 -0.7154 -0.2918 -0.8774
  110OSM   H12F11430   4.052   0.214   9.392 -0.6144 -1.2561  0.6343
  110OSM   H12G11431   3.919   0.337   9.416  0.7692  0.1190 -1.5172
  110OSM   C13F11432   3.879   0.186   9.280 -0.6039  0.4974  0.5339
  110OSM   H13F11433   3.770   0.184   9.296 -1.1736  1.5871 -2.5907
  110OSM   H13G11434   3.934   0.093   9.254  1.2959  1.9732 -1.0276
  110OSM   C14F11435   3.887   0.280   9.157 -0.7685 -0.0593  0.0879
  110OSM   H14F11436   3.994   0.312   9.155 -0.5737 -0.6201  0.8784
  110OSM   H14G11437   3.812   0.358   9.184 -1.9922 -1.2179  0.1031
  110OSM   C15F11438   3.845   0.208   9.032  0.7233 -0.0027  0.3020
  110OSM   H15F11439   3.741   0.170   9.043  1.2332 -1.0282  1.8188
  110OSM   H15G11440   3.907   0.117   9.017  0.1365 -0.3543 -0.0377
  110OSM   C16F11441   3.875   0.294   8.911  0.2047  0.1442 -0.2363
  110OSM   H16F11442   3.862   0.401   8.938 -1.3796 -0.0261 -0.1923
  110OSM   H16G11443   3.801   0.277   8.830 -0.4602 -1.7328  0.7067
  110OSM   C17F11444   4.016   0.265   8.853  0.0856  0.9092 -0.0790
  110OSM   H17F11445   4.014   0.162   8.812  1.0368  0.4885  0.8934
  110OSM   H17G11446   4.088   0.275   8.936 -1.1230  0.0254  1.1132
  110OSM   C18F11447   4.051   0.361   8.736  0.4723 -0.0896  0.2780
  110OSM   H18F11448   3.963   0.379   8.671 -0.9601  1.9734  2.6007
  110OSM   H18G11449   4.149   0.339   8.688  0.3189  2.6146 -1.4999
  110OSM   H18H11450   4.056   0.467   8.769  1.1810  1.2714 -3.7145
  111OSM      N11451   3.512   3.767  10.814 -0.0205  0.2507 -0.1550
  111OSM    C1511452   3.527   3.652  10.907 -0.4375 -0.0814  0.8359
  111OSM   H15A11453   3.468   3.650  10.998  0.2955 -1.8342  1.3106
  111OSM   H15B11454   3.631   3.647  10.935 -0.8054  0.7300  2.4474
  111OSM   H15C11455   3.516   3.560  10.852  1.3693  0.4249 -0.4791
  111OSM    C1411456   3.541   3.892  10.890 -0.5486  0.2284 -0.5431
  111OSM   H14A11457   3.468   3.912  10.967  0.5561 -0.3288  0.6896
  111OSM   H14B11458   3.530   3.976  10.823  3.8686 -0.3914 -2.3585
  111OSM   H14C11459   3.642   3.890  10.927  0.2991 -2.0010 -2.6526
  111OSM    C1311460   3.610   3.755  10.700 -0.5209 -0.7288 -1.2521
  111OSM   H13A11461   3.706   3.777  10.745 -0.6783 -0.1394 -1.1992
  111OSM   H13B11462   3.598   3.826  10.620  1.6728 -0.0995 -1.0899
  111OSM   H13C11463   3.614   3.656  10.658 -1.5565 -1.4351  0.2227
  111OSM    C1211464   3.367   3.770  10.757 -0.3643  0.2530  0.0286
  111OSM   H12A11465   3.291   3.792  10.830 -0.9242  1.3013 -0.8493
  111OSM   H12B11466   3.346   3.670  10.720  1.2538  0.6628 -2.1858
  111OSM    C1111467   3.330   3.870  10.650  0.0344  0.6013  0.1303
  111OSM   H11A11468   3.230   3.843  10.610  0.1710 -2.3560  1.5675
  111OSM   H11B11469   3.402   3.866  10.565  0.5615 -1.5065  0.6322
  111OSM      P11470   3.203   4.060  10.769  0.0221  0.4242 -0.0466
  111OSM    O1311471   3.118   3.940  10.801  0.2642 -0.4274  0.3850
  111OSM    O1411472   3.230   4.146  10.881  0.0902 -0.2039 -0.0524
  111OSM    O1111473   3.126   4.136  10.650  0.5597  0.0107 -0.0966
  111OSM    O1211474   3.338   4.002  10.707 -0.2113  0.2275 -0.6045
  111OSM    C1S11475   3.163   4.252  10.594 -0.4122 -0.0498  0.2641
  111OSM    H1S11476   3.271   4.248  10.566 -0.9426  1.2484 -2.3796
  111OSM    H1T11477   3.142   4.339  10.659 -1.3968  0.6050 -0.8733
  111OSM     NF11478   3.140   4.396  10.383  0.0328  0.0313 -0.4564
  111OSM    HNF11479   3.086   4.479  10.392 -1.9408 -1.2028 -0.5219
  111OSM    C2S11480   3.089   4.277  10.463  0.3340 -0.3649 -0.4737
  111OSM    H2S11481   3.104   4.187  10.399 -3.1764 -2.9201  1.9346
  111OSM    C3S11482   2.933   4.290  10.494 -0.3573  0.2234  0.6685
  111OSM    H3S11483   2.923   4.387  10.548 -0.1284 -0.4259  1.9317
  111OSM     O311484   2.885   4.189  10.582  0.1824  0.2276 -0.1440
  111OSM    HO311485   2.965   4.156  10.622  0.5613  0.9918 -0.2570
  111OSM    C4S11486   2.854   4.292  10.364 -0.3715 -0.3921 -0.1143
  111OSM    H4S11487   2.839   4.398  10.338 -0.9106 -0.4863 -0.1976
  111OSM    C5S11488   2.801   4.190  10.295 -0.0447  0.0388  0.2033
  111OSM    H5S11489   2.825   4.088  10.328  0.4520 -0.5795 -1.8903
  111OSM    C6S11490   2.727   4.201  10.161  0.0618  0.0209 -0.2742
  111OSM    H6S11491   2.698   4.306  10.140 -0.5577 -0.4144 -1.6397
  111OSM    H6T11492   2.630   4.148  10.152  0.7312 -1.3495  0.3850
  111OSM    C7S11493   2.807   4.153  10.045 -0.1955  0.3089 -0.4484
  111OSM    H7S11494   2.857   4.055  10.064  0.4586  0.6560 -0.3481
  111OSM    H7T11495   2.887   4.225  10.016 -1.1308  2.5256  2.0679
  111OSM    C8S11496   2.708   4.127   9.918 -0.1839  0.9840 -1.4114
  111OSM    H8S11497   2.633   4.209   9.920 -3.1987 -1.5762 -1.8865
  111OSM    H8T11498   2.652   4.032   9.930  1.1614  0.1300 -1.6437
  111OSM    C9S11499   2.773   4.147   9.782 -0.5285  0.5595 -0.1674
  111OSM    H9S11500   2.860   4.078   9.781  1.5651  3.0505 -0.1030
  111OSM    H9T11501   2.817   4.247   9.765 -0.6112  0.4685 -0.9520
  111OSM   C10S11502   2.673   4.114   9.675 -0.3036 -0.9493 -0.4720
  111OSM   H10S11503   2.591   4.186   9.692 -0.0937 -0.8715  0.2283
  111OSM   H10T11504   2.620   4.017   9.693  2.8296 -2.1379  3.8651
  111OSM   C11S11505   2.729   4.117   9.534  0.4385 -0.1423 -0.0879
  111OSM   H11S11506   2.801   4.036   9.515  0.8685  0.6013 -1.8216
  111OSM   H11T11507   2.789   4.210   9.525 -0.0410  0.3057  1.0752
  111OSM   C12S11508   2.612   4.103   9.437  0.4897  0.1578  0.8527
  111OSM   H12S11509   2.541   4.189   9.446  3.4429  2.8533  0.2471
  111OSM   H12T11510   2.560   4.006   9.447 -0.1913  0.3033 -0.8783
  111OSM   C13S11511   2.650   4.092   9.287 -0.2065  0.1991 -0.3470
  111OSM   H13S11512   2.736   4.023   9.275 -0.3055 -0.3638  1.8016
  111OSM   H13T11513   2.684   4.187   9.241 -1.7020 -0.5848 -3.3824
  111OSM   C14S11514   2.545   4.039   9.190  0.0902 -0.6874 -0.9253
  111OSM   H14S11515   2.468   4.118   9.186 -0.4035 -1.1934 -1.5624
  111OSM   H14T11516   2.507   3.950   9.245 -0.8580  1.1396  1.5673
  111OSM   C15S11517   2.598   4.006   9.047  0.8255  0.1763 -0.6976
  111OSM   H15S11518   2.679   3.931   9.059 -2.4152 -3.6642 -0.8461
  111OSM   H15T11519   2.642   4.101   9.010  0.1738  0.4412 -0.8064
  111OSM   C16S11520   2.476   3.948   8.961  0.1868  0.2077 -0.9119
  111OSM   H16S11521   2.413   4.038   8.944  1.2507  0.8123 -1.7704
  111OSM   H16T11522   2.437   3.866   9.026  1.2396  0.5438  0.1773
  111OSM   C17S11523   2.530   3.888   8.836 -0.5526 -0.1817 -0.0280
  111OSM   H17S11524   2.596   3.801   8.854 -1.8676 -0.7378  2.5715
  111OSM   H17T11525   2.589   3.976   8.803  0.3758 -0.8679 -0.2118
  111OSM   C18S11526   2.421   3.846   8.740  0.3872  0.4315  0.0562
  111OSM   H18S11527   2.380   3.746   8.763  1.8413 -0.0354  0.7642
  111OSM   H18T11528   2.465   3.833   8.638 -1.2760 -0.3784 -0.5959
  111OSM   H18U11529   2.337   3.918   8.729  0.7069  0.7768 -0.1522
  111OSM    C1F11530   3.263   4.390  10.334  0.2648  0.4000  0.1153
  111OSM     OF11531   3.316   4.280  10.301  1.1742 -0.0393 -0.1682
  111OSM    C2F11532   3.334   4.522  10.322 -0.3503 -0.4549  0.4871
  111OSM    H2F11533   3.398   4.531  10.411  0.1870  0.9194 -0.0001
  111OSM    H2G11534   3.259   4.604  10.315 -0.1529 -0.2514  0.7232
  111OSM    C3F11535   3.412   4.528  10.190 -0.3145 -0.3687  0.6671
  111OSM    H3F11536   3.499   4.459  10.181  0.3966  0.5096  0.5883
  111OSM    H3G11537   3.459   4.629  10.190 -2.5815  0.7703 -0.9980
  111OSM    C4F11538   3.336   4.514  10.055  0.8060 -1.0637  0.0164
  111OSM    H4F11539   3.249   4.584  10.051  4.3138  3.7896 -0.9393
  111OSM    H4G11540   3.301   4.409  10.055 -2.1477 -0.2044  2.3514
  111OSM    C5F11541   3.418   4.563   9.934 -0.0451  0.5017  0.5063
  111OSM    H5F11542   3.517   4.513   9.927 -1.4636 -2.7356  1.8783
  111OSM    H5G11543   3.437   4.672   9.926  0.2325  0.4577  0.5496
  111OSM    C6F11544   3.349   4.531   9.801 -0.0513 -0.4720 -0.2599
  111OSM    H6F11545   3.241   4.555   9.801  0.2475  1.1271  1.7299
  111OSM    H6G11546   3.351   4.421   9.785 -1.5072 -0.4078 -1.0288
  111OSM    C7F11547   3.425   4.588   9.668 -0.1854 -0.5891 -0.3632
  111OSM    H7F11548   3.522   4.534   9.655  0.9801  1.3366 -0.0633
  111OSM    H7G11549   3.439   4.697   9.687  1.2949 -0.8933  0.4969
  111OSM    C8F11550   3.321   4.575   9.548  0.3412  0.5009 -0.0760
  111OSM    H8F11551   3.221   4.600   9.589 -1.5230 -2.2663 -2.4892
  111OSM    H8G11552   3.327   4.468   9.519  1.3537  0.6950 -0.6664
  111OSM    C9F11553   3.359   4.659   9.423  0.8297 -0.1413 -0.1802
  111OSM    H9F11554   3.362   4.767   9.441  0.6874  0.0950 -1.4675
  111OSM   C10F11555   3.372   4.610   9.298 -0.2832 -0.7970 -0.2067
  111OSM   H10F11556   3.403   4.687   9.226 -1.4999  1.4262  1.5230
  111OSM   C11F11557   3.366   4.476   9.231  0.2302  0.4708 -1.2811
  111OSM   H11F11558   3.328   4.389   9.290  2.2423 -1.3900 -2.5888
  111OSM   H11G11559   3.468   4.450   9.196  0.3571 -0.3834 -0.3192
  111OSM   C12F11560   3.268   4.484   9.116  0.1122  0.1376 -0.1802
  111OSM   H12F11561   3.288   4.566   9.045 -2.4032  2.7077  1.8253
  111OSM   H12G11562   3.162   4.493   9.148  0.5542  0.6291  1.1917
  111OSM   C13F11563   3.274   4.355   9.038  0.7020 -0.4288 -0.0250
  111OSM   H13F11564   3.255   4.269   9.105  0.1582  1.2360  2.0898
  111OSM   H13G11565   3.377   4.339   9.001  0.9156 -0.4082  0.5541
  111OSM   C14F11566   3.176   4.360   8.918  0.0647  0.9674  0.0155
  111OSM   H14F11567   3.183   4.448   8.850 -0.3683  0.0845 -1.2087
  111OSM   H14G11568   3.079   4.363   8.971  1.2646 -2.4009  2.8509
  111OSM   C15F11569   3.174   4.237   8.828  0.4689  0.4550 -0.4889
  111OSM   H15F11570   3.175   4.146   8.891 -1.0302  0.0953 -0.9357
  111OSM   H15G11571   3.266   4.234   8.766  0.6063 -0.9448 -0.2496
  111OSM   C16F11572   3.053   4.234   8.728  0.0005 -0.7659  0.6455
  111OSM   H16F11573   3.061   4.163   8.643  1.3287  0.8283 -0.6037
  111OSM   H16G11574   3.045   4.334   8.682  0.3353 -0.0703  2.0373
  111OSM   C17F11575   2.914   4.207   8.795  0.4265 -0.3878  0.2267
  111OSM   H17F11576   2.874   4.291   8.855 -1.6488 -1.0361 -0.1508
  111OSM   H17G11577   2.924   4.118   8.861  0.4607 -0.2423  0.4192
  111OSM   C18F11578   2.806   4.167   8.694  0.7185 -0.6091 -0.2797
  111OSM   H18F11579   2.706   4.155   8.741  1.4051 -0.6184  1.2640
  111OSM   H18G11580   2.833   4.072   8.643  0.2434 -0.8696 -0.0515
  111OSM   H18H11581   2.801   4.239   8.610  0.5963 -2.1764 -1.6721
  112OSM      N11582   3.500   1.863  11.057 -0.2086  1.0334 -0.2951
  112OSM    C1511583   3.410   1.747  11.092 -0.1798  0.7519  0.6777
  112OSM   H15A11584   3.448   1.705  11.184  1.7646  1.5021  0.2623
  112OSM   H15B11585   3.415   1.676  11.011  1.1172  1.8101 -0.2077
  112OSM   H15C11586   3.309   1.785  11.093 -0.0091  1.2990 -1.0883
  112OSM    C1411587   3.445   1.918  10.928  0.0333 -0.0888 -0.0771
  112OSM   H14A11588   3.473   2.019  10.900  1.3462 -0.1900  0.7750
  112OSM   H14B11589   3.338   1.923  10.924 -0.0004  1.8999  1.5135
  112OSM   H14C11590   3.483   1.863  10.843  1.5892  0.8633 -0.0487
  112OSM    C1311591   3.496   1.966  11.164 -0.1677 -0.2133  1.0317
  112OSM   H13A11592   3.398   2.005  11.190 -0.1725 -0.0601  0.7897
  112OSM   H13B11593   3.557   2.051  11.141 -0.1517 -0.4530  0.1517
  112OSM   H13C11594   3.537   1.925  11.255 -1.0571 -2.2080  0.6008
  112OSM    C1211595   3.641   1.818  11.034  0.3951  0.6324 -0.1764
  112OSM   H12A11596   3.662   1.746  11.112 -2.0846 -3.0257 -2.5859
  112OSM   H12B11597   3.713   1.896  11.056  1.5333  0.0043 -1.4969
  112OSM    C1111598   3.673   1.743  10.904 -0.1239 -0.0930  0.6889
  112OSM   H11A11599   3.783   1.728  10.902 -0.0512  0.4854 -1.1617
  112OSM   H11B11600   3.646   1.790  10.807 -0.5864 -1.8565 -0.0905
  112OSM      P11601   3.678   1.497  10.980  0.3876  0.2171 -0.0100
  112OSM    O1311602   3.753   1.559  11.091 -0.4381 -0.1128  0.0153
  112OSM    O1411603   3.573   1.395  11.010 -0.2066 -0.3268 -0.4116
  112OSM    O1111604   3.766   1.443  10.860  0.3012  0.4910  0.2710
  112OSM    O1211605   3.614   1.615  10.906 -0.3563 -0.0638 -0.5545
  112OSM    C1S11606   3.723   1.423  10.729 -0.1249  0.6898  0.8868
  112OSM    H1S11607   3.617   1.454  10.716 -1.0048 -2.1040  0.6623
  112OSM    H1T11608   3.719   1.314  10.705 -0.1775  0.5897  1.3400
  112OSM     NF11609   3.733   1.520  10.490 -0.0483 -0.0495  0.0641
  112OSM    HNF11610   3.742   1.437  10.436 -1.8932 -0.0984 -0.2447
  112OSM    C2S11611   3.794   1.516  10.628 -0.0729  0.2983 -0.2025
  112OSM    H2S11612   3.776   1.620  10.663 -2.3466 -0.3458  0.6976
  112OSM    C3S11613   3.942   1.476  10.620  0.3173  0.0153 -0.6711
  112OSM    H3S11614   3.960   1.382  10.563 -0.4958 -0.7712  0.3368
  112OSM     O311615   4.004   1.455  10.751  0.3974 -0.4747  0.6761
  112OSM    HO311616   3.927   1.448  10.808  1.6193 -0.4603  2.3947
  112OSM    C4S11617   4.021   1.582  10.542 -0.2867  0.6260 -0.1863
  112OSM    H4S11618   4.021   1.558  10.435  0.4494 -1.1152  0.1633
  112OSM    C5S11619   4.079   1.688  10.590 -0.5998 -0.4850  0.4691
  112OSM    H5S11620   4.059   1.707  10.697 -1.9321  3.4506 -0.2855
  112OSM    C6S11621   4.149   1.797  10.512  0.7475  0.1862  0.1657
  112OSM    H6S11622   4.238   1.813  10.577  0.1341 -1.9673  1.6365
  112OSM    H6T11623   4.087   1.889  10.515  0.3999 -0.0478  0.2637
  112OSM    C7S11624   4.174   1.778  10.364 -0.5252 -0.3987  0.0543
  112OSM    H7S11625   4.217   1.875  10.332  0.0849 -0.1988  1.4316
  112OSM    H7T11626   4.081   1.766  10.304  1.3832  1.8738 -3.7492
  112OSM    C8S11627   4.288   1.673  10.338  0.3724 -0.6048 -0.1731
  112OSM    H8S11628   4.240   1.576  10.312 -0.5698 -0.5543  1.2744
  112OSM    H8T11629   4.349   1.646  10.426  1.5419  2.7662  0.1767
  112OSM    C9S11630   4.377   1.701  10.218  0.2917  0.7697  0.1931
  112OSM    H9S11631   4.454   1.766  10.265  0.6248  2.0928 -2.0407
  112OSM    H9T11632   4.328   1.757  10.136  1.0281  0.0578 -0.7614
  112OSM   C10S11633   4.442   1.570  10.168 -0.3069  0.6221 -1.0969
  112OSM   H10S11634   4.361   1.507  10.126  0.4080 -1.0267 -0.0649
  112OSM   H10T11635   4.494   1.524  10.254 -1.6000 -2.5841 -1.9020
  112OSM   C11S11636   4.548   1.583  10.066  0.3134  1.0030 -0.1667
  112OSM   H11S11637   4.578   1.487  10.019  0.3996  0.6899  0.5150
  112OSM   H11T11638   4.636   1.628  10.116 -0.9900  1.1050  2.1882
  112OSM   C12S11639   4.513   1.673   9.945  0.4188 -0.1460 -0.8470
  112OSM   H12S11640   4.494   1.777   9.979  1.9585  1.0470 -3.3687
  112OSM   H12T11641   4.420   1.634   9.897  1.1896 -0.7101 -1.9243
  112OSM   C13S11642   4.621   1.677   9.831  0.3948  0.2563  0.1882
  112OSM   H13S11643   4.669   1.578   9.814 -0.8874 -0.1819 -1.1388
  112OSM   H13T11644   4.697   1.752   9.860  0.1279 -0.6212  3.5870
  112OSM   C14S11645   4.560   1.716   9.699  0.0940  0.4546 -0.0781
  112OSM   H14S11646   4.478   1.645   9.676  0.2462  0.7963 -1.8530
  112OSM   H14T11647   4.624   1.702   9.609  1.8633 -0.9830  1.3253
  112OSM   C15S11648   4.504   1.858   9.705  0.2155  0.3718 -0.4452
  112OSM   H15S11649   4.588   1.915   9.750 -0.9561  0.9575  1.0503
  112OSM   H15T11650   4.413   1.856   9.768  0.4998 -3.7699  0.1063
  112OSM   C16S11651   4.485   1.917   9.562 -0.1681 -0.2251  0.4719
  112OSM   H16S11652   4.409   1.854   9.510  0.7103  0.4142 -1.6795
  112OSM   H16T11653   4.582   1.910   9.509  1.2041 -0.8498  2.9109
  112OSM   C17S11654   4.434   2.066   9.563 -0.1537 -0.2460 -0.6969
  112OSM   H17S11655   4.501   2.127   9.627 -0.5406 -0.7877  0.2460
  112OSM   H17T11656   4.339   2.063   9.619  0.4477  0.7613  0.4243
  112OSM   C18S11657   4.412   2.130   9.427 -0.2686  0.4643  0.1001
  112OSM   H18S11658   4.510   2.150   9.380 -0.9845  2.8647 -0.5170
  112OSM   H18T11659   4.355   2.224   9.443  0.6459  1.0771 -0.2161
  112OSM   H18U11660   4.356   2.064   9.357  1.3446 -1.8585  0.8752
  112OSM    C1F11661   3.626   1.592  10.459 -0.5613  0.0078 -0.2849
  112OSM     OF11662   3.575   1.674  10.533  0.3673 -0.6251  0.1476
  112OSM    C2F11663   3.567   1.565  10.327 -0.8869 -0.3313 -0.0526
  112OSM    H2F11664   3.640   1.502  10.272 -1.0776 -1.8573  1.3748
  112OSM    H2G11665   3.568   1.659  10.268  0.3157 -0.0973  0.3157
  112OSM    C3F11666   3.430   1.501  10.326 -0.2878 -0.4026  0.1556
  112OSM    H3F11667   3.361   1.565  10.386  0.1801 -0.6882  1.0225
  112OSM    H3G11668   3.440   1.404  10.379 -0.9493 -0.4953  0.1257
  112OSM    C4F11669   3.374   1.480  10.186  0.2941 -0.4451  0.5331
  112OSM    H4F11670   3.453   1.425  10.130  0.1717 -0.6025  0.5124
  112OSM    H4G11671   3.364   1.582  10.143 -2.0219 -0.5425  0.7309
  112OSM    C5F11672   3.237   1.408  10.169 -0.3163 -0.4151 -0.5493
  112OSM    H5F11673   3.162   1.455  10.237  0.4181  0.9526 -0.6502
  112OSM    H5G11674   3.273   1.311  10.209  0.5612  0.5817  1.1553
  112OSM    C6F11675   3.173   1.391  10.034  0.2623 -0.1360  0.6024
  112OSM    H6F11676   3.157   1.493   9.995  0.4188 -0.0720  0.7064
  112OSM    H6G11677   3.077   1.336  10.037  1.0405 -1.5088  2.5267
  112OSM    C7F11678   3.264   1.314   9.927 -0.3634 -0.9350 -0.9684
  112OSM    H7F11679   3.292   1.213   9.964  3.2511  0.6558  1.2089
  112OSM    H7G11680   3.358   1.372   9.925 -1.6936  1.3530 -0.2062
  112OSM    C8F11681   3.202   1.319   9.788 -0.2136  0.2309 -0.1983
  112OSM    H8F11682   3.260   1.292   9.697 -0.7370 -1.2973 -0.1028
  112OSM    H8G11683   3.184   1.426   9.766 -1.1707 -0.0048 -0.6129
  112OSM    C9F11684   3.076   1.244   9.782  0.0561  0.2749  0.1613
  112OSM    H9F11685   2.988   1.308   9.799  0.1612  0.0533  1.6824
  112OSM   C10F11686   3.069   1.114   9.741 -0.7413  1.0143  0.4675
  112OSM   H10F11687   2.976   1.056   9.743  1.0333 -2.1911 -1.5945
  112OSM   C11F11688   3.185   1.021   9.701  0.5316 -0.8658 -0.4093
  112OSM   H11F11689   3.174   0.925   9.757  1.7247 -0.9063 -0.2002
  112OSM   H11G11690   3.280   1.070   9.733 -1.1354  2.0321  0.4636
  112OSM   C12F11691   3.197   0.978   9.554  0.3618  0.7054  0.5787
  112OSM   H12F11692   3.289   0.916   9.549 -0.5609 -1.0997  3.3720
  112OSM   H12G11693   3.212   1.072   9.497 -0.4111  0.5952  0.1847
  112OSM   C13F11694   3.078   0.890   9.511  0.8107 -1.1423  0.8525
  112OSM   H13F11695   2.987   0.933   9.558  1.6238  1.2674  0.3780
  112OSM   H13G11696   3.087   0.792   9.564 -2.2382  0.3105  4.5265
  112OSM   C14F11697   3.048   0.883   9.353 -0.5747 -0.0198  0.8167
  112OSM   H14F11698   3.034   0.985   9.310 -1.5250 -1.1371 -1.7412
  112OSM   H14G11699   2.964   0.816   9.324 -0.7445 -0.0351  1.3304
  112OSM   C15F11700   3.164   0.829   9.266  0.3368 -0.2401 -0.6880
  112OSM   H15F11701   3.196   0.728   9.299 -2.0967 -1.3524 -1.4710
  112OSM   H15G11702   3.249   0.898   9.282 -2.1450  2.7142  0.8952
  112OSM   C16F11703   3.125   0.815   9.123 -0.6628 -0.0435  0.3667
  112OSM   H16F11704   3.091   0.913   9.084  1.6672  0.7291  0.1038
  112OSM   H16G11705   3.042   0.741   9.116  0.5666 -1.2944 -2.6642
  112OSM   C17F11706   3.228   0.768   9.021 -0.9327 -0.2413 -0.1464
  112OSM   H17F11707   3.180   0.769   8.920  2.3927  0.8779 -1.8589
  112OSM   H17G11708   3.259   0.662   9.035  0.9858  0.3914  0.7155
  112OSM   C18F11709   3.355   0.853   9.006  0.4951  0.6083 -0.4453
  112OSM   H18F11710   3.333   0.960   8.983 -0.3702  0.6677  0.5374
  112OSM   H18G11711   3.408   0.811   8.918 -0.3207 -0.2201 -0.5537
  112OSM   H18H11712   3.411   0.847   9.102 -0.1582 -3.1713 -0.1490
  113OSM      N11713   0.494   0.472  11.357 -0.5142 -0.8264 -0.0427
  113OSM    C1511714   0.546   0.588  11.282  0.5572 -0.0885 -0.3082
  113OSM   H15A11715   0.595   0.555  11.192  0.6266  0.7911 -0.6061
  113OSM   H15B11716   0.622   0.652  11.326  1.5138  0.1067 -2.1463
  113OSM   H15C11717   0.469   0.657  11.252  0.5608 -0.7914 -2.0130
  113OSM    C1411718   0.609   0.390  11.401 -0.1198 -0.2608 -0.3399
  113OSM   H14A11719   0.577   0.327  11.483 -2.5137  0.0810 -0.9287
  113OSM   H14B11720   0.687   0.447  11.449 -0.8302 -0.9469  1.7563
  113OSM   H14C11721   0.659   0.343  11.319  2.0600  0.8011  0.3019
  113OSM    C1311722   0.424   0.535  11.476 -0.1211  0.1189  0.3037
  113OSM   H13A11723   0.388   0.633  11.450  1.7147  1.1699  1.4337
  113OSM   H13B11724   0.498   0.561  11.550 -0.5614 -1.4516  1.3422
  113OSM   H13C11725   0.360   0.461  11.521 -1.4553  1.1796  0.2058
  113OSM    C1211726   0.405   0.389  11.268 -0.4291  0.3322 -0.0999
  113OSM   H12A11727   0.314   0.445  11.250 -0.6634 -0.0145 -0.0207
  113OSM   H12B11728   0.371   0.302  11.323 -1.1315  0.1988 -0.7158
  113OSM    C1111729   0.463   0.330  11.136 -0.3969 -0.0586 -0.1739
  113OSM   H11A11730   0.503   0.416  11.079  0.5393 -0.4755 -0.1571
  113OSM   H11B11731   0.382   0.291  11.070  1.3032 -0.7580 -1.9545
  113OSM      P11732   0.550   0.073  11.165  0.4110 -0.0583 -0.1127
  113OSM    O1311733   0.679   0.013  11.125 -0.3457  0.5788 -0.0344
  113OSM    O1411734   0.497   0.038  11.300  0.5377 -0.1649 -0.3112
  113OSM    O1111735   0.440   0.039  11.056  0.6908 -0.2471  0.5310
  113OSM    O1211736   0.563   0.231  11.156  0.1749  0.3990  0.3127
  113OSM    C1S11737   0.454   0.074  10.916  0.0428 -0.1525 -0.1352
  113OSM    H1S11738   0.553   0.123  10.903  0.6378 -0.6882  2.0360
  113OSM    H1T11739   0.381   0.154  10.895  0.9385  1.5894  2.8222
  113OSM     NF11740   0.482  -0.033  10.681  0.3222  0.0658 -0.3369
  113OSM    HNF11741   0.412  -0.015  10.612  0.4820 -0.1331 -0.5486
  113OSM    C2S11742   0.445  -0.059  10.823  0.3043 -0.0587 -0.3749
  113OSM    H2S11743   0.517  -0.127  10.872 -1.0775 -0.6836  0.8621
  113OSM    C3S11744   0.295  -0.120  10.837 -0.5295 -0.8997 -0.0915
  113OSM    H3S11745   0.229  -0.042  10.794  0.6796  0.0649 -0.2339
  113OSM     O311746   0.243  -0.138  10.969 -0.2936 -0.0311  0.2208
  113OSM    HO311747   0.291  -0.082  11.031  2.3005 -1.0929 -0.6481
  113OSM    C4S11748   0.273  -0.251  10.754 -0.0793  0.3106 -0.2199
  113OSM    H4S11749   0.350  -0.327  10.774  1.1021  1.7116  0.7203
  113OSM    C5S11750   0.188  -0.261  10.651 -0.0065 -0.2590 -0.4565
  113OSM    H5S11751   0.136  -0.168  10.624 -0.1720  0.8103  3.1218
  113OSM    C6S11752   0.174  -0.382  10.555 -0.2116 -0.3144 -0.7052
  113OSM    H6S11753   0.077  -0.431  10.579 -0.6195  0.3591 -0.9618
  113OSM    H6T11754   0.252  -0.462  10.564 -1.0437 -1.1883 -1.1367
  113OSM    C7S11755   0.155  -0.329  10.410 -0.4794 -0.7901 -0.7078
  113OSM    H7S11756   0.256  -0.300  10.375 -0.5569  0.2292 -0.1348
  113OSM    H7T11757   0.098  -0.234  10.414  1.0984  0.1420  2.5603
  113OSM    C8S11758   0.087  -0.434  10.323  0.1869  0.0195  0.1274
  113OSM    H8S11759  -0.011  -0.470  10.360  0.5543 -3.7309 -2.0075
  113OSM    H8T11760   0.156  -0.521  10.317  1.0825  0.6445  1.1099
  113OSM    C9S11761   0.055  -0.383  10.186  0.4720 -0.0130  0.3869
  113OSM    H9S11762   0.145  -0.322  10.162  0.3714 -0.0912 -0.2060
  113OSM    H9T11763  -0.036  -0.319  10.184 -0.4646 -1.2932 -1.4110
  113OSM   C10S11764   0.037  -0.492  10.078 -0.2199 -0.2777 -0.0859
  113OSM   H10S11765  -0.055  -0.549  10.102  0.7225 -1.7393  0.2520
  113OSM   H10T11766   0.120  -0.565  10.092 -1.1463 -1.0036  1.9685
  113OSM   C11S11767   0.038  -0.435   9.940 -1.0760 -0.3039  0.3079
  113OSM   H11S11768   0.141  -0.434   9.899 -1.3073  1.7906 -0.3690
  113OSM   H11T11769  -0.006  -0.333   9.938 -0.2356  0.1375  1.9131
  113OSM   C12S11770  -0.039  -0.531   9.852  0.2905 -0.8961 -0.0719
  113OSM   H12S11771  -0.146  -0.533   9.884 -0.6336  1.4992 -2.5637
  113OSM   H12T11772  -0.000  -0.634   9.837 -1.0938 -1.3037 -1.0638
  113OSM   C13S11773  -0.054  -0.482   9.705 -0.7262 -0.9297 -0.1469
  113OSM   H13S11774   0.041  -0.467   9.651 -0.5999 -0.3227  0.2260
  113OSM   H13T11775  -0.110  -0.386   9.694  1.2104  0.3622  0.6884
  113OSM   C14S11776  -0.130  -0.584   9.617 -0.0799 -0.9431  0.5123
  113OSM   H14S11777  -0.228  -0.609   9.663 -0.2746  0.8094  1.1221
  113OSM   H14T11778  -0.080  -0.683   9.610  0.3849 -0.5774 -3.6802
  113OSM   C15S11779  -0.149  -0.535   9.469 -0.2518  0.0367 -0.4103
  113OSM   H15S11780  -0.048  -0.499   9.441 -0.6463  0.3180 -1.5083
  113OSM   H15T11781  -0.213  -0.444   9.463 -0.0234  0.2247 -0.0403
  113OSM   C16S11782  -0.189  -0.645   9.365  0.4288 -0.4705  0.1401
  113OSM   H16S11783  -0.295  -0.674   9.379  0.6101 -1.5493 -0.5459
  113OSM   H16T11784  -0.118  -0.731   9.366  0.8025 -0.2054 -0.9768
  113OSM   C17S11785  -0.180  -0.562   9.229  0.3857  0.2358 -0.6143
  113OSM   H17S11786  -0.074  -0.553   9.198 -0.0017  2.7184 -1.4938
  113OSM   H17T11787  -0.231  -0.466   9.249  1.0775  0.6887 -0.9678
  113OSM   C18S11788  -0.268  -0.627   9.125 -0.7153  0.6016 -0.0223
  113OSM   H18S11789  -0.366  -0.669   9.156  0.5904 -1.7946  1.1740
  113OSM   H18T11790  -0.210  -0.697   9.061 -1.4441 -1.4053  1.3835
  113OSM   H18U11791  -0.285  -0.546   9.051  0.9673  1.2496  0.2657
  113OSM    C1F11792   0.605  -0.044  10.633  0.3836 -0.1767 -0.0685
  113OSM     OF11793   0.704  -0.058  10.703 -0.8036 -0.3627  0.1832
  113OSM    C2F11794   0.626  -0.023  10.486  0.1829 -0.0198  0.1885
  113OSM    H2F11795   0.592   0.080  10.458  2.4825  0.6691 -0.3068
  113OSM    H2G11796   0.570  -0.097  10.426  4.2123 -2.5501 -0.8490
  113OSM    C3F11797   0.772  -0.034  10.438  0.4467 -0.0251  0.4806
  113OSM    H3F11798   0.806  -0.134  10.473 -0.1639 -0.2999  0.2960
  113OSM    H3G11799   0.824   0.056  10.478 -0.7631  1.2078 -0.6477
  113OSM    C4F11800   0.768  -0.041  10.285  0.5473 -0.3486 -0.7920
  113OSM    H4F11801   0.741   0.061  10.249  3.0472  0.6014 -0.2048
  113OSM    H4G11802   0.697  -0.112  10.238  0.9433 -0.5415 -1.1039
  113OSM    C5F11803   0.907  -0.082  10.231 -0.2570  0.1599  0.1465
  113OSM    H5F11804   0.928  -0.191  10.240 -0.8864 -0.1499 -1.6878
  113OSM    H5G11805   0.990  -0.051  10.298  0.5728 -3.4489  0.9860
  113OSM    C6F11806   0.922  -0.046  10.084 -0.7916 -0.2222  0.0460
  113OSM    H6F11807   1.031  -0.052  10.060 -0.5762  3.1190 -0.1872
  113OSM    H6G11808   0.869   0.048  10.061 -2.8406 -1.0834  0.9356
  113OSM    C7F11809   0.853  -0.158  10.002  0.3605 -0.3499  0.9252
  113OSM    H7F11810   0.745  -0.139  10.019 -0.4061 -3.0354 -0.5179
  113OSM    H7G11811   0.877  -0.263  10.026 -0.7676 -0.8878 -0.2231
  113OSM    C8F11812   0.881  -0.143   9.850 -0.5761 -1.1482  0.0115
  113OSM    H8F11813   0.989  -0.151   9.824  0.0860  1.4984  1.5681
  113OSM    H8G11814   0.860  -0.035   9.837  2.1831 -0.0975  3.0590
  113OSM    C9F11815   0.792  -0.231   9.766 -0.7304 -0.0139 -0.3103
  113OSM    H9F11816   0.789  -0.334   9.806  0.3052 -0.0539 -0.2956
  113OSM   C10F11817   0.725  -0.190   9.661  0.4303  0.5130 -0.0979
  113OSM   H10F11818   0.655  -0.262   9.615  1.9855 -0.7879 -0.5084
  113OSM   C11F11819   0.723  -0.057   9.602  0.3194  0.8313  0.1622
  113OSM   H11F11820   0.816  -0.001   9.624  0.1415  1.1928  0.0032
  113OSM   H11G11821   0.650   0.016   9.644 -0.7037 -1.9241  3.7836
  113OSM   C12F11822   0.735  -0.076   9.443 -0.0233 -0.7090 -0.1051
  113OSM   H12F11823   0.835  -0.100   9.401  0.5555  0.6502  0.4543
  113OSM   H12G11824   0.721   0.029   9.411 -0.7527 -0.7395  0.1111
  113OSM   C13F11825   0.634  -0.162   9.364 -0.4606  0.0582 -0.6907
  113OSM   H13F11826   0.531  -0.152   9.402 -1.4038 -2.7417 -2.2461
  113OSM   H13G11827   0.670  -0.267   9.374  0.7335  0.4922 -0.2731
  113OSM   C14F11828   0.622  -0.150   9.208  0.3373  0.4293  0.3272
  113OSM   H14F11829   0.714  -0.175   9.152  0.1214  0.9348 -0.2747
  113OSM   H14G11830   0.603  -0.041   9.192 -1.3197  0.1630  0.3012
  113OSM   C15F11831   0.496  -0.221   9.149 -1.4021  0.0980 -0.0996
  113OSM   H15F11832   0.414  -0.193   9.218 -1.7419 -0.4312 -0.2830
  113OSM   H15G11833   0.512  -0.330   9.157  1.9384  0.3480 -1.6418
  113OSM   C16F11834   0.452  -0.180   9.008  0.5649  0.1610 -0.5271
  113OSM   H16F11835   0.372  -0.245   8.967  0.8445  0.9309 -2.3792
  113OSM   H16G11836   0.549  -0.191   8.955  0.9413  0.8188  0.0019
  113OSM   C17F11837   0.399  -0.037   8.997  0.2651  0.6662  0.3704
  113OSM   H17F11838   0.464   0.044   9.036 -0.9954  0.8368  2.2996
  113OSM   H17G11839   0.305  -0.035   9.057  0.5093  0.5975  0.7622
  113OSM   C18F11840   0.355   0.001   8.851  0.0229 -0.2729 -0.5310
  113OSM   H18F11841   0.312  -0.094   8.815 -0.0526 -0.3645 -0.2060
  113OSM   H18G11842   0.441   0.035   8.789  0.2787 -0.6136 -0.3676
  113OSM   H18H11843   0.282   0.084   8.861  0.5314  0.2530 -1.0980
  114OSM      N11844   5.103   4.050  10.695  0.1861  0.0565  0.5386
  114OSM    C1511845   5.158   4.021  10.561 -0.7441 -0.2690 -0.6904
  114OSM   H15A11846   5.165   4.118  10.514 -4.6849 -0.0171 -1.1105
  114OSM   H15B11847   5.085   3.971  10.499 -2.3720  1.7446 -0.5204
  114OSM   H15C11848   5.261   3.990  10.557 -0.0881  1.0415  2.6156
  114OSM    C1411849   5.170   4.158  10.771 -0.3747  0.3112 -0.6720
  114OSM   H14A11850   5.147   4.242  10.708 -1.9780  0.0937 -0.4210
  114OSM   H14B11851   5.276   4.139  10.777 -0.1665  0.9869 -1.8296
  114OSM   H14C11852   5.129   4.164  10.871 -0.1894  0.9382 -0.6272
  114OSM    C1311853   4.959   4.087  10.664  0.3642 -0.3194  0.7465
  114OSM   H13A11854   4.898   4.005  10.631 -0.6356 -0.1072  1.9956
  114OSM   H13B11855   4.951   4.154  10.580 -1.6843  0.2880  1.3558
  114OSM   H13C11856   4.919   4.139  10.750 -1.0249 -2.5155  1.5074
  114OSM    C1211857   5.098   3.914  10.768  0.1498 -0.2334 -0.2300
  114OSM   H12A11858   5.199   3.885  10.791 -0.5459 -1.4230  1.5174
  114OSM   H12B11859   5.063   3.836  10.701 -0.2985 -0.3901  0.1795
  114OSM    C1111860   5.018   3.911  10.894 -0.1708  0.2511  0.0363
  114OSM   H11A11861   4.921   3.957  10.867 -0.7277 -1.6793 -1.5203
  114OSM   H11B11862   5.074   3.969  10.971  2.0194 -0.5406 -0.8703
  114OSM      P11863   4.888   3.687  10.880  0.3173 -0.5280  0.7226
  114OSM    O1311864   4.885   3.565  10.960  0.6380  0.4924  0.4481
  114OSM    O1411865   4.765   3.767  10.871  0.3466 -0.6093  0.1798
  114OSM    O1111866   4.948   3.652  10.737 -0.3958 -0.4676 -0.3475
  114OSM    O1211867   5.000   3.779  10.945 -0.1122 -0.0035 -0.3105
  114OSM    C1S11868   4.886   3.686  10.614 -0.3564  0.2781  0.3693
  114OSM    H1S11869   4.894   3.797  10.610  1.1444  0.2218  1.1263
  114OSM    H1T11870   4.780   3.651  10.622 -0.1742  0.1948  3.4443
  114OSM     NF11871   4.886   3.672  10.368  0.7465  0.2839 -0.1057
  114OSM    HNF11872   4.816   3.619  10.320 -0.3052 -1.3249  2.8970
  114OSM    C2S11873   4.944   3.606  10.487 -0.4530  0.1248  0.0777
  114OSM    H2S11874   5.055   3.614  10.481 -0.3820 -0.9125 -0.3448
  114OSM    C3S11875   4.921   3.455  10.510 -0.6400 -0.2862 -0.3021
  114OSM    H3S11876   4.812   3.441  10.524 -0.1880 -2.6635  1.3618
  114OSM     O311877   4.984   3.403  10.635 -0.6628  0.1538  0.2592
  114OSM    HO311878   5.015   3.480  10.684  1.2981 -0.1273 -0.4728
  114OSM    C4S11879   4.981   3.368  10.397  0.3584 -0.5783 -0.3814
  114OSM    H4S11880   4.911   3.320  10.327 -2.6851  0.9770  1.3845
  114OSM    C5S11881   5.112   3.343  10.384 -0.1810 -0.1197 -0.9308
  114OSM    H5S11882   5.180   3.371  10.466  0.6615 -1.1396 -1.2517
  114OSM    C6S11883   5.172   3.267  10.272 -0.8192 -0.2601  0.1773
  114OSM    H6S11884   5.190   3.166  10.316  0.1839  0.1993  0.8326
  114OSM    H6T11885   5.270   3.314  10.250 -1.2759  0.6297  0.0140
  114OSM    C7S11886   5.087   3.258  10.139  0.8919 -0.2330 -0.1504
  114OSM    H7S11887   5.081   3.364  10.105  2.1836 -0.6009 -1.6343
  114OSM    H7T11888   4.979   3.231  10.146  0.3795  1.9662  1.7427
  114OSM    C8S11889   5.161   3.177  10.025  0.0678  0.1203  0.2289
  114OSM    H8S11890   5.183   3.076  10.065 -1.8407 -1.8977 -3.3492
  114OSM    H8T11891   5.256   3.226   9.991  0.5665 -0.4551  0.7714
  114OSM    C9S11892   5.064   3.157   9.913 -0.2241  0.1624  0.4964
  114OSM    H9S11893   5.032   3.255   9.871  1.6058  1.1889  1.3459
  114OSM    H9T11894   4.972   3.111   9.955 -1.5177  1.4141 -0.8807
  114OSM   C10S11895   5.124   3.060   9.808 -0.9836 -0.3963  0.3288
  114OSM   H10S11896   5.181   2.980   9.858  1.0054  0.9201  0.2846
  114OSM   H10T11897   5.203   3.102   9.742 -0.7314 -0.6161  0.4875
  114OSM   C11S11898   5.020   3.006   9.709  0.6577  0.1861 -0.1558
  114OSM   H11S11899   4.983   3.087   9.643  3.0789  1.0418 -0.5462
  114OSM   H11T11900   4.939   2.959   9.769  1.7069  2.2934  3.2015
  114OSM   C12S11901   5.071   2.908   9.595  0.5350 -0.2239  1.0597
  114OSM   H12S11902   5.144   2.960   9.528 -0.6995 -0.9332 -0.9252
  114OSM   H12T11903   4.989   2.874   9.529  2.3518 -1.8083 -0.4988
  114OSM   C13S11904   5.136   2.771   9.632 -0.1844  0.1292  0.1589
  114OSM   H13S11905   5.052   2.704   9.658  0.5859 -1.1654 -0.6039
  114OSM   H13T11906   5.206   2.787   9.717 -0.1223 -0.0555  0.1420
  114OSM   C14S11907   5.224   2.711   9.527  0.0491  0.1705  0.4504
  114OSM   H14S11908   5.256   2.608   9.555 -0.1774  0.0507  0.2698
  114OSM   H14T11909   5.314   2.776   9.522  0.1121  0.1357  1.0194
  114OSM   C15S11910   5.156   2.698   9.389 -0.0245 -0.5235 -0.2842
  114OSM   H15S11911   5.168   2.799   9.345  1.6383 -0.3531  0.4868
  114OSM   H15T11912   5.050   2.665   9.403  0.0605 -0.3555  0.9083
  114OSM   C16S11913   5.222   2.580   9.310 -0.0988  0.9476  0.0348
  114OSM   H16S11914   5.233   2.491   9.376  1.5645  1.1002  0.0002
  114OSM   H16T11915   5.328   2.597   9.282  0.0823 -0.4743 -0.2343
  114OSM   C17S11916   5.139   2.533   9.190  0.0652  0.0045 -0.4360
  114OSM   H17S11917   5.126   2.611   9.112 -0.7748  1.0099  0.6703
  114OSM   H17T11918   5.038   2.506   9.227  0.8380 -0.0384  1.8206
  114OSM   C18S11919   5.192   2.407   9.111  0.1798  0.3602 -0.2304
  114OSM   H18S11920   5.298   2.413   9.080  0.1405  0.3576 -0.3635
  114OSM   H18T11921   5.131   2.389   9.020  2.1958  0.1829 -1.5837
  114OSM   H18U11922   5.187   2.322   9.182  0.1558 -0.0734 -0.7529
  114OSM    C1F11923   4.929   3.791  10.324 -0.1291 -0.1102  0.2820
  114OSM     OF11924   4.982   3.870  10.400 -0.2852  1.0563  0.4427
  114OSM    C2F11925   4.889   3.823  10.190 -0.0686  0.2475 -0.0826
  114OSM    H2F11926   4.788   3.785  10.165  0.2890 -1.0608  0.3884
  114OSM    H2G11927   4.962   3.779  10.119  1.0510 -0.1700  1.2841
  114OSM    C3F11928   4.883   3.975  10.166 -0.4219 -0.8213  0.2790
  114OSM    H3F11929   4.982   4.027  10.170 -0.2177 -1.1116 -0.8564
  114OSM    H3G11930   4.819   4.017  10.247 -1.8768  0.2053 -1.3574
  114OSM    C4F11931   4.813   4.012  10.033 -0.5009  0.1767 -0.1684
  114OSM    H4F11932   4.790   4.121  10.036  0.6581  0.4266  1.6540
  114OSM    H4G11933   4.720   3.955  10.019 -0.6181  0.1640  0.5990
  114OSM    C5F11934   4.898   3.979   9.910  1.0200 -0.0366 -0.0146
  114OSM    H5F11935   4.932   3.873   9.918  0.0049 -0.2917  1.1801
  114OSM    H5G11936   4.988   4.045   9.911  0.5609  0.5834  0.2936
  114OSM    C6F11937   4.811   3.982   9.782  0.0764 -0.0355 -0.2634
  114OSM    H6F11938   4.774   4.084   9.757  0.2324  0.7105  2.2585
  114OSM    H6G11939   4.723   3.914   9.789  0.4256 -0.7338 -2.1061
  114OSM    C7F11940   4.887   3.937   9.658  0.4961 -0.3989  0.2078
  114OSM    H7F11941   4.902   3.827   9.669 -0.2891 -0.4572  0.8001
  114OSM    H7G11942   4.981   3.993   9.642 -0.2792  1.0122  0.4698
  114OSM    C8F11943   4.815   3.966   9.529 -0.1881  0.2337 -0.0067
  114OSM    H8F11944   4.805   4.076   9.519  1.6484  0.4925  0.5823
  114OSM    H8G11945   4.711   3.928   9.537 -0.7786  2.0417  1.7280
  114OSM    C9F11946   4.886   3.895   9.412  0.1235 -0.7989 -0.4134
  114OSM    H9F11947   4.990   3.930   9.399 -0.7489  2.2133 -0.1151
  114OSM   C10F11948   4.816   3.832   9.320 -0.9191  0.1832  0.0284
  114OSM   H10F11949   4.870   3.779   9.240 -0.8161 -1.2603  1.0262
  114OSM   C11F11950   4.672   3.818   9.314  0.0491 -0.4623 -0.0558
  114OSM   H11F11951   4.619   3.908   9.352 -1.1472 -0.4212 -1.6888
  114OSM   H11G11952   4.639   3.732   9.377 -0.6229  0.9310  1.5412
  114OSM   C12F11953   4.615   3.806   9.168 -0.2498  0.2453  0.1211
  114OSM   H12F11954   4.594   3.700   9.142 -1.2078  1.0625 -2.8429
  114OSM   H12G11955   4.685   3.839   9.088 -0.3827 -0.2336 -0.1968
  114OSM   C13F11956   4.474   3.874   9.165  0.4096 -0.1410  0.2573
  114OSM   H13F11957   4.498   3.980   9.190  1.9570 -0.6004  0.8781
  114OSM   H13G11958   4.418   3.842   9.256  0.2928  1.1546  0.6611
  114OSM   C14F11959   4.393   3.862   9.036 -0.0560  0.4945  0.1114
  114OSM   H14F11960   4.353   3.758   9.036 -1.4778  0.9629  2.3508
  114OSM   H14G11961   4.445   3.885   8.941 -0.7088 -1.9879 -0.9230
  114OSM   C15F11962   4.255   3.933   9.039  0.2063 -0.7917 -0.0173
  114OSM   H15F11963   4.273   4.040   9.063 -0.7532  0.1466 -2.9870
  114OSM   H15G11964   4.198   3.888   9.123 -0.8317 -0.4281 -0.5198
  114OSM   C16F11965   4.175   3.930   8.899  0.3984  0.3822  0.0444
  114OSM   H16F11966   4.160   3.822   8.874 -1.0979  0.3438  1.0028
  114OSM   H16G11967   4.246   3.967   8.823 -1.4361  1.5254 -1.2023
  114OSM   C17F11968   4.045   4.004   8.888  0.0257 -0.3747 -0.2257
  114OSM   H17F11969   4.081   4.107   8.908  1.1467 -0.7606 -0.1825
  114OSM   H17G11970   3.989   3.978   8.980 -0.0803  2.7830  0.7297
  114OSM   C18F11971   3.967   3.977   8.764  0.0038  0.1211 -0.0348
  114OSM   H18F11972   4.026   3.990   8.671 -0.9973 -1.9114 -1.0048
  114OSM   H18G11973   3.873   4.036   8.766 -0.2777 -0.3376  1.2445
  114OSM   H18H11974   3.936   3.871   8.768  2.1669 -0.5196  1.6391
  115OSM      N11975   0.850   1.795  11.258  0.1343 -0.0929 -0.3696
  115OSM    C1511976   0.840   1.804  11.408 -0.0812 -0.1525 -0.4081
  115OSM   H15A11977   0.910   1.870  11.458 -0.5242 -1.1367  1.6140
  115OSM   H15B11978   0.840   1.707  11.456 -0.5549 -0.9528 -1.9774
  115OSM   H15C11979   0.749   1.850  11.442 -0.1122 -0.2146 -0.4072
  115OSM    C1411980   0.843   1.936  11.212  0.3685 -0.5885 -0.2133
  115OSM   H14A11981   0.851   1.959  11.107  0.2604  0.9791  0.0932
  115OSM   H14B11982   0.917   1.994  11.265  0.7990 -2.9740  2.0023
  115OSM   H14C11983   0.750   1.981  11.247 -0.1019  1.1090 -3.2532
  115OSM    C1311984   0.988   1.750  11.216  0.3896 -0.2758 -0.5430
  115OSM   H13A11985   1.015   1.654  11.257 -1.6646  0.7068  3.6561
  115OSM   H13B11986   1.053   1.828  11.254 -1.3513  0.1974  1.7058
  115OSM   H13C11987   0.989   1.742  11.108 -1.3352 -0.6841 -0.5545
  115OSM    C1211988   0.743   1.712  11.196 -0.3011  0.3307 -0.0759
  115OSM   H12A11989   0.645   1.747  11.227 -0.1780  1.1924 -0.6112
  115OSM   H12B11990   0.749   1.610  11.231 -0.5291 -0.6250 -2.6065
  115OSM    C1111991   0.730   1.732  11.042  0.0449 -0.2165  0.3022
  115OSM   H11A11992   0.724   1.842  11.024 -0.4391  0.2802  2.9920
  115OSM   H11B11993   0.628   1.699  11.012  0.2999 -1.2638  0.5386
  115OSM      P11994   0.829   1.512  10.956 -0.0924 -0.0074  0.1936
  115OSM    O1311995   0.964   1.467  10.920 -0.2345 -0.1461  0.2780
  115OSM    O1411996   0.764   1.444  11.070  0.0848 -0.4006 -0.2318
  115OSM    O1111997   0.730   1.500  10.835 -0.1405  0.4810  0.3739
  115OSM    O1211998   0.835   1.674  10.976 -0.8109 -0.2992  0.6197
  115OSM    C1S11999   0.788   1.540  10.705  0.0238 -0.4077 -0.7407
  115OSM    H1S12000   0.876   1.476  10.682  1.1554  0.3324  1.2134
  115OSM    H1T12001   0.823   1.645  10.697  1.2689 -0.7376 -0.0488
  115OSM     NF12002   0.752   1.579  10.461 -0.0561  0.3271  0.0001
  115OSM    HNF12003   0.756   1.672  10.426  0.8099  0.9273  1.5802
  115OSM    C2S12004   0.680   1.540  10.585  0.1843 -0.6184 -0.2720
  115OSM    H2S12005   0.648   1.435  10.568  0.3238 -0.8810  0.9630
  115OSM    C3S12006   0.553   1.624  10.616 -0.1711 -0.0874 -0.6761
  115OSM    H3S12007   0.592   1.728  10.614  1.1513 -0.3899  2.7386
  115OSM     O312008   0.507   1.619  10.751  0.4813 -0.0062 -0.0606
  115OSM    HO312009   0.581   1.584  10.800  0.5405  0.3113  0.0790
  115OSM    C4S12010   0.445   1.595  10.518 -0.1803  0.5989 -0.5962
  115OSM    H4S12011   0.442   1.491  10.485  0.2720  0.9204 -1.7156
  115OSM    C5S12012   0.366   1.685  10.461  0.3463 -0.7123  0.0351
  115OSM    H5S12013   0.381   1.792  10.482  0.1520 -0.2443 -2.0623
  115OSM    C6S12014   0.264   1.659  10.353  0.1794 -0.2015 -0.2195
  115OSM    H6S12015   0.168   1.691  10.398  0.2689 -0.5724  0.2509
  115OSM    H6T12016   0.256   1.548  10.341  2.8325 -0.6524  1.4782
  115OSM    C7S12017   0.284   1.742  10.220 -0.4698 -0.2094 -0.2702
  115OSM    H7S12018   0.390   1.726  10.191 -0.5571  1.2689 -1.4844
  115OSM    H7T12019   0.287   1.848  10.251 -0.3376 -0.7234  1.6180
  115OSM    C8S12020   0.204   1.702  10.101 -0.1227 -0.1287 -0.8088
  115OSM    H8S12021   0.105   1.746  10.125 -0.3653 -2.0130  2.2646
  115OSM    H8T12022   0.186   1.593  10.087 -1.3612  0.2349 -2.2699
  115OSM    C9S12023   0.250   1.757   9.965 -0.1872 -0.0536 -0.3897
  115OSM    H9S12024   0.338   1.695   9.937 -1.0369 -0.7683 -1.5597
  115OSM    H9T12025   0.267   1.865   9.980 -0.6334  0.0739 -0.7991
  115OSM   C10S12026   0.147   1.735   9.854 -0.3519  0.1337 -0.8664
  115OSM   H10S12027   0.049   1.764   9.900 -0.0859 -0.8615  0.3702
  115OSM   H10T12028   0.155   1.629   9.824  1.6169  0.4284 -1.5201
  115OSM   C11S12029   0.183   1.819   9.730 -0.4554 -1.0194  0.0153
  115OSM   H11S12030   0.289   1.813   9.697 -0.0958  1.4245  0.5512
  115OSM   H11T12031   0.165   1.927   9.749 -0.9066 -0.8138 -1.4749
  115OSM   C12S12032   0.106   1.779   9.610 -0.2569 -0.8256  0.1903
  115OSM   H12S12033  -0.003   1.765   9.628 -0.5944  0.7172 -0.4838
  115OSM   H12T12034   0.141   1.677   9.585  2.1904 -0.2961  1.1985
  115OSM   C13S12035   0.117   1.871   9.485  0.2994  0.4616 -0.0266
  115OSM   H13S12036   0.223   1.871   9.451  0.4331  1.2938  0.3484
  115OSM   H13T12037   0.094   1.978   9.507  1.0477  0.8101 -0.9021
  115OSM   C14S12038   0.018   1.818   9.377 -0.4199  0.2559 -0.5257
  115OSM   H14S12039  -0.086   1.813   9.416 -0.6130 -1.0522 -1.1403
  115OSM   H14T12040   0.051   1.713   9.361 -0.5536  0.3553 -1.5034
  115OSM   C15S12041   0.022   1.902   9.249  0.0849 -0.2507  0.5948
  115OSM   H15S12042   0.117   1.901   9.192 -0.9191  2.2716 -1.3057
  115OSM   H15T12043  -0.006   2.006   9.276 -1.0155 -0.5724  0.7334
  115OSM   C16S12044  -0.088   1.845   9.147 -0.3770 -0.1826 -0.6701
  115OSM   H16S12045  -0.183   1.825   9.200  0.3004 -1.5431  0.0819
  115OSM   H16T12046  -0.056   1.748   9.104  0.1085  0.2686 -1.3530
  115OSM   C17S12047  -0.099   1.935   9.024  0.8657 -0.3282  0.2743
  115OSM   H17S12048  -0.003   1.956   8.973 -0.8354  1.2039 -2.5473
  115OSM   H17T12049  -0.129   2.037   9.055  0.0571 -0.1267 -1.1001
  115OSM   C18S12050  -0.190   1.877   8.919  0.1461 -0.8488 -0.3106
  115OSM   H18S12051  -0.172   1.770   8.899 -1.0414 -1.4290  1.5596
  115OSM   H18T12052  -0.195   1.943   8.829 -0.2529 -1.4531 -0.7333
  115OSM   H18U12053  -0.292   1.878   8.962  0.5017 -2.0413  0.5872
  115OSM    C1F12054   0.835   1.489  10.402 -0.5739  0.0292  0.1733
  115OSM     OF12055   0.811   1.371  10.407 -0.1016 -0.0600 -0.0581
  115OSM    C2F12056   0.951   1.536  10.320 -0.8278  0.2196 -0.1878
  115OSM    H2F12057   1.007   1.602  10.390 -0.3388 -1.7235  1.3556
  115OSM    H2G12058   0.914   1.601  10.238  0.5237  2.1699  0.6549
  115OSM    C3F12059   1.037   1.426  10.259 -0.5492 -0.4827 -0.3494
  115OSM    H3F12060   1.066   1.345  10.330 -0.9027 -1.0450 -0.8302
  115OSM    H3G12061   1.141   1.465  10.249 -1.4571  2.4395  0.6523
  115OSM    C4F12062   0.986   1.372  10.127 -0.2772 -0.5257 -0.2722
  115OSM    H4F12063   0.966   1.461  10.063  0.8766 -0.5727 -0.7244
  115OSM    H4G12064   0.888   1.323  10.145 -0.3445 -0.4766 -0.4961
  115OSM    C5F12065   1.093   1.281  10.068 -0.0467 -0.0550  0.2498
  115OSM    H5F12066   1.114   1.195  10.135 -0.0467 -0.2118  0.0492
  115OSM    H5G12067   1.186   1.342  10.063 -0.7783  1.1335  0.7097
  115OSM    C6F12068   1.069   1.235   9.919 -0.2103  0.3462 -0.7735
  115OSM    H6F12069   0.965   1.196   9.927 -0.3613  1.1135  1.8023
  115OSM    H6G12070   1.140   1.156   9.885  1.6164  1.5000  0.1993
  115OSM    C7F12071   1.072   1.349   9.819  0.3718  0.5444  1.1744
  115OSM    H7F12072   1.154   1.424   9.827  0.1756  0.6832  1.9117
  115OSM    H7G12073   0.976   1.404   9.825 -0.9218 -1.3546 -0.8333
  115OSM    C8F12074   1.080   1.300   9.668  0.2574 -0.0895  0.3937
  115OSM    H8F12075   1.169   1.233   9.660 -0.4168 -1.5601  3.5820
  115OSM    H8G12076   1.094   1.392   9.606 -1.9435 -0.1904 -0.3243
  115OSM    C9F12077   0.957   1.229   9.616 -0.2878  0.4191 -0.0313
  115OSM    H9F12078   0.894   1.191   9.699 -2.2045  0.4198 -1.4182
  115OSM   C10F12079   0.926   1.217   9.489 -0.1951 -0.3530 -0.3485
  115OSM   H10F12080   0.823   1.193   9.460  0.2845  0.1372 -2.6443
  115OSM   C11F12081   1.013   1.277   9.380 -0.2967  0.2178  0.0134
  115OSM   H11F12082   1.100   1.333   9.422 -0.0933 -0.6584  0.7980
  115OSM   H11G12083   0.953   1.333   9.306  1.4382  1.0306 -0.8553
  115OSM   C12F12084   1.084   1.165   9.296 -0.1189 -0.6216  0.2213
  115OSM   H12F12085   1.157   1.114   9.362  1.2762  0.5960 -0.3095
  115OSM   H12G12086   1.133   1.215   9.209 -1.0148  1.0326  0.6239
  115OSM   C13F12087   0.977   1.065   9.238  0.0610  0.0500  0.8900
  115OSM   H13F12088   0.912   1.022   9.318 -2.4721  1.5193 -0.2832
  115OSM   H13G12089   1.035   0.987   9.185  0.4444  0.8502  0.1133
  115OSM   C14F12090   0.882   1.132   9.132 -0.1905  0.6646 -0.5251
  115OSM   H14F12091   0.868   1.058   9.050  3.5761 -2.5853  1.4215
  115OSM   H14G12092   0.952   1.202   9.083  2.8966  1.3258  4.1955
  115OSM   C15F12093   0.751   1.192   9.186  0.4497  0.2561 -0.2070
  115OSM   H15F12094   0.776   1.281   9.247 -1.2423  0.3840  0.3624
  115OSM   H15G12095   0.695   1.120   9.251  0.7985  0.1939  0.0253
  115OSM   C16F12096   0.666   1.228   9.067 -0.4298 -1.1415 -0.1225
  115OSM   H16F12097   0.571   1.269   9.106 -0.1247  0.7128 -1.1475
  115OSM   H16G12098   0.636   1.140   9.006  0.4492 -0.2305 -1.9829
  115OSM   C17F12099   0.725   1.345   8.993  0.4195 -0.4341 -0.9370
  115OSM   H17F12100   0.814   1.322   8.931  0.3061 -2.9462 -0.2652
  115OSM   H17G12101   0.762   1.419   9.068  0.4212 -2.3214  1.0354
  115OSM   C18F12102   0.612   1.391   8.898 -0.4270  0.6326  0.1333
  115OSM   H18F12103   0.529   1.447   8.947  0.1519  2.1550 -0.5593
  115OSM   H18G12104   0.583   1.294   8.853  0.3768  0.2212  0.4987
  115OSM   H18H12105   0.651   1.465   8.824  1.8062  0.0917  0.7027
  116OSM      N12106   1.138   5.649  11.308  0.1593  0.7752  0.4112
  116OSM    C1512107   1.256   5.741  11.294  0.5066 -0.0290  0.2604
  116OSM   H15A12108   1.349   5.688  11.304  0.3995 -1.2033 -3.5086
  116OSM   H15B12109   1.253   5.820  11.368 -0.9108  0.5322 -0.3615
  116OSM   H15C12110   1.259   5.784  11.194 -0.2820 -3.4501 -1.3720
  116OSM    C1412111   1.169   5.555  11.416 -0.0425  0.1948 -0.6170
  116OSM   H14A12112   1.241   5.486  11.376  0.0065  0.0649 -0.3096
  116OSM   H14B12113   1.088   5.492  11.448 -0.4949  1.7597  1.5998
  116OSM   H14C12114   1.216   5.601  11.502  1.3018 -0.9132 -0.7267
  116OSM    C1312115   1.026   5.737  11.343  0.0502  0.0677  0.5668
  116OSM   H13A12116   1.002   5.813  11.270 -2.6733  0.4412  1.7200
  116OSM   H13B12117   1.045   5.783  11.439  0.9629 -1.1778  1.0067
  116OSM   H13C12118   0.934   5.681  11.350  0.1925 -0.8921 -3.0927
  116OSM    C1212119   1.112   5.575  11.172  0.2314 -0.4286 -0.5706
  116OSM   H12A12120   1.044   5.494  11.192 -1.8810  1.1407 -1.0172
  116OSM   H12B12121   1.204   5.532  11.134  0.0911 -0.3501 -1.0062
  116OSM    C1112122   1.059   5.657  11.052  0.7024  0.3391  0.6726
  116OSM   H11A12123   0.974   5.723  11.082  0.0845  0.5271 -1.3668
  116OSM   H11B12124   1.004   5.594  10.979 -1.2316  1.9808  0.5959
  116OSM      P12125   1.253   5.679  10.876  0.4256 -0.1710 -0.3502
  116OSM    O1312126   1.347   5.789  10.838 -0.2110 -0.7072  0.0291
  116OSM    O1412127   1.313   5.550  10.916  0.1877 -0.0376  0.0487
  116OSM    O1112128   1.148   5.651  10.766 -0.2652 -0.0283 -0.4067
  116OSM    O1212129   1.172   5.732  11.002  0.0140 -0.7688  1.3282
  116OSM    C1S12130   1.063   5.762  10.722 -0.0537  0.1083  0.5150
  116OSM    H1S12131   1.104   5.863  10.741  0.4129  0.7314 -3.0991
  116OSM    H1T12132   0.967   5.746  10.775 -0.6921  2.3629  0.1230
  116OSM     NF12133   1.002   5.882  10.532  0.2914 -0.5873  0.4644
  116OSM    HNF12134   0.904   5.897  10.542  0.5824  0.3166  2.4150
  116OSM    C2S12135   1.036   5.745  10.564 -0.1547 -0.3589 -0.9415
  116OSM    H2S12136   1.123   5.717  10.502  0.1712 -2.5630  0.4124
  116OSM    C3S12137   0.936   5.635  10.549 -1.3284 -0.1024  0.1318
  116OSM    H3S12138   0.845   5.659  10.607 -1.4783 -1.1497  0.3495
  116OSM     O312139   0.979   5.514  10.608 -0.0506  0.5115  0.3153
  116OSM    HO312140   1.060   5.535  10.655 -0.2400 -0.8536  1.3100
  116OSM    C4S12141   0.899   5.606  10.403  0.6676 -0.5395 -0.1727
  116OSM    H4S12142   0.843   5.683  10.348  1.1793 -0.7901 -1.0653
  116OSM    C5S12143   0.943   5.503  10.318  0.0484  0.7538  0.4716
  116OSM    H5S12144   1.014   5.433  10.364  0.7872  0.9260 -0.3700
  116OSM    C6S12145   0.904   5.494  10.175 -0.4713  0.1959  0.1304
  116OSM    H6S12146   0.794   5.508  10.182 -0.7502 -1.0782 -1.2072
  116OSM    H6T12147   0.923   5.386  10.154 -1.2601 -0.3034  1.7648
  116OSM    C7S12148   0.971   5.591  10.082  0.1721  0.1165  0.2006
  116OSM    H7S12149   1.079   5.571  10.065  0.1354  0.7228 -0.8400
  116OSM    H7T12150   0.963   5.691  10.130  0.3477  0.8033 -1.1536
  116OSM    C8S12151   0.904   5.604   9.942 -0.0533 -0.0490  0.0113
  116OSM    H8S12152   0.796   5.630   9.952 -0.1383 -0.4321  0.0739
  116OSM    H8T12153   0.933   5.513   9.886  1.2541 -0.6526  1.5950
  116OSM    C9S12154   0.956   5.721   9.862 -0.4581  0.2176  0.3910
  116OSM    H9S12155   1.067   5.721   9.869 -0.3402  0.4625 -1.1024
  116OSM    H9T12156   0.914   5.808   9.917  0.1665 -0.4561  1.9791
  116OSM   C10S12157   0.920   5.713   9.716  0.3367  0.5137  0.0533
  116OSM   H10S12158   0.910   5.815   9.674 -0.4333  0.6609  0.5633
  116OSM   H10T12159   0.821   5.663   9.713  0.3383  0.4774  0.4719
  116OSM   C11S12160   1.017   5.645   9.627 -0.0104  0.0710 -0.1420
  116OSM   H11S12161   1.036   5.540   9.657 -4.3124 -0.5101  1.2265
  116OSM   H11T12162   1.110   5.705   9.637 -0.4403  0.7433 -0.1550
  116OSM   C12S12163   0.968   5.644   9.477  0.5741  0.2456 -0.7629
  116OSM   H12S12164   0.937   5.745   9.440 -0.5911  0.1123 -0.2109
  116OSM   H12T12165   0.889   5.568   9.459  0.6207  0.2686 -1.0738
  116OSM   C13S12166   1.081   5.609   9.387 -0.4791  0.0104  0.2068
  116OSM   H13S12167   1.113   5.503   9.392  0.1155  0.2199  1.0115
  116OSM   H13T12168   1.169   5.668   9.420  1.1513 -2.3019  0.2530
  116OSM   C14S12169   1.055   5.647   9.242  0.1291 -0.3542  0.8553
  116OSM   H14S12170   1.063   5.758   9.237  1.3858 -0.4912 -1.7744
  116OSM   H14T12171   0.953   5.610   9.214  0.9671 -1.8111 -0.4428
  116OSM   C15S12172   1.146   5.585   9.134  0.3710  0.5852  0.2554
  116OSM   H15S12173   1.163   5.475   9.143 -2.4993  0.1321  0.9267
  116OSM   H15T12174   1.247   5.631   9.139  1.5973 -1.8260 -0.4350
  116OSM   C16S12175   1.096   5.627   8.994 -0.0603  0.2380 -0.2375
  116OSM   H16S12176   1.105   5.737   8.980 -0.4371  0.2503 -0.3867
  116OSM   H16T12177   0.987   5.606   8.992 -0.2763  0.7959  2.1345
  116OSM   C17S12178   1.170   5.554   8.880  0.5804  0.0472  0.1696
  116OSM   H17S12179   1.132   5.450   8.876 -0.6831  0.4976 -0.0737
  116OSM   H17T12180   1.278   5.544   8.902  0.5864 -1.1318 -0.2978
  116OSM   C18S12181   1.135   5.618   8.737  0.1462  0.3939 -0.8476
  116OSM   H18S12182   1.191   5.714   8.737  1.1807 -0.1020  2.0286
  116OSM   H18T12183   1.027   5.627   8.717 -0.0999  0.9683  0.6047
  116OSM   H18U12184   1.172   5.556   8.652  0.1545 -2.0603  0.8293
  116OSM    C1F12185   1.092   5.983  10.524 -0.2234 -0.0227  0.2903
  116OSM     OF12186   1.212   5.951  10.529  0.0533 -0.0564 -0.1397
  116OSM    C2F12187   1.045   6.128  10.503  0.1597  0.6668 -0.0094
  116OSM    H2F12188   1.134   6.191  10.486 -0.5404  1.4064 -1.0760
  116OSM    H2G12189   0.999   6.157  10.600 -0.2751  3.8774 -1.0555
  116OSM    C3F12190   0.946   6.153  10.390  0.3151  0.2198 -0.0549
  116OSM    H3F12191   0.926   6.262  10.393 -1.0929 -0.0113 -0.4884
  116OSM    H3G12192   0.846   6.112  10.415  0.9953 -1.4134  0.1272
  116OSM    C4F12193   0.995   6.097  10.256  0.1231  0.0162 -0.1936
  116OSM    H4F12194   0.979   5.987  10.261 -0.6353  0.0066 -1.8826
  116OSM    H4G12195   1.101   6.125  10.240  0.7025 -1.9740 -0.0385
  116OSM    C5F12196   0.917   6.148  10.136  0.1183 -0.1810  0.2543
  116OSM    H5F12197   0.891   6.256  10.146  0.7823 -0.1551  1.8424
  116OSM    H5G12198   0.816   6.101  10.139  0.0158 -0.0231 -0.4500
  116OSM    C6F12199   0.975   6.118   9.998 -0.0855 -0.0605 -0.0216
  116OSM    H6F12200   0.999   6.012   9.975  1.0042 -0.5131  2.8310
  116OSM    H6G12201   1.071   6.173   9.988  0.2095 -0.5486  0.1333
  116OSM    C7F12202   0.897   6.177   9.885 -0.6536 -0.5833 -0.2556
  116OSM    H7F12203   0.882   6.285   9.910  0.4031 -0.7278  1.1162
  116OSM    H7G12204   0.801   6.122   9.890  0.7333 -3.0470  1.1050
  116OSM    C8F12205   0.968   6.153   9.747 -0.3429  0.9700  0.2757
  116OSM    H8F12206   0.968   6.044   9.722  5.2907  0.7396 -0.0523
  116OSM    H8G12207   1.076   6.178   9.756  0.1249 -0.6976 -0.2750
  116OSM    C9F12208   0.901   6.237   9.641 -0.0662 -0.1571  0.2435
  116OSM    H9F12209   0.934   6.341   9.623  0.5797 -0.8538 -3.6536
  116OSM   C10F12210   0.794   6.197   9.571 -0.2954 -0.1021 -0.1681
  116OSM   H10F12211   0.742   6.252   9.492 -1.0195 -2.5743 -1.5145
  116OSM   C11F12212   0.738   6.062   9.585  0.8874 -0.4662  0.2718
  116OSM   H11F12213   0.629   6.075   9.603  1.0127  0.6806  0.3239
  116OSM   H11G12214   0.774   5.997   9.667  0.1381 -2.0426 -0.6219
  116OSM   C12F12215   0.741   5.984   9.451 -0.5292 -0.1292  0.0922
  116OSM   H12F12216   0.721   5.876   9.471  0.9679 -0.3894  0.2645
  116OSM   H12G12217   0.845   5.982   9.412  0.1881 -0.7371  1.9351
  116OSM   C13F12218   0.635   6.023   9.349 -0.3807 -0.1058 -0.3005
  116OSM   H13F12219   0.649   6.131   9.326  0.3482  0.3964  2.1616
  116OSM   H13G12220   0.539   6.005   9.401 -0.7052 -0.2566 -0.9479
  116OSM   C14F12221   0.646   5.924   9.231  0.1262 -0.6708 -0.4257
  116OSM   H14F12222   0.594   5.831   9.262 -0.3512 -0.0767  0.6077
  116OSM   H14G12223   0.755   5.907   9.221  0.4951  1.7733 -1.3987
  116OSM   C15F12224   0.591   5.969   9.093 -0.1167 -0.3474  0.0763
  116OSM   H15F12225   0.482   5.986   9.100 -0.0613  1.5569 -2.3862
  116OSM   H15G12226   0.607   5.886   9.021 -1.2586 -1.4930  1.0874
  116OSM   C16F12227   0.652   6.097   9.037  0.6136 -0.0407 -0.2283
  116OSM   H16F12228   0.761   6.079   9.044  0.5296 -0.8304 -0.8751
  116OSM   H16G12229   0.620   6.169   9.116  0.0081 -0.8764  0.3062
  116OSM   C17F12230   0.610   6.135   8.894 -0.2338  0.4233  0.7147
  116OSM   H17F12231   0.504   6.163   8.910 -0.2901  0.2032  0.7184
  116OSM   H17G12232   0.614   6.042   8.835 -0.3922 -0.3381  1.8788
  116OSM   C18F12233   0.693   6.253   8.848 -0.4402 -0.3755  0.2544
  116OSM   H18F12234   0.667   6.344   8.904 -1.7466  0.8721 -2.2065
  116OSM   H18G12235   0.662   6.274   8.743 -3.7198 -1.5646  0.8807
  116OSM   H18H12236   0.803   6.233   8.845 -0.0456  1.3984 -3.5192
  117OSM      N12237   2.999   6.405  11.266 -0.2553  0.3398  0.1697
  117OSM    C1512238   3.010   6.266  11.216  0.4489  0.2906 -0.1270
  117OSM   H15A12239   2.951   6.245  11.129  0.0188  3.0197 -0.6063
  117OSM   H15B12240   2.982   6.197  11.295 -3.8326 -0.2374 -1.8267
  117OSM   H15C12241   3.111   6.253  11.181  0.2361 -1.9656  0.0060
  117OSM    C1412242   2.857   6.421  11.324 -0.3291 -0.3829  0.5139
  117OSM   H14A12243   2.845   6.379  11.423 -1.3264 -1.9254 -0.2284
  117OSM   H14B12244   2.779   6.375  11.264  0.8609 -1.4381 -0.2754
  117OSM   H14C12245   2.839   6.527  11.324  2.0919  0.0938 -0.1435
  117OSM    C1312246   3.100   6.415  11.372 -0.4638  0.0225 -0.7384
  117OSM   H13A12247   3.063   6.355  11.454  0.5657 -0.7701 -0.8265
  117OSM   H13B12248   3.113   6.519  11.394  1.0498 -0.0747 -1.0811
  117OSM   H13C12249   3.201   6.382  11.354  0.3297  1.4359  0.8961
  117OSM    C1212250   3.040   6.482  11.140  0.9094  0.2762  0.2691
  117OSM   H12A12251   3.143   6.464  11.116  0.2496 -0.9088 -1.8866
  117OSM   H12B12252   3.029   6.588  11.158 -2.4622 -0.1448  1.6146
  117OSM    C1112253   2.953   6.452  11.010 -0.1692 -0.7090 -0.2752
  117OSM   H11A12254   2.985   6.354  10.969  3.0184  0.1390 -0.0753
  117OSM   H11B12255   2.990   6.534  10.946  0.4051 -0.8672 -0.1554
  117OSM      P12256   2.727   6.571  10.988 -0.3467 -0.4229  0.0054
  117OSM    O1312257   2.589   6.531  10.960  0.1926  0.3739 -0.3690
  117OSM    O1412258   2.748   6.692  11.070 -0.0199 -0.0202 -0.4122
  117OSM    O1112259   2.798   6.596  10.849 -0.3975 -0.1307 -0.3022
  117OSM    O1212260   2.817   6.451  11.042  0.3102  0.0683  0.0330
  117OSM    C1S12261   2.723   6.607  10.732 -0.2682 -0.7260 -0.5863
  117OSM    H1S12262   2.625   6.658  10.744  0.7232  1.4340 -1.1583
  117OSM    H1T12263   2.709   6.505  10.690 -2.3294 -0.2883 -1.0850
  117OSM     NF12264   2.747   6.673  10.481  0.0291  0.0268  1.2718
  117OSM    HNF12265   2.796   6.615  10.417 -1.0573 -1.6673  1.8934
  117OSM    C2S12266   2.810   6.686  10.614 -0.2327  0.1903 -0.5932
  117OSM    H2S12267   2.822   6.793  10.640  0.8485  0.0764 -0.5702
  117OSM    C3S12268   2.956   6.627  10.612 -0.2044 -0.4825  0.7288
  117OSM    H3S12269   2.953   6.518  10.590  0.1914 -0.5779  1.1217
  117OSM     O312270   3.032   6.640  10.737  0.3462 -0.3914 -0.1796
  117OSM    HO312271   2.963   6.663  10.800 -0.0682 -1.3712 -0.2512
  117OSM    C4S12272   3.023   6.697  10.500 -0.1615 -0.4854 -0.1138
  117OSM    H4S12273   3.012   6.806  10.485  0.5085 -0.1380  1.6929
  117OSM    C5S12274   3.088   6.628  10.399 -0.0237 -0.2845  0.1139
  117OSM    H5S12275   3.106   6.521  10.416  1.8421  0.2051  1.5407
  117OSM    C6S12276   3.148   6.690  10.277 -0.6372 -0.5116 -0.5157
  117OSM    H6S12277   3.138   6.800  10.282 -0.0628 -0.4882  0.2653
  117OSM    H6T12278   3.092   6.654  10.188 -1.6954  1.3469 -0.6445
  117OSM    C7S12279   3.298   6.663  10.255 -1.4641  0.0136  0.7230
  117OSM    H7S12280   3.302   6.555  10.228 -1.4322  0.0762  0.4784
  117OSM    H7T12281   3.356   6.682  10.348  0.9189  1.2260 -0.9244
  117OSM    C8S12282   3.365   6.752  10.145  0.7400 -0.1384 -0.6249
  117OSM    H8S12283   3.473   6.727  10.147  0.9780  0.8537 -0.5212
  117OSM    H8T12284   3.360   6.859  10.173 -1.3610 -0.8417  2.0660
  117OSM    C9S12285   3.320   6.730   9.999 -0.1489  0.5668  0.1329
  117OSM    H9S12286   3.215   6.765   9.990 -0.1455  0.6144  0.2711
  117OSM    H9T12287   3.318   6.620   9.985 -1.4774  0.6899 -0.9044
  117OSM   C10S12288   3.418   6.778   9.890  0.1918 -0.5279 -0.4557
  117OSM   H10S12289   3.516   6.730   9.914  0.3878  0.3114  0.4762
  117OSM   H10T12290   3.425   6.889   9.895 -0.5553 -0.5225  2.7179
  117OSM   C11S12291   3.373   6.743   9.744  0.0683 -0.1556  0.5618
  117OSM   H11S12292   3.262   6.754   9.734 -0.1521 -1.5327  1.3158
  117OSM   H11T12293   3.392   6.639   9.712  2.0713  1.0537 -2.6887
  117OSM   C12S12294   3.430   6.843   9.634 -0.4949  0.7502  0.2766
  117OSM   H12S12295   3.530   6.874   9.670 -1.3908  2.1667  1.6861
  117OSM   H12T12296   3.366   6.933   9.649 -0.4530  0.9283 -0.5669
  117OSM   C13S12297   3.437   6.786   9.484  0.3366 -0.0672 -0.1846
  117OSM   H13S12298   3.350   6.730   9.444 -1.5825  3.0521 -0.7530
  117OSM   H13T12299   3.517   6.710   9.481  1.0185  0.6279  0.0755
  117OSM   C14S12300   3.457   6.904   9.380 -0.1950  0.6079  0.1819
  117OSM   H14S12301   3.556   6.953   9.384 -0.0763  0.3842 -0.0094
  117OSM   H14T12302   3.387   6.985   9.409  2.0651  2.8035 -0.2153
  117OSM   C15S12303   3.418   6.862   9.240 -0.4766 -0.4321  0.2853
  117OSM   H15S12304   3.421   6.954   9.178 -1.2072  0.0998  1.0242
  117OSM   H15T12305   3.318   6.815   9.232 -0.0933 -1.0582 -1.0853
  117OSM   C16S12306   3.540   6.773   9.191  0.0262  0.1293  0.5039
  117OSM   H16S12307   3.542   6.680   9.252 -0.7013  0.6842  1.3974
  117OSM   H16T12308   3.632   6.834   9.207  1.2566 -1.6628  0.5301
  117OSM   C17S12309   3.499   6.731   9.042  0.0404 -0.1976  0.5867
  117OSM   H17S12310   3.480   6.824   8.984  3.7366  1.4200  1.7006
  117OSM   H17T12311   3.405   6.672   9.049 -1.9677  2.8114  0.8089
  117OSM   C18S12312   3.615   6.655   8.966 -0.1991 -0.3956 -0.7534
  117OSM   H18S12313   3.603   6.547   8.988  0.7852 -0.2033  0.9249
  117OSM   H18T12314   3.712   6.688   9.009  1.2813 -1.7229 -2.8136
  117OSM   H18U12315   3.611   6.676   8.857  3.0117  0.0770 -0.8848
  117OSM    C1F12316   2.632   6.729  10.437 -0.1203 -0.1267 -0.1005
  117OSM     OF12317   2.574   6.803  10.511  0.3037 -0.6088 -0.8618
  117OSM    C2F12318   2.569   6.693  10.301 -0.7003  0.3995  0.6297
  117OSM    H2F12319   2.495   6.610  10.305 -2.3304  1.5536 -2.2010
  117OSM    H2G12320   2.653   6.674  10.231  1.0286  1.5164  2.3279
  117OSM    C3F12321   2.497   6.808  10.229  0.3822  0.4761 -0.4008
  117OSM    H3F12322   2.574   6.885  10.206  2.1787  0.0201  3.3823
  117OSM    H3G12323   2.426   6.861  10.296 -0.9833  0.8690 -2.0839
  117OSM    C4F12324   2.399   6.764  10.118 -1.1320 -0.4843  0.6474
  117OSM    H4F12325   2.306   6.712  10.150 -1.7169 -0.2844 -0.6636
  117OSM    H4G12326   2.465   6.696  10.059  0.2119  0.1156  1.4189
  117OSM    C5F12327   2.349   6.887  10.032 -0.0277 -0.2929  0.0070
  117OSM    H5F12328   2.433   6.951   9.997 -0.4899 -0.1811 -0.9350
  117OSM    H5G12329   2.284   6.948  10.099 -1.0253  0.2227 -1.3680
  117OSM    C6F12330   2.259   6.851   9.915 -0.1055  0.5283  0.7637
  117OSM    H6F12331   2.214   6.937   9.861 -1.1959 -0.7638 -0.4843
  117OSM    H6G12332   2.169   6.791   9.940 -0.1883  0.2322 -0.1932
  117OSM    C7F12333   2.320   6.754   9.816 -0.0393  0.1468 -0.1826
  117OSM    H7F12334   2.336   6.656   9.868  0.0507  0.8302  1.1218
  117OSM    H7G12335   2.417   6.795   9.781  0.4752 -0.2286  0.7484
  117OSM    C8F12336   2.225   6.727   9.699 -0.2253 -0.0600 -0.5973
  117OSM    H8F12337   2.191   6.829   9.671  2.6056  1.1932  0.1270
  117OSM    H8G12338   2.133   6.673   9.729  0.3401  0.2141  1.8421
  117OSM    C9F12339   2.286   6.660   9.582 -0.4522 -0.8330  0.1436
  117OSM    H9F12340   2.396   6.662   9.587 -0.3854  3.1943  0.3519
  117OSM   C10F12341   2.230   6.597   9.477 -0.1205 -0.7259 -0.1205
  117OSM   H10F12342   2.308   6.559   9.408  1.2219  2.8758 -0.7994
  117OSM   C11F12343   2.082   6.564   9.451 -0.4468 -0.4101 -0.1805
  117OSM   H11F12344   2.020   6.582   9.542 -0.8950 -0.9669 -0.3656
  117OSM   H11G12345   2.079   6.455   9.430 -1.5650 -0.6873  1.2544
  117OSM   C12F12346   2.033   6.643   9.333 -0.2663  0.2381  0.3297
  117OSM   H12F12347   2.055   6.752   9.338 -0.9210  0.5321 -1.9978
  117OSM   H12G12348   1.922   6.639   9.336 -0.2680 -1.0898 -0.5714
  117OSM   C13F12349   2.087   6.587   9.199  0.1594 -0.0504  0.2178
  117OSM   H13F12350   2.084   6.476   9.197  0.9907 -0.1393 -3.6314
  117OSM   H13G12351   2.191   6.624   9.189 -0.1118  0.3127 -1.5668
  117OSM   C14F12352   2.007   6.643   9.080  0.3671  0.4882 -0.4169
  117OSM   H14F12353   1.964   6.740   9.112 -0.1082 -0.2493  1.2995
  117OSM   H14G12354   1.916   6.583   9.059 -0.5585  1.5968  0.3176
  117OSM   C15F12355   2.090   6.650   8.954  0.2328  0.5245  0.3782
  117OSM   H15F12356   2.149   6.556   8.953  1.5037  1.3165 -0.7930
  117OSM   H15G12357   2.150   6.743   8.963  0.7284  0.2602 -0.1804
  117OSM   C16F12358   2.012   6.669   8.831  0.0825 -0.2609  0.3659
  117OSM   H16F12359   2.075   6.696   8.744  2.0864 -3.9116  0.5066
  117OSM   H16G12360   1.939   6.753   8.839 -0.5783 -0.7376 -0.5616
  117OSM   C17F12361   1.927   6.545   8.787  0.1798 -0.7688  0.2965
  117OSM   H17F12362   1.844   6.556   8.860  1.8394 -0.7963  2.2936
  117OSM   H17G12363   1.982   6.448   8.791  0.1399 -0.8711 -1.1113
  117OSM   C18F12364   1.878   6.551   8.637  0.4532  0.3557  1.1436
  117OSM   H18F12365   1.823   6.460   8.601  3.4350 -1.5361  1.0240
  117OSM   H18G12366   1.968   6.542   8.572  0.1017  0.4038  0.6444
  117OSM   H18H12367   1.804   6.632   8.625  0.3689  0.2138  0.6726
  118OSM      N12368   0.396   6.372  11.395  0.3474  0.4675  1.0180
  118OSM    C1512369   0.525   6.322  11.428  0.3458  0.0911 -0.6303
  118OSM   H15A12370   0.569   6.356  11.521 -0.5682  1.0234 -0.5253
  118OSM   H15B12371   0.598   6.357  11.356  0.8945  0.7767  0.2450
  118OSM   H15C12372   0.531   6.214  11.431 -2.3185 -0.1800 -2.0404
  118OSM    C1412373   0.290   6.306  11.477  0.5558 -0.2626 -0.1474
  118OSM   H14A12374   0.304   6.311  11.583  0.7732  2.9817 -0.2308
  118OSM   H14B12375   0.284   6.200  11.455 -0.1635 -1.0832  3.4427
  118OSM   H14C12376   0.192   6.352  11.475  0.6956  0.2665  2.5298
  118OSM    C1312377   0.393   6.519  11.410  0.0922 -0.6345  0.3895
  118OSM   H13A12378   0.321   6.562  11.341  0.0088 -1.0065  0.2378
  118OSM   H13B12379   0.494   6.548  11.386 -0.3264 -0.0878 -0.8217
  118OSM   H13C12380   0.370   6.541  11.513 -0.3170  0.5790  0.0490
  118OSM    C1212381   0.366   6.346  11.249  0.9278  1.0085  0.1524
  118OSM   H12A12382   0.269   6.389  11.230  0.6347  0.9247  1.3946
  118OSM   H12B12383   0.341   6.241  11.240  0.4559  0.9756  1.6959
  118OSM    C1112384   0.459   6.407  11.150  0.0813 -0.3952  0.0501
  118OSM   H11A12385   0.466   6.518  11.154  2.8036 -0.4909 -0.3068
  118OSM   H11B12386   0.421   6.389  11.047 -0.8929 -0.5404  0.4188
  118OSM      P12387   0.632   6.218  11.095  0.4177 -0.1257  0.0333
  118OSM    O1312388   0.745   6.161  11.167 -0.4478  0.4317  0.0801
  118OSM    O1412389   0.511   6.132  11.078 -0.0349  0.1609 -0.4903
  118OSM    O1112390   0.671   6.256  10.954  0.1930  0.4473 -0.0115
  118OSM    O1212391   0.586   6.352  11.164 -0.5386  0.1113  0.2364
  118OSM    C1S12392   0.734   6.377  10.909  0.3764 -0.0606  0.1596
  118OSM    H1S12393   0.834   6.388  10.956  0.7325 -2.0187 -0.0449
  118OSM    H1T12394   0.670   6.468  10.915  0.1850 -0.0721 -1.3376
  118OSM     NF12395   0.863   6.461  10.716 -0.2836  0.3269 -0.0966
  118OSM    HNF12396   0.822   6.538  10.668 -2.9822 -1.8101 -1.4605
  118OSM    C2S12397   0.761   6.366  10.751  0.4835 -0.1865 -0.5457
  118OSM    H2S12398   0.808   6.271  10.716  0.2408 -0.5094 -0.0091
  118OSM    C3S12399   0.629   6.364  10.673  0.0917  0.4846 -0.0416
  118OSM    H3S12400   0.589   6.467  10.676  1.5855  1.0940  0.0000
  118OSM     O312401   0.529   6.278  10.728 -0.5081 -0.2497 -0.1785
  118OSM    HO312402   0.576   6.256  10.809  1.7539 -0.2301 -1.3851
  118OSM    C4S12403   0.653   6.321  10.535 -0.1220 -0.5120  0.2497
  118OSM    H4S12404   0.709   6.226  10.530  0.6052 -0.0985  0.4093
  118OSM    C5S12405   0.600   6.372  10.429 -0.7300 -0.1458  1.0112
  118OSM    H5S12406   0.526   6.454  10.431  2.1123  2.6212  0.7173
  118OSM    C6S12407   0.620   6.301  10.296  0.3028 -0.6531 -0.1260
  118OSM    H6S12408   0.661   6.199  10.308  2.7174  0.4094  1.5975
  118OSM    H6T12409   0.698   6.361  10.243 -0.4697 -1.4133 -2.2296
  118OSM    C7S12410   0.500   6.287  10.198  0.2269 -0.2166 -0.1112
  118OSM    H7S12411   0.454   6.388  10.197  1.6750  0.4691  0.3404
  118OSM    H7T12412   0.428   6.207  10.228 -1.6772  1.0185 -1.2074
  118OSM    C8S12413   0.547   6.271  10.051  0.4524  1.2158 -0.1563
  118OSM    H8S12414   0.609   6.179  10.046 -0.4747  0.5429  0.4104
  118OSM    H8T12415   0.614   6.358  10.033  0.1702  1.7174  1.1142
  118OSM    C9S12416   0.441   6.269   9.946  0.4681 -0.3890  0.3409
  118OSM    H9S12417   0.367   6.350   9.966  0.5939 -0.4637  1.1275
  118OSM    H9T12418   0.386   6.174   9.962  1.9845 -0.8555  3.4325
  118OSM   C10S12419   0.488   6.254   9.802  0.4926  0.1804 -0.2561
  118OSM   H10S12420   0.539   6.158   9.780  1.7799  1.2605 -2.3524
  118OSM   H10T12421   0.559   6.339   9.792 -0.4033  1.3555  2.5655
  118OSM   C11S12422   0.370   6.264   9.708  0.5872 -0.3573  1.3258
  118OSM   H11S12423   0.291   6.341   9.721 -0.9139 -1.3145 -1.1931
  118OSM   H11T12424   0.317   6.171   9.739  1.5445 -1.0982  0.7970
  118OSM   C12S12425   0.415   6.251   9.560 -0.1300  0.9122  0.0038
  118OSM   H12S12426   0.450   6.148   9.538 -3.6050  0.0011 -2.0542
  118OSM   H12T12427   0.487   6.329   9.527  1.3320 -0.0567  0.8075
  118OSM   C13S12428   0.294   6.255   9.468  0.0150  0.1490 -1.4030
  118OSM   H13S12429   0.248   6.356   9.470 -3.1754 -1.1966 -0.0186
  118OSM   H13T12430   0.215   6.190   9.511  1.5469 -0.0793  1.3341
  118OSM   C14S12431   0.332   6.228   9.325 -0.9849  0.6113 -0.0228
  118OSM   H14S12432   0.358   6.122   9.308  2.7024  1.2221  1.0521
  118OSM   H14T12433   0.431   6.277   9.313 -0.0917 -0.9994  0.5019
  118OSM   C15S12434   0.221   6.262   9.222  0.2667 -0.1429 -0.7558
  118OSM   H15S12435   0.210   6.373   9.214  2.3627  0.3977  2.0859
  118OSM   H15T12436   0.124   6.225   9.260 -0.4662  1.8271 -0.5909
  118OSM   C16S12437   0.250   6.193   9.089 -0.3496 -0.4643 -0.2068
  118OSM   H16S12438   0.211   6.089   9.091 -0.1180 -0.5458  0.7720
  118OSM   H16T12439   0.357   6.186   9.062 -0.2321  2.4798 -0.7563
  118OSM   C17S12440   0.178   6.274   8.974  0.3052  0.1185 -0.7700
  118OSM   H17S12441   0.224   6.376   8.979 -0.1434  0.3342 -0.9867
  118OSM   H17T12442   0.068   6.276   8.991  0.4774  0.8495  0.4423
  118OSM   C18S12443   0.208   6.202   8.840  0.2253 -0.0719  0.7404
  118OSM   H18S12444   0.305   6.230   8.794 -0.5332 -1.5121 -1.8884
  118OSM   H18T12445   0.129   6.222   8.764  0.2986  2.4538  1.2418
  118OSM   H18U12446   0.224   6.093   8.850  1.7388  0.0779  0.1685
  118OSM    C1F12447   0.994   6.466  10.750 -0.2925  0.5049  0.3660
  118OSM     OF12448   1.051   6.365  10.794  0.4044  0.1173  0.8116
  118OSM    C2F12449   1.065   6.597  10.737 -0.1837 -0.5862 -0.5702
  118OSM    H2F12450   1.085   6.633  10.840  0.1948  1.2434 -1.2403
  118OSM    H2G12451   0.998   6.669  10.686 -2.5425 -0.0036  2.9753
  118OSM    C3F12452   1.204   6.576  10.667 -0.5654 -0.2150  0.2493
  118OSM    H3F12453   1.255   6.496  10.725 -1.3440 -0.0871  1.1274
  118OSM    H3G12454   1.271   6.665  10.669 -2.0661  0.9378  1.3474
  118OSM    C4F12455   1.194   6.535  10.516 -0.3281  0.3000  0.1907
  118OSM    H4F12456   1.116   6.596  10.465  0.2551  0.2900 -0.7276
  118OSM    H4G12457   1.160   6.429  10.519  2.0035 -0.5648 -1.1733
  118OSM    C5F12458   1.322   6.549  10.443  0.0046 -0.2759  0.6378
  118OSM    H5F12459   1.402   6.489  10.492  2.7635 -0.2902 -3.3573
  118OSM    H5G12460   1.362   6.649  10.470  0.5381  0.1272 -1.4192
  118OSM    C6F12461   1.329   6.539  10.290 -0.3318 -0.7224  0.3805
  118OSM    H6F12462   1.433   6.569  10.268  0.6093 -3.8000  0.1352
  118OSM    H6G12463   1.254   6.609  10.246  0.2217  0.0568  0.6702
  118OSM    C7F12464   1.318   6.397  10.230 -0.4850 -0.1444 -0.1650
  118OSM    H7F12465   1.221   6.347  10.252 -1.2119  1.8133  1.3731
  118OSM    H7G12466   1.379   6.330  10.294 -1.6861 -0.0694  1.0887
  118OSM    C8F12467   1.350   6.396  10.081 -0.2459  0.5305  0.1227
  118OSM    H8F12468   1.358   6.289  10.052  0.6785  0.9925 -1.4571
  118OSM    H8G12469   1.452   6.438  10.067  0.3108 -1.5330 -3.0072
  118OSM    C9F12470   1.254   6.460   9.987 -0.1911  0.0439 -0.5022
  118OSM    H9F12471   1.154   6.476  10.031  1.2946  1.9354  2.4958
  118OSM   C10F12472   1.273   6.486   9.860 -0.0177  0.1269 -0.2888
  118OSM   H10F12473   1.190   6.532   9.804 -0.8503 -0.1319  0.7077
  118OSM   C11F12474   1.396   6.464   9.775 -0.3352 -0.2264  0.4062
  118OSM   H11F12475   1.485   6.452   9.839  0.1109  1.1987  0.0918
  118OSM   H11G12476   1.411   6.565   9.731 -0.2574  0.4232  1.8672
  118OSM   C12F12477   1.384   6.347   9.672  0.6323 -0.3335 -0.1079
  118OSM   H12F12478   1.368   6.245   9.714 -1.3230 -0.6962 -1.5665
  118OSM   H12G12479   1.486   6.347   9.628 -0.1487  2.7654 -2.3005
  118OSM   C13F12480   1.283   6.381   9.558 -0.1605  0.1398 -0.7264
  118OSM   H13F12481   1.303   6.483   9.519 -0.0829  1.3559  2.2735
  118OSM   H13G12482   1.180   6.386   9.600  0.9100  1.4566  1.9441
  118OSM   C14F12483   1.276   6.273   9.450  0.4250 -0.3567 -0.0374
  118OSM   H14F12484   1.273   6.176   9.504  1.9241  1.5971  4.0132
  118OSM   H14G12485   1.363   6.268   9.382 -1.2550 -4.5440 -2.2367
  118OSM   C15F12486   1.153   6.287   9.359  0.0265 -0.0705 -0.3166
  118OSM   H15F12487   1.154   6.377   9.293 -3.4140  0.7968  0.5865
  118OSM   H15G12488   1.062   6.311   9.419 -1.3824 -0.4818 -2.1687
  118OSM   C16F12489   1.124   6.156   9.279  0.7774 -0.3654 -0.2436
  118OSM   H16F12490   1.106   6.088   9.365  1.5501  0.6629  0.7730
  118OSM   H16G12491   1.224   6.126   9.239  1.3108  0.2950  0.5726
  118OSM   C17F12492   1.014   6.163   9.167  0.5311  0.1771 -0.1328
  118OSM   H17F12493   0.988   6.269   9.146 -1.2673 -0.1927  0.0099
  118OSM   H17G12494   0.919   6.119   9.206 -0.5618  2.2747 -0.2440
  118OSM   C18F12495   1.053   6.084   9.038  0.0744 -0.4343  0.5454
  118OSM   H18F12496   1.145   6.131   8.996 -1.3776  0.0816 -2.3029
  118OSM   H18G12497   0.984   6.098   8.952  1.4955  0.2896 -0.5216
  118OSM   H18H12498   1.068   5.979   9.072  0.1623 -0.3993  0.6165
  119OSM      N12499   2.862   0.392  11.206 -0.5340  0.5187 -0.2313
  119OSM    C1512500   2.993   0.443  11.251  0.1219 -0.3590  0.8769
  119OSM   H15A12501   3.075   0.376  11.229  0.7341  0.9346 -1.1227
  119OSM   H15B12502   3.000   0.455  11.358  3.1565  0.3821  0.6772
  119OSM   H15C12503   3.006   0.540  11.204  1.4757 -1.8488 -2.1091
  119OSM    C1412504   2.838   0.252  11.256 -0.1196  0.2185 -0.1440
  119OSM   H14A12505   2.877   0.227  11.353 -1.3121 -3.6933 -0.4858
  119OSM   H14B12506   2.888   0.186  11.186 -1.5617 -0.1738 -0.8607
  119OSM   H14C12507   2.731   0.235  11.252  0.1230 -1.2493 -1.6178
  119OSM    C1312508   2.761   0.480  11.262  0.0973  0.4353  0.6383
  119OSM   H13A12509   2.746   0.469  11.369 -0.8426 -0.7894  0.4043
  119OSM   H13B12510   2.664   0.456  11.221  1.8517 -0.6233 -3.3511
  119OSM   H13C12511   2.787   0.579  11.228 -0.5117 -0.2468 -1.9982
  119OSM    C1212512   2.860   0.392  11.054  0.1599 -0.3516  0.1701
  119OSM   H12A12513   2.769   0.345  11.021  0.4395 -1.6742  1.2042
  119OSM   H12B12514   2.939   0.325  11.023 -0.2381 -0.8212  0.1775
  119OSM    C1112515   2.882   0.520  10.968  0.2523 -0.5455  1.0185
  119OSM   H11A12516   2.884   0.493  10.860 -1.8174 -0.9633  1.0510
  119OSM   H11B12517   2.981   0.565  10.992  0.7358 -1.6686  1.1961
  119OSM      P12518   2.642   0.618  10.931  0.1790 -0.3794  0.3068
  119OSM    O1312519   2.596   0.485  10.888  0.2443 -0.0379 -0.2578
  119OSM    O1412520   2.554   0.691  11.026 -0.1069 -0.5568  0.4538
  119OSM    O1112521   2.661   0.704  10.798  0.6581  0.8020  0.5030
  119OSM    O1212522   2.785   0.619  10.997 -0.9402  0.0719  0.6157
  119OSM    C1S12523   2.768   0.689  10.707 -0.4389 -0.6910  0.6189
  119OSM    H1S12524   2.796   0.584  10.684 -2.9983 -1.3318  0.1540
  119OSM    H1T12525   2.859   0.740  10.744 -0.3870  0.9660 -1.5623
  119OSM     NF12526   2.834   0.717  10.472 -0.0617 -0.1364  0.2413
  119OSM    HNF12527   2.899   0.788  10.446  0.8183 -1.4357 -1.2550
  119OSM    C2S12528   2.725   0.740  10.559 -0.0982  0.1703  0.7858
  119OSM    H2S12529   2.640   0.683  10.517 -0.1029  1.3997 -0.9501
  119OSM    C3S12530   2.673   0.888  10.561 -0.4499  0.4442  0.2369
  119OSM    H3S12531   2.754   0.952  10.602  0.5259 -1.8296  2.0912
  119OSM     O312532   2.570   0.907  10.659 -0.4048  0.0100 -0.0567
  119OSM    HO312533   2.584   0.821  10.701  0.8915  0.3267  0.1886
  119OSM    C4S12534   2.634   0.933  10.422 -0.2668  0.0645 -0.1963
  119OSM    H4S12535   2.583   0.852  10.369 -0.1839 -0.0309 -0.1300
  119OSM    C5S12536   2.631   1.056  10.380  0.5034  0.1973  0.4022
  119OSM    H5S12537   2.667   1.139  10.443 -1.8132  1.4033  0.2570
  119OSM    C6S12538   2.575   1.090  10.252  0.3321 -0.2498 -0.4125
  119OSM    H6S12539   2.477   1.136  10.276 -0.5221 -1.6865 -1.0437
  119OSM    H6T12540   2.549   1.003  10.189 -0.0971 -0.1267 -0.4073
  119OSM    C7S12541   2.652   1.193  10.163  0.0452 -0.4663 -0.4827
  119OSM    H7S12542   2.750   1.147  10.143 -1.0153 -2.0135 -2.4330
  119OSM    H7T12543   2.642   1.293  10.211  0.5570 -0.3864 -0.5438
  119OSM    C8S12544   2.594   1.217  10.013 -0.6965  0.6820 -1.0263
  119OSM    H8S12545   2.635   1.315   9.978 -1.3429  1.6541  0.8140
  119OSM    H8T12546   2.488   1.245  10.029 -0.6110  2.0463 -2.5770
  119OSM    C9S12547   2.621   1.108   9.918  0.0291  0.6562  0.2472
  119OSM    H9S12548   2.553   1.022   9.936 -0.3248  1.3266  2.4020
  119OSM    H9T12549   2.724   1.071   9.938 -0.6087 -0.7427  1.0764
  119OSM   C10S12550   2.621   1.148   9.770 -0.3364  0.5275  0.0816
  119OSM   H10S12551   2.699   1.227   9.760  1.2135 -0.6884  1.7452
  119OSM   H10T12552   2.520   1.184   9.741 -0.7837 -0.8046 -0.0678
  119OSM   C11S12553   2.660   1.039   9.674 -0.2254  0.0560  0.8632
  119OSM   H11S12554   2.589   0.954   9.684  0.2576 -0.2395  2.0378
  119OSM   H11T12555   2.761   0.996   9.694 -0.0820  1.5880  4.0502
  119OSM   C12S12556   2.653   1.087   9.527 -0.0708 -0.3722  0.0105
  119OSM   H12S12557   2.553   1.133   9.507 -0.9330 -2.1206  0.0508
  119OSM   H12T12558   2.682   1.007   9.455  2.7689  0.0060  0.6278
  119OSM   C13S12559   2.763   1.196   9.503 -0.7959 -0.3232  0.8407
  119OSM   H13S12560   2.858   1.154   9.543 -0.7516 -1.8517 -0.7250
  119OSM   H13T12561   2.726   1.285   9.557 -0.3127 -0.3186  1.1667
  119OSM   C14S12562   2.786   1.221   9.357 -0.2056 -0.4473  0.0318
  119OSM   H14S12563   2.693   1.276   9.328 -0.3396 -0.4705  0.4223
  119OSM   H14T12564   2.818   1.132   9.299 -0.3479 -1.0512  0.8684
  119OSM   C15S12565   2.895   1.325   9.332  0.0286 -0.5008  0.1962
  119OSM   H15S12566   2.979   1.295   9.399  0.9026 -2.3056 -1.6156
  119OSM   H15T12567   2.856   1.423   9.368  0.2203 -0.2120 -0.3777
  119OSM   C16S12568   2.941   1.344   9.195 -0.1808 -0.1781 -0.5212
  119OSM   H16S12569   2.989   1.444   9.188 -0.5561  0.2532  2.0608
  119OSM   H16T12570   2.858   1.339   9.120 -0.7205 -0.3470  0.0790
  119OSM   C17S12571   3.030   1.236   9.139 -0.5346  0.2057 -0.6623
  119OSM   H17S12572   2.993   1.134   9.162 -1.5603  1.2789  3.3458
  119OSM   H17T12573   3.122   1.250   9.200 -1.9569  0.5159  1.5174
  119OSM   C18S12574   3.071   1.277   9.002 -0.0761  0.4462 -0.6099
  119OSM   H18S12575   3.162   1.217   8.978  0.5155  0.2730  1.8226
  119OSM   H18T12576   3.092   1.384   8.985  1.0795  0.2803 -0.3103
  119OSM   H18U12577   3.001   1.250   8.920  0.6787  0.0693 -1.1406
  119OSM    C1F12578   2.890   0.606  10.428 -0.1575 -0.4341  0.6241
  119OSM     OF12579   3.009   0.617  10.394 -0.3829  0.2459 -0.3176
  119OSM    C2F12580   2.822   0.477  10.412  0.1114  0.6891  0.0401
  119OSM    H2F12581   2.712   0.486  10.417  0.1874  1.5220  0.3925
  119OSM    H2G12582   2.858   0.414  10.496 -1.0547  0.9064  0.7181
  119OSM    C3F12583   2.870   0.394  10.295 -0.0174  0.0860 -0.1459
  119OSM    H3F12584   2.980   0.385  10.314 -0.1823  0.5946  1.1971
  119OSM    H3G12585   2.854   0.438  10.195  0.7999 -1.4529 -0.9986
  119OSM    C4F12586   2.810   0.252  10.291 -0.2141 -0.4341  0.2201
  119OSM    H4F12587   2.701   0.271  10.280  0.4870  4.2118 -0.7244
  119OSM    H4G12588   2.842   0.212  10.390  0.0813 -1.4327 -0.2734
  119OSM    C5F12589   2.870   0.165  10.174 -0.2097  0.1048  0.5940
  119OSM    H5F12590   2.822   0.065  10.185 -0.4895  0.3867  2.1281
  119OSM    H5G12591   2.980   0.158  10.182 -0.0576  1.4381 -0.0860
  119OSM    C6F12592   2.831   0.221  10.035 -0.1812 -0.2464 -0.0431
  119OSM    H6F12593   2.888   0.315  10.018  0.5754 -0.2828  2.0265
  119OSM    H6G12594   2.729   0.263  10.051 -0.0020  0.2643 -0.2152
  119OSM    C7F12595   2.836   0.130   9.911  0.4147  0.2861  0.7808
  119OSM    H7F12596   2.775   0.038   9.922  1.2396 -0.3332  0.2589
  119OSM    H7G12597   2.943   0.100   9.906  0.4129  0.0974  1.6587
  119OSM    C8F12598   2.790   0.203   9.787  0.1559 -0.0443  0.0366
  119OSM    H8F12599   2.850   0.165   9.701  1.5578  1.5918  0.2376
  119OSM    H8G12600   2.820   0.310   9.788  1.2262 -0.3314 -0.2398
  119OSM    C9F12601   2.647   0.203   9.770  0.1063  0.0119  0.2420
  119OSM    H9F12602   2.599   0.217   9.868 -0.0736 -1.6162  0.4137
  119OSM   C10F12603   2.570   0.193   9.665 -0.2853  0.4613 -0.5076
  119OSM   H10F12604   2.461   0.201   9.681 -0.0452 -0.1063  1.7190
  119OSM   C11F12605   2.615   0.180   9.526  0.0563  0.9220  0.3208
  119OSM   H11F12606   2.716   0.223   9.513 -0.0970  0.8186 -1.3860
  119OSM   H11G12607   2.548   0.254   9.476  0.3695 -0.3618 -2.1127
  119OSM   C12F12608   2.584   0.045   9.453  0.5476  0.8321  0.0772
  119OSM   H12F12609   2.476   0.025   9.467  0.5599  0.0269 -0.9301
  119OSM   H12G12610   2.633  -0.034   9.513  0.3271  0.4335 -0.2677
  119OSM   C13F12611   2.622   0.050   9.305  0.1800  0.1346  0.9503
  119OSM   H13F12612   2.594  -0.048   9.260 -2.1738  1.8247 -1.6257
  119OSM   H13G12613   2.731   0.058   9.284 -0.1352  1.2000 -0.3990
  119OSM   C14F12614   2.559   0.159   9.214  0.1356 -0.0842 -0.1688
  119OSM   H14F12615   2.613   0.250   9.247 -0.3350  0.4236 -0.7691
  119OSM   H14G12616   2.452   0.177   9.234 -0.1212 -0.8367 -0.7771
  119OSM   C15F12617   2.582   0.133   9.066 -0.2735 -0.2884 -0.4811
  119OSM   H15F12618   2.518   0.052   9.022 -1.4198 -0.2517  1.0556
  119OSM   H15G12619   2.688   0.113   9.040 -0.1030  0.0803 -0.0706
  119OSM   C16F12620   2.541   0.259   8.985  0.1057 -0.6112  0.0389
  119OSM   H16F12621   2.586   0.342   9.042  0.3896 -1.0456  0.4510
  119OSM   H16G12622   2.430   0.261   8.990  0.0661  2.6576 -0.2570
  119OSM   C17F12623   2.600   0.265   8.838  0.7523 -0.6460 -1.0283
  119OSM   H17F12624   2.708   0.239   8.831  0.8174 -0.3444 -1.1958
  119OSM   H17G12625   2.596   0.369   8.799  2.3156  1.5509  3.8992
  119OSM   C18F12626   2.538   0.164   8.740 -0.1919 -0.4296  0.2858
  119OSM   H18F12627   2.544   0.059   8.774 -2.1808 -0.6222  0.1787
  119OSM   H18G12628   2.594   0.172   8.645  0.4350  0.4026  0.7046
  119OSM   H18H12629   2.430   0.183   8.720  0.0447 -1.2972 -2.0742
  120OSM      N12630   1.309   2.449  10.951  0.0031  0.0729 -0.1946
  120OSM    C1512631   1.364   2.344  11.046  0.2396  0.0583  0.1467
  120OSM   H15A12632   1.414   2.265  10.991  2.2860  2.7649 -2.2235
  120OSM   H15B12633   1.285   2.292  11.097 -0.5658 -0.4106 -1.5003
  120OSM   H15C12634   1.444   2.387  11.105 -0.3759  0.4759  0.6940
  120OSM    C1412635   1.232   2.381  10.836  0.2938  0.2837 -0.5488
  120OSM   H14A12636   1.190   2.463  10.780  1.3959  1.5639  0.4343
  120OSM   H14B12637   1.163   2.303  10.865 -0.5506  1.0200 -0.5281
  120OSM   H14C12638   1.302   2.330  10.771  0.2432 -1.7068  0.8817
  120OSM    C1312639   1.219   2.532  11.036 -0.2990  0.5932  0.3607
  120OSM   H13A12640   1.161   2.602  10.978 -1.1869  0.3641  0.9581
  120OSM   H13B12641   1.265   2.595  11.110 -1.5356  0.4950  1.2270
  120OSM   H13C12642   1.146   2.469  11.084  0.2024 -0.5373 -0.3053
  120OSM    C1212643   1.420   2.526  10.889  0.4626  0.1223  0.0630
  120OSM   H12A12644   1.470   2.456  10.824 -0.2752 -0.5314  0.1925
  120OSM   H12B12645   1.486   2.558  10.968  1.8675 -0.6267 -0.7629
  120OSM    C1112646   1.395   2.655  10.806 -0.0765 -0.6515 -0.1556
  120OSM   H11A12647   1.327   2.627  10.723 -1.2330  0.5929  0.3359
  120OSM   H11B12648   1.481   2.688  10.743 -1.1299 -1.2608 -1.9924
  120OSM      P12649   1.309   2.895  10.840 -0.4600 -0.1760  0.0530
  120OSM    O1312650   1.252   2.978  10.953  0.7275  0.7685 -0.0419
  120OSM    O1412651   1.424   2.960  10.777  0.4774 -0.0243 -0.5834
  120OSM    O1112652   1.201   2.853  10.738 -0.1665 -0.2551 -0.1446
  120OSM    O1212653   1.355   2.758  10.897  0.2270  0.3088 -0.4829
  120OSM    C1S12654   1.161   2.960  10.650  0.3155 -1.4273 -0.4493
  120OSM    H1S12655   1.246   3.011  10.601 -0.9026 -0.3993 -1.5708
  120OSM    H1T12656   1.103   3.035  10.709  2.0115 -2.0292  2.1666
  120OSM     NF12657   1.079   3.018  10.412 -0.1763  0.6124 -0.3973
  120OSM    HNF12658   0.990   3.064  10.408  0.0813  1.1051 -0.5089
  120OSM    C2S12659   1.088   2.911  10.513 -0.1541  0.9490 -0.3595
  120OSM    H2S12660   1.163   2.838  10.476 -0.3981 -0.3480  1.5388
  120OSM    C3S12661   0.959   2.838  10.546  0.9709 -0.5161 -0.4725
  120OSM    H3S12662   0.889   2.900  10.607  1.2497 -0.5191 -0.1477
  120OSM     O312663   0.961   2.731  10.642 -1.0716  0.0921 -0.6529
  120OSM    HO312664   1.054   2.723  10.666 -0.6781  0.5511 -1.9277
  120OSM    C4S12665   0.890   2.780  10.427 -0.5307 -0.4046  0.2369
  120OSM    H4S12666   0.954   2.704  10.379 -2.5441 -0.8208 -1.9397
  120OSM    C5S12667   0.769   2.799  10.377 -0.1841  0.7059 -0.2269
  120OSM    H5S12668   0.693   2.855  10.433 -1.4509 -2.7098  1.8243
  120OSM    C6S12669   0.708   2.732  10.257  0.0200  0.0694  0.7071
  120OSM    H6S12670   0.658   2.803  10.188 -2.1202 -0.5882  1.4932
  120OSM    H6T12671   0.635   2.652  10.282 -0.2091  0.2298  0.5526
  120OSM    C7S12672   0.807   2.665  10.159  0.6472 -0.4528 -0.7579
  120OSM    H7S12673   0.863   2.577  10.198  1.7032 -0.1310 -1.5001
  120OSM    H7T12674   0.888   2.737  10.138  0.3405  0.4534  0.9942
  120OSM    C8S12675   0.746   2.628  10.023  0.0640 -0.2810 -0.2818
  120OSM    H8S12676   0.681   2.710   9.986 -0.0547  0.3629  1.2444
  120OSM    H8T12677   0.674   2.547  10.048  0.9173 -1.0197 -0.1473
  120OSM    C9S12678   0.848   2.584   9.925  0.4767  0.1568 -0.0267
  120OSM    H9S12679   0.922   2.521   9.979  0.4096  1.6988  1.9670
  120OSM    H9T12680   0.903   2.669   9.879 -1.7445  0.4642 -2.3493
  120OSM   C10S12681   0.764   2.524   9.814 -0.1199 -0.1871  0.5860
  120OSM   H10S12682   0.710   2.609   9.768  0.5479 -0.6176 -1.0873
  120OSM   H10T12683   0.708   2.436   9.852  0.0860 -0.8961 -0.6855
  120OSM   C11S12684   0.845   2.456   9.699 -0.2772  1.0499  0.0408
  120OSM   H11S12685   0.934   2.404   9.742  0.7102  2.4048 -0.3009
  120OSM   H11T12686   0.883   2.536   9.632  4.7637 -2.8145 -2.3612
  120OSM   C12S12687   0.760   2.369   9.606 -0.0735 -0.0069 -0.8315
  120OSM   H12S12688   0.717   2.290   9.673  0.5383 -0.3831 -0.8777
  120OSM   H12T12689   0.828   2.323   9.532  1.3133  2.6972 -1.3584
  120OSM   C13S12690   0.648   2.444   9.527  0.2779  0.0123 -0.1512
  120OSM   H13S12691   0.591   2.513   9.594  0.1031  1.1743 -1.4429
  120OSM   H13T12692   0.575   2.376   9.479  1.5226  1.0317 -3.8016
  120OSM   C14S12693   0.700   2.542   9.416  0.1116  0.5373  0.2975
  120OSM   H14S12694   0.763   2.479   9.350 -0.4341  0.3031 -0.0090
  120OSM   H14T12695   0.771   2.616   9.459  0.8509 -0.9851  1.8010
  120OSM   C15S12696   0.582   2.611   9.346  0.8743  0.6876 -0.9321
  120OSM   H15S12697   0.536   2.692   9.406  1.5786  0.1529  0.3798
  120OSM   H15T12698   0.503   2.534   9.336  0.3295  0.6361  2.6811
  120OSM   C16S12699   0.619   2.679   9.212 -0.1806  0.1580 -0.0932
  120OSM   H16S12700   0.528   2.729   9.173  0.2858  1.0116 -0.1038
  120OSM   H16T12701   0.649   2.609   9.131  1.6349 -0.4353  1.0173
  120OSM   C17S12702   0.717   2.790   9.233  0.2336  0.1114 -0.0908
  120OSM   H17S12703   0.814   2.739   9.254  1.2358  1.2272 -1.7666
  120OSM   H17T12704   0.684   2.850   9.321  0.4402  1.1403 -0.7046
  120OSM   C18S12705   0.752   2.877   9.117  0.3100 -0.0837 -0.3801
  120OSM   H18S12706   0.676   2.952   9.086 -1.0860 -1.8114 -1.3698
  120OSM   H18T12707   0.764   2.818   9.023  1.3178 -0.4824 -0.0152
  120OSM   H18U12708   0.839   2.942   9.142 -0.1045  1.2109 -2.1096
  120OSM    C1F12709   1.176   3.086  10.358  0.1485  0.2841  0.2625
  120OSM     OF12710   1.287   3.036  10.334 -0.3895  0.7117  0.2181
  120OSM    C2F12711   1.137   3.233  10.339  0.1323 -0.1514 -0.1418
  120OSM    H2F12712   1.148   3.266  10.444 -0.7109 -1.5275  0.4040
  120OSM    H2G12713   1.030   3.237  10.308 -0.4689  2.8877  1.8681
  120OSM    C3F12714   1.231   3.308  10.243 -0.1258 -0.3970 -0.1025
  120OSM    H3F12715   1.337   3.295  10.272  0.4965  1.9644 -1.0694
  120OSM    H3G12716   1.207   3.414  10.266  0.1336 -0.3066 -0.2526
  120OSM    C4F12717   1.205   3.275  10.098 -0.2481  0.3276  0.3950
  120OSM    H4F12718   1.098   3.261  10.073  0.6449 -0.4388 -3.9553
  120OSM    H4G12719   1.246   3.172  10.081 -2.0275 -0.1120 -1.7904
  120OSM    C5F12720   1.271   3.359   9.981  0.2096 -0.7081 -0.9568
  120OSM    H5F12721   1.382   3.363   9.986  0.1583  0.9112  3.1179
  120OSM    H5G12722   1.232   3.463   9.995  1.1045 -0.6589  1.5893
  120OSM    C6F12723   1.222   3.303   9.847  0.4842 -0.2768 -0.7196
  120OSM    H6F12724   1.114   3.325   9.830 -0.2033 -0.6295  2.5709
  120OSM    H6G12725   1.231   3.193   9.865  1.4743 -0.0842  0.0681
  120OSM    C7F12726   1.305   3.353   9.734  0.3175 -0.1108 -0.5056
  120OSM    H7F12727   1.410   3.326   9.761 -0.5435 -1.9848  1.2512
  120OSM    H7G12728   1.292   3.463   9.737 -1.0217 -0.2707  2.6053
  120OSM    C8F12729   1.280   3.276   9.604 -1.0376  0.8795  1.0840
  120OSM    H8F12730   1.308   3.169   9.613 -0.8580  0.5293 -2.1804
  120OSM    H8G12731   1.354   3.311   9.529  0.3635 -0.9166  1.5571
  120OSM    C9F12732   1.145   3.291   9.544  0.7179 -0.2913  0.3164
  120OSM    H9F12733   1.065   3.296   9.619  0.1129  0.4359 -0.3459
  120OSM   C10F12734   1.113   3.329   9.414 -0.4422 -0.1817 -1.0043
  120OSM   H10F12735   1.006   3.345   9.395 -0.8332 -0.1997  0.8953
  120OSM   C11F12736   1.209   3.352   9.298 -0.9223  0.6070 -0.3951
  120OSM   H11F12737   1.311   3.376   9.334 -0.9435  4.9263 -2.5928
  120OSM   H11G12738   1.172   3.436   9.236 -2.6521 -0.0727 -0.3434
  120OSM   C12F12739   1.221   3.243   9.187 -0.3991 -0.4735  0.3603
  120OSM   H12F12740   1.121   3.209   9.153  1.1025 -3.9374 -1.0033
  120OSM   H12G12741   1.270   3.154   9.231 -0.0539  0.2433  1.4896
  120OSM   C13F12742   1.286   3.303   9.057  0.0838 -0.0463 -0.9537
  120OSM   H13F12743   1.389   3.336   9.085 -0.7106  2.5110 -0.8103
  120OSM   H13G12744   1.222   3.387   9.026 -0.5932  0.4393  1.5226
  120OSM   C14F12745   1.303   3.190   8.946  0.2096 -0.6391  0.6217
  120OSM   H14F12746   1.203   3.145   8.928  0.5889 -0.7709 -1.4257
  120OSM   H14G12747   1.377   3.118   8.986  2.6354  0.8445 -0.9372
  120OSM   C15F12748   1.348   3.248   8.809  0.3515 -0.5941  0.3421
  120OSM   H15F12749   1.442   3.303   8.832  0.2143 -0.1970 -0.0444
  120OSM   H15G12750   1.278   3.329   8.779 -0.4255 -1.0013  1.0215
  120OSM   C16F12751   1.369   3.136   8.699 -0.7606 -0.1048  0.5452
  120OSM   H16F12752   1.281   3.069   8.709 -0.9348 -0.0494 -0.4504
  120OSM   H16G12753   1.460   3.078   8.724 -0.7998  0.7260  2.8360
  120OSM   C17F12754   1.387   3.178   8.549  0.0614  0.5540 -0.3664
  120OSM   H17F12755   1.469   3.251   8.534 -0.0694  1.0197  1.0501
  120OSM   H17G12756   1.296   3.229   8.511 -0.0605 -0.4596 -1.5254
  120OSM   C18F12757   1.403   3.055   8.453 -0.1473 -0.1442 -0.5371
  120OSM   H18F12758   1.506   3.014   8.457  0.0117  0.2767 -0.2931
  120OSM   H18G12759   1.382   3.092   8.350 -2.0250  0.3373 -0.0205
  120OSM   H18H12760   1.325   2.978   8.469 -0.2673  0.0585 -0.1222
  121OSM      N12761   6.605   6.736  11.072  0.3289  0.4344  0.3738
  121OSM    C1512762   6.702   6.775  10.965  0.2363 -0.1158  0.0374
  121OSM   H15A12763   6.679   6.737  10.867  1.2499  0.4924 -0.4445
  121OSM   H15B12764   6.804   6.754  10.993  0.4302  1.2463  0.4397
  121OSM   H15C12765   6.686   6.881  10.952 -0.6653 -0.2277  0.1636
  121OSM    C1412766   6.663   6.779  11.202  0.1141  0.8757  0.6573
  121OSM   H14A12767   6.594   6.780  11.285 -0.5366  0.7330  0.1236
  121OSM   H14B12768   6.695   6.882  11.199  0.7398  0.6774  0.1650
  121OSM   H14C12769   6.744   6.719  11.242 -0.0325  1.0195  1.1771
  121OSM    C1312770   6.478   6.805  11.052 -0.5669  0.3503 -0.2626
  121OSM   H13A12771   6.401   6.793  11.127  0.5003  0.7547  0.9380
  121OSM   H13B12772   6.429   6.772  10.961 -1.2554 -2.0705  0.9048
  121OSM   H13C12773   6.490   6.913  11.050  1.4235  0.2218  1.3655
  121OSM    C1212774   6.590   6.578  11.087 -0.0532  0.1685 -0.4950
  121OSM   H12A12775   6.687   6.534  11.102  0.3486  0.8374 -1.0538
  121OSM   H12B12776   6.579   6.542  10.986 -1.9284 -0.4938 -0.0995
  121OSM    C1112777   6.475   6.523  11.172  0.0115 -0.0521 -0.1431
  121OSM   H11A12778   6.484   6.567  11.274 -1.4044  0.2603 -0.1374
  121OSM   H11B12779   6.495   6.414  11.183  0.5158  0.1234  0.8122
  121OSM      P12780   6.314   6.457  10.994 -0.1706  0.1638 -0.2319
  121OSM    O1312781   6.402   6.470  10.874 -0.3004  0.2075 -0.3058
  121OSM    O1412782   6.289   6.315  11.039 -0.2021 -0.5383 -0.1446
  121OSM    O1112783   6.177   6.521  10.965 -0.0143  0.4069  0.1818
  121OSM    O1212784   6.350   6.547  11.117  0.4546  0.4285 -0.0743
  121OSM    C1S12785   6.156   6.635  10.880 -0.2045 -0.0606 -0.0481
  121OSM    H1S12786   6.246   6.700  10.883 -0.3416  0.0833  1.1495
  121OSM    H1T12787   6.066   6.692  10.910  1.6223  2.5202  0.8269
  121OSM     NF12788   6.107   6.715  10.643  0.7830  0.3416 -0.4394
  121OSM    HNF12789   6.014   6.733  10.612 -0.1200  0.7961  2.2427
  121OSM    C2S12790   6.133   6.601  10.728  0.7589  0.0160 -0.5775
  121OSM    H2S12791   6.229   6.555  10.693  1.2039  0.8414 -0.4741
  121OSM    C3S12792   6.016   6.501  10.700  0.2717  0.1311 -0.1536
  121OSM    H3S12793   5.924   6.562  10.709  1.0405  1.3640 -0.4658
  121OSM     O312794   6.009   6.387  10.783  0.2010 -0.0134 -0.5177
  121OSM    HO312795   6.085   6.411  10.837  0.4449 -1.2079 -0.3019
  121OSM    C4S12796   6.016   6.453  10.558 -0.4531  0.7562  0.8748
  121OSM    H4S12797   6.104   6.391  10.536  1.6115  2.9175  2.4191
  121OSM    C5S12798   5.932   6.475  10.460  0.4462 -0.4389  0.7287
  121OSM    H5S12799   5.837   6.531  10.466 -0.9924 -2.7794  1.7470
  121OSM    C6S12800   5.961   6.442  10.314 -0.8097 -0.4429  0.0222
  121OSM    H6S12801   5.907   6.354  10.272 -2.0382 -0.3961  1.4304
  121OSM    H6T12802   6.068   6.416  10.299 -0.9219 -1.0290  0.1788
  121OSM    C7S12803   5.936   6.571  10.233  0.1927  0.4791 -0.0007
  121OSM    H7S12804   6.005   6.646  10.278 -0.8480  0.5308  1.5788
  121OSM    H7T12805   5.834   6.611  10.252 -0.0914 -0.2618  0.0616
  121OSM    C8S12806   5.970   6.570  10.088 -0.1497 -0.0260  0.4977
  121OSM    H8S12807   6.077   6.545  10.068 -0.3331  0.2729 -0.9835
  121OSM    H8T12808   5.978   6.675  10.052  1.6149 -0.1492  0.4014
  121OSM    C9S12809   5.888   6.480   9.999  0.2040 -0.4551 -0.3586
  121OSM    H9S12810   5.781   6.494  10.023  0.5579  0.8093  0.5747
  121OSM    H9T12811   5.921   6.375  10.016  1.8886  0.1225  0.1776
  121OSM   C10S12812   5.929   6.508   9.847  0.7490  0.0053  0.2769
  121OSM   H10S12813   6.039   6.492   9.850  0.8217  0.5544  1.2369
  121OSM   H10T12814   5.895   6.613   9.829 -0.6951 -0.3584  0.7964
  121OSM   C11S12815   5.850   6.411   9.759  0.4319  0.1266 -0.0451
  121OSM   H11S12816   5.745   6.448   9.767  0.1911 -0.0490 -1.9526
  121OSM   H11T12817   5.868   6.307   9.791  1.1719 -0.4752 -2.2292
  121OSM   C12S12818   5.878   6.426   9.613 -1.1091 -0.0727 -0.5499
  121OSM   H12S12819   5.827   6.352   9.547  0.4746 -1.0089 -0.7792
  121OSM   H12T12820   5.986   6.421   9.587 -0.3925 -0.4054  2.1568
  121OSM   C13S12821   5.828   6.561   9.561 -0.2510  0.3330  0.4554
  121OSM   H13S12822   5.886   6.637   9.618  1.1811 -1.5099  1.5628
  121OSM   H13T12823   5.722   6.565   9.593  0.2857  0.2276  2.3540
  121OSM   C14S12824   5.813   6.563   9.406  0.3299 -0.4583  0.3429
  121OSM   H14S12825   5.762   6.475   9.363  3.7358 -2.4608  0.0630
  121OSM   H14T12826   5.912   6.573   9.357 -0.1358 -0.2275 -0.5797
  121OSM   C15S12827   5.761   6.696   9.356 -0.8374 -1.0151 -0.0245
  121OSM   H15S12828   5.787   6.788   9.412  1.0408 -0.3787 -1.8015
  121OSM   H15T12829   5.651   6.685   9.365 -1.1559  0.5424 -1.3746
  121OSM   C16S12830   5.800   6.716   9.210 -0.7926 -0.5028  0.1606
  121OSM   H16S12831   5.806   6.612   9.170  0.9440 -0.4232  0.1376
  121OSM   H16T12832   5.903   6.755   9.227 -1.0110 -1.2245  3.9689
  121OSM   C17S12833   5.716   6.818   9.128 -0.6603 -0.1002  0.2630
  121OSM   H17S12834   5.774   6.865   9.046 -2.5570  0.7986 -0.6203
  121OSM   H17T12835   5.685   6.894   9.202  0.2117 -1.2486  1.8926
  121OSM   C18S12836   5.594   6.751   9.064 -0.5603  0.1511 -0.0090
  121OSM   H18S12837   5.534   6.696   9.140 -0.0738 -1.6651 -0.8770
  121OSM   H18T12838   5.610   6.687   8.974 -1.8967  2.0683 -1.7170
  121OSM   H18U12839   5.526   6.831   9.025 -0.0208  0.7427  0.2473
  121OSM    C1F12840   6.209   6.792  10.615 -0.3867 -0.3328 -0.2227
  121OSM     OF12841   6.313   6.796  10.685  0.6201 -0.3129 -0.3624
  121OSM    C2F12842   6.188   6.894  10.505  0.1891  0.4715  0.9522
  121OSM    H2F12843   6.169   6.991  10.556 -1.5640  0.0986  1.0916
  121OSM    H2G12844   6.093   6.882  10.449  2.5015  1.1856 -3.6036
  121OSM    C3F12845   6.303   6.883  10.397  0.6322  0.2625  0.2222
  121OSM    H3F12846   6.293   6.780  10.358  0.1555  1.3188 -2.7022
  121OSM    H3G12847   6.400   6.893  10.450 -0.3716  0.3673  2.1269
  121OSM    C4F12848   6.280   6.970  10.282  0.1043 -0.0533  0.1268
  121OSM    H4F12849   6.240   7.072  10.301 -1.9774 -0.9774  1.0856
  121OSM    H4G12850   6.213   6.925  10.206  2.8452 -0.8816 -1.9619
  121OSM    C5F12851   6.417   6.988  10.215 -0.1260  0.7915 -0.5031
  121OSM    H5F12852   6.469   6.897  10.180 -0.0264  1.6637 -2.7462
  121OSM    H5G12853   6.491   7.019  10.293 -0.6182 -0.3306  0.4402
  121OSM    C6F12854   6.421   7.096  10.106 -0.7713 -0.2701 -0.0436
  121OSM    H6F12855   6.402   7.196  10.151 -1.1439 -0.0037 -0.7703
  121OSM    H6G12856   6.336   7.079  10.037 -1.6221  1.6322  0.4762
  121OSM    C7F12857   6.565   7.105  10.042 -0.3883 -0.1995 -0.1969
  121OSM    H7F12858   6.593   7.005  10.001 -1.4351 -0.4326 -0.3898
  121OSM    H7G12859   6.634   7.142  10.120 -0.5645 -0.1869 -0.0468
  121OSM    C8F12860   6.573   7.203   9.922 -0.3310  0.1309  0.3479
  121OSM    H8F12861   6.664   7.185   9.861 -0.8726  0.5907 -0.6186
  121OSM    H8G12862   6.596   7.300   9.971 -2.1844  0.1452  1.2839
  121OSM    C9F12863   6.457   7.205   9.825 -0.8067  1.1181 -0.3447
  121OSM    H9F12864   6.363   7.234   9.874 -0.3711  1.3669  0.3563
  121OSM   C10F12865   6.449   7.140   9.709 -0.0482 -0.7479  1.2662
  121OSM   H10F12866   6.359   7.156   9.649  0.4206  2.0022  1.1658
  121OSM   C11F12867   6.565   7.066   9.644  0.8448  0.2214 -0.1508
  121OSM   H11F12868   6.547   6.956   9.651  0.6693  0.3282  1.4583
  121OSM   H11G12869   6.657   7.079   9.705 -0.8014  3.8208  1.8507
  121OSM   C12F12870   6.598   7.092   9.493  0.1284 -0.4333  0.4863
  121OSM   H12F12871   6.696   7.044   9.469  0.7368  0.1178  1.8003
  121OSM   H12G12872   6.609   7.201   9.473  0.5009 -0.8218 -1.7189
  121OSM   C13F12873   6.494   7.029   9.405 -0.0893 -0.1679 -0.1724
  121OSM   H13F12874   6.400   7.087   9.415 -0.9876 -1.3201 -1.6457
  121OSM   H13G12875   6.498   6.923   9.437  1.9379 -0.7332 -2.0665
  121OSM   C14F12876   6.532   7.021   9.261 -0.2018 -0.4367  1.4336
  121OSM   H14F12877   6.486   6.939   9.202  1.2680 -0.9747  1.0067
  121OSM   H14G12878   6.640   6.999   9.248  0.3753  3.0029 -0.9556
  121OSM   C15F12879   6.501   7.150   9.182  0.0509  0.6654 -0.3700
  121OSM   H15F12880   6.507   7.245   9.239 -0.5029  0.3438  0.2511
  121OSM   H15G12881   6.389   7.150   9.181  0.0204 -0.8574 -0.1172
  121OSM   C16F12882   6.556   7.169   9.043 -0.1623 -0.3471  0.1989
  121OSM   H16F12883   6.582   7.070   9.000 -0.3773 -1.1069  1.7341
  121OSM   H16G12884   6.646   7.233   9.040 -0.4282  0.0127 -0.3606
  121OSM   C17F12885   6.458   7.236   8.942  0.1366  0.4898 -0.1491
  121OSM   H17F12886   6.393   7.311   8.993 -2.1913 -0.7998 -1.0419
  121OSM   H17G12887   6.393   7.154   8.903  0.8122 -0.8533  1.3950
  121OSM   C18F12888   6.526   7.310   8.822  0.1114 -0.3216 -0.4717
  121OSM   H18F12889   6.607   7.253   8.772  0.8413  1.0794 -0.9344
  121OSM   H18G12890   6.586   7.394   8.862 -0.0029 -0.1795 -0.5949
  121OSM   H18H12891   6.456   7.351   8.746 -0.2506  0.3261  0.1993
  122OSM      N12892   1.743   4.260  11.025  1.0218  0.8547  0.2295
  122OSM    C1512893   1.619   4.253  10.935  0.7483 -0.2372  0.1411
  122OSM   H15A12894   1.530   4.256  10.996 -0.3673 -0.6165 -1.4031
  122OSM   H15B12895   1.619   4.162  10.876  1.5116 -1.5227  2.0085
  122OSM   H15C12896   1.624   4.336  10.866 -2.4518  0.7508  0.9275
  122OSM    C1412897   1.753   4.395  11.077 -0.3877 -0.5990 -0.2481
  122OSM   H14A12898   1.661   4.426  11.124 -0.9134 -1.0520 -0.9553
  122OSM   H14B12899   1.756   4.472  11.001 -1.0720 -0.8138 -0.4996
  122OSM   H14C12900   1.833   4.414  11.147  1.1517 -0.6733 -1.9154
  122OSM    C1312901   1.718   4.167  11.134  0.1380  0.4041 -0.3485
  122OSM   H13A12902   1.625   4.200  11.179  1.2526  0.8654  1.7220
  122OSM   H13B12903   1.789   4.155  11.214 -0.4026 -0.8766 -0.0257
  122OSM   H13C12904   1.702   4.064  11.106  2.2869 -0.0932  0.1280
  122OSM    C1212905   1.873   4.230  10.943  0.1606 -0.3662  0.2330
  122OSM   H12A12906   1.956   4.233  11.011 -0.8189 -0.5054  1.4854
  122OSM   H12B12907   1.889   4.311  10.874  0.1638 -1.0311 -0.5522
  122OSM    C1112908   1.881   4.095  10.863  0.1970  0.4973 -0.4436
  122OSM   H11A12909   1.984   4.087  10.821 -0.3990  0.8527 -2.0409
  122OSM   H11B12910   1.820   4.101  10.770 -0.1885  0.0806 -0.2189
  122OSM      P12911   1.747   3.869  10.875 -0.2274  0.4428 -0.0733
  122OSM    O1312912   1.764   3.752  10.964 -1.2863 -0.7773  0.2820
  122OSM    O1412913   1.611   3.925  10.843 -0.5313 -0.4180  0.0345
  122OSM    O1112914   1.826   3.830  10.739  0.5941 -0.2260  0.0439
  122OSM    O1212915   1.839   3.984  10.943  0.5701  0.4653  0.6546
  122OSM    C1S12916   1.769   3.748  10.636 -0.2024 -0.0755 -0.0928
  122OSM    H1S12917   1.666   3.714  10.659  0.3510 -1.3442  0.6229
  122OSM    H1T12918   1.840   3.663  10.624  2.5383  1.6649  2.3527
  122OSM     NF12919   1.686   3.738  10.403  0.0661 -0.1516 -0.0140
  122OSM    HNF12920   1.742   3.663  10.369  0.0269  0.2269 -0.9586
  122OSM    C2S12921   1.759   3.819  10.504 -0.5100 -0.8904 -0.1497
  122OSM    H2S12922   1.702   3.911  10.528 -0.1994 -0.9744  0.9668
  122OSM    C3S12923   1.906   3.856  10.468  1.0225  0.0005 -0.9404
  122OSM    H3S12924   1.953   3.756  10.455 -1.1335 -1.2414  0.1385
  122OSM     O312925   1.967   3.943  10.559 -0.1856  0.3432  0.1333
  122OSM    HO312926   1.913   3.932  10.638 -4.8908  0.3727 -2.6774
  122OSM    C4S12927   1.902   3.912  10.330 -0.4182 -0.9263  0.0875
  122OSM    H4S12928   1.918   3.833  10.255  1.8926 -0.1261 -0.3391
  122OSM    C5S12929   1.913   4.039  10.288 -0.0848 -0.2609  0.4817
  122OSM    H5S12930   1.929   4.123  10.357 -0.9506  1.2327 -1.0397
  122OSM    C6S12931   1.912   4.077  10.142  0.0288  0.0550  0.0409
  122OSM    H6S12932   1.919   3.989  10.075 -1.8067 -0.2970  0.2505
  122OSM    H6T12933   2.002   4.143  10.138  0.0947  0.0190  0.8386
  122OSM    C7S12934   1.801   4.170  10.089  0.2758  0.2745 -0.2501
  122OSM    H7S12935   1.781   4.265  10.143 -2.0031 -0.5651  0.5035
  122OSM    H7T12936   1.716   4.103  10.110  1.2863 -0.7804  0.5890
  122OSM    C8S12937   1.823   4.206   9.942 -0.2565 -0.1990  0.4510
  122OSM    H8S12938   1.826   4.116   9.877 -0.2553 -0.3748  0.6922
  122OSM    H8T12939   1.914   4.262   9.911  0.7948 -2.0760  0.0331
  122OSM    C9S12940   1.705   4.298   9.891 -0.4729 -0.1100 -0.5247
  122OSM    H9S12941   1.698   4.383   9.962 -2.6628  0.1713 -0.9989
  122OSM    H9T12942   1.608   4.246   9.907  0.3361 -0.8155  3.0017
  122OSM   C10S12943   1.735   4.350   9.752  0.6028  0.1258  0.4059
  122OSM   H10S12944   1.844   4.358   9.730 -0.1353  0.7371 -3.9644
  122OSM   H10T12945   1.681   4.444   9.731 -1.0881 -0.8166  0.3630
  122OSM   C11S12946   1.683   4.252   9.639  0.3522 -0.0028  0.4103
  122OSM   H11S12947   1.572   4.256   9.650  0.2931  1.6074 -0.4560
  122OSM   H11T12948   1.707   4.145   9.654 -1.6345 -0.6737 -0.7818
  122OSM   C12S12949   1.729   4.311   9.510  0.2092  0.0277  0.6188
  122OSM   H12S12950   1.686   4.413   9.498 -0.8691 -0.2737  1.7625
  122OSM   H12T12951   1.682   4.257   9.425 -3.4445  0.3814  2.2585
  122OSM   C13S12952   1.883   4.330   9.485  0.5675 -0.3606  0.3655
  122OSM   H13S12953   1.935   4.244   9.532  1.8538  0.9897  1.5074
  122OSM   H13T12954   1.918   4.415   9.547 -2.3437  1.3543 -0.1587
  122OSM   C14S12955   1.908   4.344   9.338  0.6142 -0.0390 -0.1092
  122OSM   H14S12956   1.887   4.248   9.286 -0.3613 -0.1147  0.4044
  122OSM   H14T12957   2.016   4.359   9.319  0.6525  0.1665  0.2764
  122OSM   C15S12958   1.836   4.464   9.265  0.3062 -0.8267 -0.0958
  122OSM   H15S12959   1.841   4.557   9.326 -3.6366 -0.1867 -0.4939
  122OSM   H15T12960   1.730   4.435   9.274  0.3935 -1.2379 -0.3508
  122OSM   C16S12961   1.879   4.488   9.116  0.2955  0.4034 -0.3608
  122OSM   H16S12962   1.804   4.560   9.077 -0.5843 -0.0081  0.5492
  122OSM   H16T12963   1.854   4.402   9.051  0.0181  1.2171 -1.3535
  122OSM   C17S12964   2.024   4.528   9.091 -0.5096 -0.3946 -0.1484
  122OSM   H17S12965   2.100   4.456   9.128 -0.5210 -0.5309 -0.3877
  122OSM   H17T12966   2.046   4.612   9.160 -0.2682 -1.4861  1.1493
  122OSM   C18S12967   2.065   4.566   8.950 -0.6377  0.5745 -0.3783
  122OSM   H18S12968   2.040   4.486   8.877 -1.4962  0.7455 -0.2935
  122OSM   H18T12969   2.172   4.587   8.929  0.3481 -3.1597  0.2664
  122OSM   H18U12970   1.994   4.644   8.913 -2.1778 -0.3086  0.5866
  122OSM    C1F12971   1.552   3.724  10.389 -0.0883 -0.3982  0.2790
  122OSM     OF12972   1.466   3.783  10.457  0.2455  0.1472  0.1692
  122OSM    C2F12973   1.509   3.626  10.282 -0.3708 -0.1145  0.1389
  122OSM    H2F12974   1.423   3.585  10.339  0.0637  0.1814  1.0166
  122OSM    H2G12975   1.586   3.549  10.258  0.6557  0.4250  1.5632
  122OSM    C3F12976   1.442   3.691  10.154  0.2088  0.5205  0.3174
  122OSM    H3F12977   1.385   3.781  10.185 -0.2630  0.2514  0.2450
  122OSM    H3G12978   1.374   3.618  10.104  1.7521 -1.2983  0.7484
  122OSM    C4F12979   1.545   3.737  10.044 -0.0866  0.3008 -0.1131
  122OSM    H4F12980   1.603   3.656   9.996  0.0634  1.6002 -2.2149
  122OSM    H4G12981   1.615   3.809  10.092 -2.6398  2.8346  0.1173
  122OSM    C5F12982   1.476   3.825   9.931  0.0143 -0.2352  0.7044
  122OSM    H5F12983   1.417   3.906   9.980 -2.2058 -1.0739 -0.4827
  122OSM    H5G12984   1.396   3.769   9.880  1.6036 -0.9867 -1.1055
  122OSM    C6F12985   1.565   3.884   9.823  0.2542  0.6731  0.3016
  122OSM    H6F12986   1.656   3.911   9.881  0.7110  2.1811 -1.0627
  122OSM    H6G12987   1.505   3.965   9.777  0.9403  1.8966  1.4815
  122OSM    C7F12988   1.610   3.788   9.713  0.0775 -0.6377  1.0782
  122OSM    H7F12989   1.529   3.728   9.668  0.0360 -0.7696  1.3248
  122OSM    H7G12990   1.684   3.715   9.752 -1.1572 -2.5097  0.0198
  122OSM    C8F12991   1.692   3.852   9.590 -0.7283  1.0208  0.2985
  122OSM    H8F12992   1.787   3.900   9.625  1.4291 -1.6930 -1.4670
  122OSM    H8G12993   1.639   3.942   9.552  0.2316  0.5387 -2.3967
  122OSM    C9F12994   1.728   3.760   9.475 -0.0811 -0.2634 -0.2676
  122OSM    H9F12995   1.836   3.744   9.479 -0.3504 -2.1110  0.6701
  122OSM   C10F12996   1.659   3.710   9.373  0.0762 -0.1677  0.7521
  122OSM   H10F12997   1.713   3.652   9.297  1.5923  1.5981  0.4018
  122OSM   C11F12998   1.512   3.733   9.344 -0.5365 -0.1978 -0.5318
  122OSM   H11F12999   1.491   3.841   9.360  1.6293  0.2357 -0.2832
  122OSM   H11G13000   1.462   3.671   9.421  1.1472 -0.2926  0.5364
  122OSM   C12F13001   1.478   3.688   9.204 -0.6421  0.1341 -0.6124
  122OSM   H12F13002   1.368   3.671   9.212 -1.0657  2.6312 -0.0202
  122OSM   H12G13003   1.534   3.593   9.192 -0.0756 -0.0107  2.3660
  122OSM   C13F13004   1.512   3.787   9.093 -0.6629 -0.0146 -0.1780
  122OSM   H13F13005   1.622   3.796   9.091 -0.7792  1.7588 -0.2253
  122OSM   H13G13006   1.471   3.889   9.114 -1.6772 -0.0360 -1.8909
  122OSM   C14F13007   1.460   3.730   8.967 -0.4128 -0.1613  0.1019
  122OSM   H14F13008   1.357   3.692   8.982 -1.5251  1.4842 -2.5642
  122OSM   H14G13009   1.530   3.651   8.931 -1.9875 -0.6483 -2.1526
  122OSM   C15F13010   1.458   3.824   8.847 -0.8131 -0.1072 -0.2645
  122OSM   H15F13011   1.389   3.909   8.863  0.5159  0.6311  1.9726
  122OSM   H15G13012   1.431   3.767   8.755  0.3261  0.2096 -0.8178
  122OSM   C16F13013   1.598   3.888   8.824 -0.2317 -0.4234 -0.2222
  122OSM   H16F13014   1.671   3.806   8.805 -0.4077 -1.1163  1.8398
  122OSM   H16G13015   1.633   3.940   8.916 -0.4216  0.1690 -0.4826
  122OSM   C17F13016   1.596   3.998   8.717  0.2607 -0.3924  0.0715
  122OSM   H17F13017   1.548   4.093   8.748 -1.9841 -1.3483 -0.3363
  122OSM   H17G13018   1.526   3.976   8.634  0.0039 -1.8484  0.6446
  122OSM   C18F13019   1.734   4.018   8.648 -0.4819 -0.5070  0.0559
  122OSM   H18F13020   1.807   4.070   8.715  0.3183  0.4165 -1.4835
  122OSM   H18G13021   1.724   4.098   8.572 -2.7359  0.9461  1.7652
  122OSM   H18H13022   1.769   3.920   8.610 -0.1076  0.0983 -1.2037
  123OSM      N13023   5.851   3.807   5.874  0.5321 -0.3300 -0.4953
  123OSM    C1513024   5.747   3.914   5.848 -0.7261  0.3040  0.2155
  123OSM   H15A13025   5.787   4.012   5.868  1.7388 -0.6251  0.1271
  123OSM   H15B13026   5.659   3.905   5.910 -1.1846  0.5960 -0.3874
  123OSM   H15C13027   5.709   3.911   5.747  0.4554  0.1489 -0.2378
  123OSM    C1413028   5.827   3.691   5.791 -0.6103  0.1433 -0.3744
  123OSM   H14A13029   5.843   3.717   5.687 -2.2091 -1.1618 -0.9815
  123OSM   H14B13030   5.724   3.660   5.792 -0.8820  1.0287  0.4042
  123OSM   H14C13031   5.876   3.608   5.839 -3.0567 -0.2059  1.7062
  123OSM    C1313032   5.991   3.849   5.836 -0.5497 -0.2879  0.0949
  123OSM   H13A13033   5.994   3.885   5.735 -0.0235 -1.3904 -0.2969
  123OSM   H13B13034   6.054   3.761   5.848 -0.9743 -0.4857  1.0053
  123OSM   H13C13035   6.039   3.919   5.903  2.7721 -2.9288  0.7780
  123OSM    C1213036   5.851   3.774   6.024 -0.4265  0.2814  0.5091
  123OSM   H12A13037   5.880   3.869   6.066  0.6809 -0.4160  1.3572
  123OSM   H12B13038   5.927   3.701   6.045 -0.5944 -0.4470 -1.2053
  123OSM    C1113039   5.722   3.728   6.104 -0.1918 -0.2298 -0.1396
  123OSM   H11A13040   5.744   3.718   6.212 -0.9983 -0.1550  0.0368
  123OSM   H11B13041   5.692   3.629   6.065 -0.1278 -0.0913 -0.5514
  123OSM      P13042   5.470   3.784   6.140 -0.0135  0.0791  0.0822
  123OSM    O1313043   5.377   3.895   6.113  0.3366 -0.4315  0.0983
  123OSM    O1413044   5.433   3.653   6.090 -0.4981 -0.3512  0.3175
  123OSM    O1113045   5.503   3.759   6.298  0.0516 -0.5965  0.4402
  123OSM    O1213046   5.616   3.829   6.083 -0.1136 -0.1240  0.1749
  123OSM    C1S13047   5.497   3.878   6.379  0.1396  0.5634  1.1449
  123OSM    H1S13048   5.406   3.937   6.358  1.0534  1.3396 -0.9393
  123OSM    H1T13049   5.588   3.943   6.375  1.1774 -0.8237  1.2753
  123OSM     NF13050   5.471   3.946   6.608  0.2555 -0.3703 -0.7554
  123OSM    HNF13051   5.555   3.979   6.650 -0.1409  0.7013 -0.7784
  123OSM    C2S13052   5.491   3.829   6.526  0.1856 -0.3993 -0.5172
  123OSM    H2S13053   5.402   3.764   6.539 -0.7696  0.4401 -2.4748
  123OSM    C3S13054   5.624   3.760   6.563 -0.2492  0.1756 -1.0150
  123OSM    H3S13055   5.703   3.838   6.561 -1.0630  1.1646  1.3507
  123OSM     O313056   5.670   3.663   6.473 -0.5138 -0.0856  0.8310
  123OSM    HO313057   5.619   3.677   6.393  1.0470 -0.3059 -0.2396
  123OSM    C4S13058   5.629   3.708   6.709 -0.2448 -0.3546 -0.0397
  123OSM    H4S13059   5.541   3.647   6.735  0.3925 -1.2596  0.0324
  123OSM    C5S13060   5.721   3.738   6.799 -0.3412 -0.0968 -0.0405
  123OSM    H5S13061   5.798   3.809   6.764  0.8793 -1.2245  0.2701
  123OSM    C6S13062   5.715   3.687   6.941 -0.0312 -0.0227  0.7021
  123OSM    H6S13063   5.755   3.772   7.001 -0.5908  0.1521  0.8396
  123OSM    H6T13064   5.790   3.607   6.955 -0.3083 -0.2900  0.6724
  123OSM    C7S13065   5.588   3.613   6.989 -0.1469 -0.6813 -0.0390
  123OSM    H7S13066   5.570   3.515   6.940 -0.7530 -0.3585 -0.4698
  123OSM    H7T13067   5.495   3.667   6.960 -0.2497  0.7110  2.5857
  123OSM    C8S13068   5.584   3.595   7.144  0.1136 -0.0058  0.1464
  123OSM    H8S13069   5.646   3.512   7.183  0.2612  0.1332  0.2099
  123OSM    H8T13070   5.484   3.560   7.176 -0.0826 -0.3754 -0.8528
  123OSM    C9S13071   5.623   3.715   7.241  0.2893  0.2822  0.8298
  123OSM    H9S13072   5.575   3.806   7.199  1.1700  0.7229  0.7586
  123OSM    H9T13073   5.734   3.716   7.244  0.3620  0.0976 -0.7593
  123OSM   C10S13074   5.577   3.681   7.384  0.4429 -1.0260 -0.0628
  123OSM   H10S13075   5.607   3.579   7.417 -1.6711 -1.2411  1.3469
  123OSM   H10T13076   5.466   3.685   7.383  0.3389  0.8137  3.4288
  123OSM   C11S13077   5.642   3.784   7.486  0.6990 -0.1109 -0.0391
  123OSM   H11S13078   5.634   3.888   7.449 -0.2408  0.0765  0.6340
  123OSM   H11T13079   5.751   3.762   7.485  0.6318 -0.7662 -3.2046
  123OSM   C12S13080   5.599   3.768   7.635 -0.5313 -0.4290  0.0929
  123OSM   H12S13081   5.495   3.729   7.622 -0.7305  0.5913 -1.6897
  123OSM   H12T13082   5.585   3.864   7.688  2.0991  0.3329 -0.4469
  123OSM   C13S13083   5.676   3.656   7.709  0.5342 -0.6352 -0.5406
  123OSM   H13S13084   5.774   3.696   7.743  0.2115 -1.5849  1.6951
  123OSM   H13T13085   5.693   3.576   7.634 -1.3113 -1.1328 -0.4703
  123OSM   C14S13086   5.595   3.593   7.828 -0.2336 -0.3134 -0.4978
  123OSM   H14S13087   5.664   3.518   7.873  1.0461  1.8532  1.3853
  123OSM   H14T13088   5.505   3.538   7.792  0.1016 -2.0139  1.0856
  123OSM   C15S13089   5.554   3.688   7.937 -0.2803  0.1104  0.3999
  123OSM   H15S13090   5.486   3.767   7.900  1.0145  2.3169  2.4098
  123OSM   H15T13091   5.641   3.753   7.962 -0.6366  1.1991 -1.0671
  123OSM   C16S13092   5.497   3.628   8.067  0.4500 -0.1863 -0.0792
  123OSM   H16S13093   5.413   3.562   8.036  1.5817 -1.0178 -1.4832
  123OSM   H16T13094   5.433   3.703   8.118  0.5155  0.6745 -1.2338
  123OSM   C17S13095   5.598   3.548   8.146  0.7307 -0.3569 -0.3402
  123OSM   H17S13096   5.679   3.619   8.174 -0.4026  0.3451  1.3636
  123OSM   H17T13097   5.641   3.479   8.070  0.0483  1.2652 -2.2839
  123OSM   C18S13098   5.547   3.462   8.260  0.2878  0.0005 -0.6297
  123OSM   H18S13099   5.605   3.370   8.285 -0.7475 -0.8621 -1.3025
  123OSM   H18T13100   5.452   3.419   8.223 -0.0467  0.9599 -0.8972
  123OSM   H18U13101   5.529   3.531   8.345  1.2608  0.1477 -0.5295
  123OSM    C1F13102   5.366   4.025   6.619 -0.5981 -0.0992 -0.2594
  123OSM     OF13103   5.268   4.005   6.549 -0.2773 -0.0271 -0.0119
  123OSM    C2F13104   5.373   4.123   6.727 -0.4117 -0.2690  0.5725
  123OSM    H2F13105   5.351   4.225   6.687 -0.4497 -0.4866  0.0335
  123OSM    H2G13106   5.474   4.121   6.774 -0.1971  1.2728  0.2353
  123OSM    C3F13107   5.281   4.093   6.850 -0.5403 -0.5440  0.5900
  123OSM    H3F13108   5.278   3.983   6.868  0.0270 -1.1882 -2.6783
  123OSM    H3G13109   5.177   4.129   6.840  0.0646  0.8996 -1.0525
  123OSM    C4F13110   5.339   4.163   6.974 -0.9864 -0.0011  0.8858
  123OSM    H4F13111   5.335   4.273   6.960  3.5884  0.3501  0.8053
  123OSM    H4G13112   5.445   4.130   6.982 -1.1034 -0.5793  0.2324
  123OSM    C5F13113   5.256   4.123   7.095  0.3986 -0.1870 -0.7355
  123OSM    H5F13114   5.259   4.012   7.095  1.4818 -0.1733 -0.4072
  123OSM    H5G13115   5.152   4.160   7.082  1.5361  3.4290 -0.6366
  123OSM    C6F13116   5.321   4.162   7.230 -0.2235 -0.0116 -1.0091
  123OSM    H6F13117   5.320   4.272   7.247  1.2168 -0.0019 -0.8702
  123OSM    H6G13118   5.427   4.131   7.220  0.1758  1.4021 -1.4041
  123OSM    C7F13119   5.249   4.100   7.356  0.2089  0.1670 -0.0429
  123OSM    H7F13120   5.164   4.039   7.319  0.7654  0.7326 -2.4358
  123OSM    H7G13121   5.200   4.187   7.403 -1.2619 -0.6061 -0.1028
  123OSM    C8F13122   5.342   4.030   7.465  0.1984 -0.2377  0.5026
  123OSM    H8F13123   5.392   3.938   7.426  1.2477  0.1797  0.8247
  123OSM    H8G13124   5.275   3.999   7.548 -1.4220 -0.9517 -0.9964
  123OSM    C9F13125   5.452   4.120   7.518  0.2571  0.2753  0.0490
  123OSM    H9F13126   5.535   4.149   7.452  0.4062  0.3215  0.2557
  123OSM   C10F13127   5.468   4.164   7.646  0.2514 -0.7344 -0.3232
  123OSM   H10F13128   5.549   4.237   7.661  0.6349 -0.7017 -2.3898
  123OSM   C11F13129   5.373   4.140   7.764 -0.0258  0.3385  0.4408
  123OSM   H11F13130   5.314   4.048   7.741  0.8501  0.2240 -1.5775
  123OSM   H11G13131   5.306   4.229   7.764 -0.2868  0.2373 -2.1412
  123OSM   C12F13132   5.450   4.128   7.896 -0.4444 -0.2350 -1.0986
  123OSM   H12F13133   5.518   4.213   7.921 -0.0596 -0.8583  0.0673
  123OSM   H12G13134   5.525   4.048   7.882 -1.4427 -1.3812 -0.1296
  123OSM   C13F13135   5.363   4.090   8.021  0.2158  0.5011 -0.4286
  123OSM   H13F13136   5.284   4.025   7.976 -0.0570  1.1611 -0.9224
  123OSM   H13G13137   5.298   4.171   8.062 -0.1137  1.0340 -1.9378
  123OSM   C14F13138   5.441   4.011   8.131 -0.0047  0.2605  0.2940
  123OSM   H14F13139   5.493   3.924   8.084 -0.4029  0.2166 -0.0776
  123OSM   H14G13140   5.361   3.974   8.198 -1.4843  2.8268  0.0658
  123OSM   C15F13141   5.539   4.101   8.204  0.9801  0.6613  0.0550
  123OSM   H15F13142   5.487   4.199   8.216 -1.0803 -0.0603 -2.1871
  123OSM   H15G13143   5.631   4.130   8.147  0.9656  1.2640  0.3298
  123OSM   C16F13144   5.587   4.050   8.341 -0.3834 -0.1882  0.5979
  123OSM   H16F13145   5.487   4.034   8.388  0.3965  2.6108  3.6314
  123OSM   H16G13146   5.643   4.125   8.401  1.4173 -0.9539 -0.0531
  123OSM   C17F13147   5.659   3.914   8.361 -0.0437 -0.3727  0.8405
  123OSM   H17F13148   5.603   3.847   8.292 -2.4407  0.3173  1.9793
  123OSM   H17G13149   5.647   3.878   8.466  0.1984 -1.2721  0.5705
  123OSM   C18F13150   5.813   3.921   8.335  0.3226 -0.3568  0.1250
  123OSM   H18F13151   5.858   3.825   8.300 -0.6628 -0.9383  0.4152
  123OSM   H18G13152   5.874   3.958   8.420  1.4945 -0.8305 -0.4688
  123OSM   H18H13153   5.836   3.995   8.255 -1.5934 -0.3397 -0.4442
  124OSM      N13154   2.323   0.391   5.975 -0.4995 -0.9682 -0.2423
  124OSM    C1513155   2.408   0.450   5.870  0.4978  0.7548  1.0559
  124OSM   H15A13156   2.477   0.373   5.839  0.3056  0.7750  0.5778
  124OSM   H15B13157   2.471   0.532   5.902  2.8391 -0.6156  0.1955
  124OSM   H15C13158   2.342   0.484   5.792 -0.1761  0.8928  1.6758
  124OSM    C1413159   2.255   0.267   5.916 -0.9438 -0.0708 -0.4523
  124OSM   H14A13160   2.175   0.290   5.848 -2.1531 -2.3320  0.1100
  124OSM   H14B13161   2.218   0.201   5.994  1.6089 -0.6898  0.3170
  124OSM   H14C13162   2.328   0.206   5.866 -0.3125  1.4261 -1.4186
  124OSM    C1313163   2.407   0.363   6.097  0.6030  0.0519 -0.0808
  124OSM   H13A13164   2.484   0.294   6.068  0.0063 -0.7196  0.1444
  124OSM   H13B13165   2.334   0.314   6.159 -2.8166  3.3313 -1.1196
  124OSM   H13C13166   2.439   0.453   6.147 -0.2212  0.0324  0.4977
  124OSM    C1213167   2.211   0.492   6.013  0.1137  0.0257  0.1534
  124OSM   H12A13168   2.143   0.509   5.932  0.8050 -0.9881 -0.6669
  124OSM   H12B13169   2.250   0.589   6.044  0.6512 -0.3824  0.8027
  124OSM    C1113170   2.125   0.452   6.134  0.1377  0.3393 -1.1002
  124OSM   H11A13171   2.085   0.349   6.125  1.4596 -0.2069 -0.9801
  124OSM   H11B13172   2.032   0.511   6.148 -0.4136 -1.1707  2.5807
  124OSM      P13173   2.258   0.569   6.332  0.2542  0.1831 -0.4141
  124OSM    O1313174   2.385   0.517   6.386  0.4804 -0.3341 -1.1549
  124OSM    O1413175   2.271   0.685   6.245  0.0849 -0.1826 -0.0757
  124OSM    O1113176   2.154   0.597   6.447  0.3779 -0.3130 -0.7180
  124OSM    O1213177   2.200   0.454   6.252 -0.4109  0.7686  0.3386
  124OSM    C1S13178   2.098   0.494   6.527  0.0038 -0.3213  1.0461
  124OSM    H1S13179   2.101   0.396   6.474 -1.2177  0.9684 -1.6021
  124OSM    H1T13180   1.990   0.501   6.550 -0.2201  0.0634 -0.0489
  124OSM     NF13181   2.123   0.354   6.733  0.0199  0.1990 -0.3293
  124OSM    HNF13182   2.053   0.365   6.803 -0.0488 -0.0155 -0.3628
  124OSM    C2S13183   2.166   0.479   6.666 -0.5345  0.4000  0.2390
  124OSM    H2S13184   2.275   0.460   6.656 -0.7955 -1.2309  0.1921
  124OSM    C3S13185   2.165   0.612   6.749 -0.4239 -0.3979  0.2443
  124OSM    H3S13186   2.060   0.633   6.780  0.1285 -0.0315  1.9939
  124OSM     O313187   2.208   0.724   6.674  0.7881 -0.5712  0.0875
  124OSM    HO313188   2.213   0.691   6.584  0.2476  1.9215 -0.9314
  124OSM    C4S13189   2.242   0.601   6.884  0.0326  0.2974  0.2584
  124OSM    H4S13190   2.179   0.560   6.964  0.1848 -0.0110  0.2205
  124OSM    C5S13191   2.374   0.610   6.909  0.7163  0.0560  0.5331
  124OSM    H5S13192   2.451   0.620   6.831 -0.1519  1.1390 -0.2105
  124OSM    C6S13193   2.431   0.576   7.047  0.8839  0.0142 -0.6951
  124OSM    H6S13194   2.486   0.659   7.095 -0.9923  0.7363  0.3388
  124OSM    H6T13195   2.504   0.494   7.033  0.3146 -0.5228 -0.5724
  124OSM    C7S13196   2.335   0.532   7.164 -0.2090  0.3808  0.0621
  124OSM    H7S13197   2.271   0.448   7.132  0.5810  0.0097 -0.5848
  124OSM    H7T13198   2.265   0.616   7.183 -2.2810 -0.3964 -3.4819
  124OSM    C8S13199   2.408   0.490   7.287  0.2685 -0.8748  0.0888
  124OSM    H8S13200   2.509   0.534   7.303  0.7152 -1.3953 -1.1590
  124OSM    H8T13201   2.436   0.385   7.262  0.1780 -1.1352  1.0420
  124OSM    C9S13202   2.321   0.494   7.412 -0.4458  0.2412 -0.1143
  124OSM    H9S13203   2.227   0.437   7.393  1.4375 -3.3593  0.4166
  124OSM    H9T13204   2.286   0.593   7.448  0.9895  1.1521 -1.1235
  124OSM   C10S13205   2.394   0.416   7.519  0.7501 -0.7920  1.0599
  124OSM   H10S13206   2.500   0.446   7.533 -0.1089  2.4045  1.5812
  124OSM   H10T13207   2.388   0.309   7.492 -3.6166 -0.1071 -1.7343
  124OSM   C11S13208   2.327   0.427   7.667 -0.2073 -0.2973  0.1952
  124OSM   H11S13209   2.224   0.386   7.670 -0.0511 -0.6427  1.7601
  124OSM   H11T13210   2.324   0.531   7.706  0.2011  0.3016 -1.2903
  124OSM   C12S13211   2.409   0.342   7.768  0.4725  0.1773  0.1783
  124OSM   H12S13212   2.515   0.366   7.744  0.4554 -0.1268 -0.2293
  124OSM   H12T13213   2.398   0.235   7.738  2.3785 -0.7310  2.4290
  124OSM   C13S13214   2.354   0.372   7.910 -0.3041  0.1508 -0.1941
  124OSM   H13S13215   2.263   0.309   7.918  0.5657 -1.1545 -0.2005
  124OSM   H13T13216   2.331   0.478   7.933  3.1607  0.6876  1.4909
  124OSM   C14S13217   2.451   0.315   8.012  0.1645 -0.7244  0.2465
  124OSM   H14S13218   2.537   0.386   8.010 -0.3406 -0.0775  0.8130
  124OSM   H14T13219   2.498   0.225   7.968  1.3728  0.4224 -0.9088
  124OSM   C15S13220   2.400   0.293   8.152 -0.1054  1.2088 -0.0509
  124OSM   H15S13221   2.338   0.376   8.193 -1.5854  0.4522 -0.6919
  124OSM   H15T13222   2.493   0.275   8.210  0.2916 -2.3896 -1.5066
  124OSM   C16S13223   2.300   0.173   8.168 -0.0666 -0.3431 -0.1260
  124OSM   H16S13224   2.338   0.081   8.119 -1.6250 -1.3735  0.5295
  124OSM   H16T13225   2.210   0.208   8.112  1.0037  2.0454 -0.4886
  124OSM   C17S13226   2.258   0.140   8.313  0.2270  0.9231 -0.1328
  124OSM   H17S13227   2.351   0.113   8.367  0.7908  1.9252 -0.5742
  124OSM   H17T13228   2.183   0.058   8.311 -1.3774  2.2756  1.2888
  124OSM   C18S13229   2.198   0.250   8.392 -0.1861 -0.4477 -0.9206
  124OSM   H18S13230   2.208   0.231   8.501 -0.2295  0.7861 -0.6908
  124OSM   H18T13231   2.096   0.278   8.359  0.1014  1.7172 -0.1184
  124OSM   H18U13232   2.253   0.344   8.373 -1.2368  0.1536 -1.0399
  124OSM    C1F13233   2.162   0.233   6.686  0.2007  0.3902  1.0694
  124OSM     OF13234   2.241   0.228   6.594 -0.1832 -0.5178 -0.2159
  124OSM    C2F13235   2.101   0.106   6.746  0.4336  0.1979  0.3345
  124OSM    H2F13236   2.053   0.042   6.669 -2.4278 -0.2926  2.3843
  124OSM    H2G13237   2.019   0.135   6.816  0.2726 -1.9642  1.0894
  124OSM    C3F13238   2.199   0.027   6.831 -0.3868 -0.1662  0.1689
  124OSM    H3F13239   2.265   0.088   6.896  0.0983  1.4498 -1.7347
  124OSM    H3G13240   2.274  -0.026   6.769 -0.2862  1.7911 -1.5245
  124OSM    C4F13241   2.129  -0.080   6.920  0.3966 -0.0616 -0.4699
  124OSM    H4F13242   2.084  -0.155   6.851 -0.5183  0.7949 -0.8193
  124OSM    H4G13243   2.048  -0.021   6.969 -1.2322 -1.9072 -0.7927
  124OSM    C5F13244   2.219  -0.134   7.029 -0.3645 -0.1599 -0.7919
  124OSM    H5F13245   2.156  -0.195   7.098  0.1669  1.8919  1.6342
  124OSM    H5G13246   2.259  -0.054   7.094 -0.0780 -0.0841 -1.0640
  124OSM    C6F13247   2.312  -0.242   6.968  1.1161 -0.2093 -0.0260
  124OSM    H6F13248   2.393  -0.186   6.915  2.1601 -0.2741  1.4468
  124OSM    H6G13249   2.258  -0.300   6.890  0.9758  2.4501 -2.0392
  124OSM    C7F13250   2.376  -0.344   7.062  0.2354 -0.3234  0.7127
  124OSM    H7F13251   2.443  -0.406   6.999 -0.2062 -1.2760  1.1650
  124OSM    H7G13252   2.301  -0.418   7.098  0.1600  1.6432  5.3524
  124OSM    C8F13253   2.446  -0.293   7.190  0.2142  0.7470 -0.0185
  124OSM    H8F13254   2.485  -0.384   7.240 -1.5479  0.3969  0.8085
  124OSM    H8G13255   2.367  -0.253   7.258 -1.1800  1.2170 -1.8403
  124OSM    C9F13256   2.555  -0.195   7.160 -0.2252  0.6093 -0.4503
  124OSM    H9F13257   2.525  -0.124   7.082 -1.0177  0.8564  0.0593
  124OSM   C10F13258   2.677  -0.180   7.221 -0.4669 -0.1061  0.4878
  124OSM   H10F13259   2.750  -0.107   7.184 -1.3317  0.9054  0.7376
  124OSM   C11F13260   2.725  -0.274   7.340 -0.1141 -0.0327  0.5755
  124OSM   H11F13261   2.794  -0.351   7.299  1.7367  2.6303 -1.6442
  124OSM   H11G13262   2.644  -0.330   7.392  1.2420 -2.9448 -0.2224
  124OSM   C12F13263   2.823  -0.206   7.435  0.2969 -0.2688  0.9489
  124OSM   H12F13264   2.787  -0.109   7.475 -0.2770 -0.1561  0.1763
  124OSM   H12G13265   2.916  -0.176   7.382  0.3303  0.4385  1.3910
  124OSM   C13F13266   2.854  -0.294   7.555  0.8130  0.4530 -0.2981
  124OSM   H13F13267   2.895  -0.389   7.515  0.5410 -1.0504  2.7287
  124OSM   H13G13268   2.755  -0.311   7.602  1.1717  0.0177  0.3232
  124OSM   C14F13269   2.959  -0.241   7.646 -0.2166 -0.8430 -0.2704
  124OSM   H14F13270   2.917  -0.149   7.693 -1.0135 -1.1226 -0.4115
  124OSM   H14G13271   3.059  -0.220   7.603 -0.0447  2.6080  1.4140
  124OSM   C15F13272   2.986  -0.343   7.759  0.1639 -0.3581 -0.0188
  124OSM   H15F13273   3.027  -0.432   7.706  0.4421  0.0885 -0.5649
  124OSM   H15G13274   2.890  -0.368   7.809  1.1324 -0.4202  1.9162
  124OSM   C16F13275   3.084  -0.292   7.870  0.3898  0.7557  0.0248
  124OSM   H16F13276   3.089  -0.379   7.939 -0.3066  0.7465  0.0751
  124OSM   H16G13277   3.043  -0.209   7.931 -0.3638  0.4933 -0.1091
  124OSM   C17F13278   3.220  -0.245   7.820  0.0457 -0.0640 -0.0565
  124OSM   H17F13279   3.210  -0.140   7.787  0.8837  0.0072 -0.1021
  124OSM   H17G13280   3.258  -0.298   7.730 -0.2914  1.6584 -1.2424
  124OSM   C18F13281   3.318  -0.261   7.939  0.3325 -0.2233  0.1705
  124OSM   H18F13282   3.269  -0.265   8.038 -1.6223  0.0924 -0.7470
  124OSM   H18G13283   3.410  -0.198   7.934  1.7377 -2.2744 -1.7465
  124OSM   H18H13284   3.357  -0.363   7.917 -2.7713 -1.5742  0.4844
  125OSM      N13285   2.366   2.004   6.221 -0.5629 -0.4387  0.5461
  125OSM    C1513286   2.264   1.911   6.290  0.1412  0.0917 -0.4915
  125OSM   H15A13287   2.295   1.808   6.277  0.3716  0.2824 -1.5716
  125OSM   H15B13288   2.159   1.934   6.279  0.1512  2.9414  3.4552
  125OSM   H15C13289   2.281   1.937   6.393  1.7191  0.3340 -0.7884
  125OSM    C1413290   2.497   1.977   6.285  0.1259 -0.1302  0.0967
  125OSM   H14A13291   2.573   2.035   6.234 -0.8323 -0.0002 -1.2492
  125OSM   H14B13292   2.514   1.872   6.269  0.5908 -0.0412 -0.0081
  125OSM   H14C13293   2.488   2.007   6.388 -1.0852 -0.3585  0.0799
  125OSM    C1313294   2.378   1.964   6.072 -0.7936  0.0448 -0.0351
  125OSM   H13A13295   2.401   1.858   6.069  2.6078  0.6584 -2.7507
  125OSM   H13B13296   2.463   2.015   6.029 -1.0557  0.4533 -0.0696
  125OSM   H13C13297   2.289   2.000   6.024 -1.3111 -1.0496  0.0763
  125OSM    C1213298   2.340   2.155   6.236 -0.4477  0.3423 -0.3733
  125OSM   H12A13299   2.430   2.214   6.227  0.3943 -0.3557  2.5370
  125OSM   H12B13300   2.299   2.159   6.335  1.6685  1.1424  0.5342
  125OSM    C1113301   2.236   2.219   6.143 -0.1403  0.2099 -0.5360
  125OSM   H11A13302   2.276   2.212   6.039 -0.1483 -1.1257 -0.4707
  125OSM   H11B13303   2.242   2.328   6.164 -1.9205  0.1393  0.5716
  125OSM      P13304   2.011   2.185   6.280  0.2727  0.4546  0.0047
  125OSM    O1313305   1.938   2.312   6.268 -0.3148  0.6590  0.1076
  125OSM    O1413306   1.933   2.056   6.289 -0.6153  0.1183 -0.0158
  125OSM    O1113307   2.111   2.187   6.398  0.5054  0.9905 -0.0585
  125OSM    O1213308   2.098   2.177   6.148  0.2885  0.1755  0.3096
  125OSM    C1S13309   2.091   2.272   6.516 -0.2939  0.0376  0.2531
  125OSM    H1S13310   2.041   2.367   6.486 -0.2079 -0.1255 -0.4431
  125OSM    H1T13311   2.191   2.303   6.552 -0.4494  0.9717 -0.0781
  125OSM     NF13312   2.007   2.307   6.745 -0.6996  0.6793 -0.8937
  125OSM    HNF13313   2.079   2.319   6.813 -0.5864 -2.4130 -0.3566
  125OSM    C2S13314   2.025   2.205   6.643 -0.9151  0.6455  0.3086
  125OSM    H2S13315   1.929   2.164   6.606  0.4444 -2.8146  0.3146
  125OSM    C3S13316   2.118   2.086   6.682 -0.1451 -0.1869 -0.2393
  125OSM    H3S13317   2.216   2.125   6.717 -0.0087  0.0700 -0.8889
  125OSM     O313318   2.148   1.985   6.582  0.3365 -0.0505  0.3375
  125OSM    HO313319   2.130   2.032   6.501 -1.4157 -1.0910  0.0801
  125OSM    C4S13320   2.051   2.013   6.797 -0.7593 -1.0100 -0.4469
  125OSM    H4S13321   2.087   2.048   6.894 -0.5095 -1.3938 -0.4006
  125OSM    C5S13322   1.950   1.919   6.792  0.6375  0.5956  0.1158
  125OSM    H5S13323   1.918   1.867   6.700 -1.4706 -1.5176  1.9340
  125OSM    C6S13324   1.886   1.845   6.917  0.1125 -0.4815  1.0986
  125OSM    H6S13325   1.867   1.740   6.886 -3.0739  0.4119 -0.3527
  125OSM    H6T13326   1.782   1.878   6.936 -0.0673  0.0899 -0.6618
  125OSM    C7S13327   1.965   1.846   7.042  0.3506  0.6830  0.6273
  125OSM    H7S13328   2.012   1.945   7.059 -0.5471  0.8933  2.0106
  125OSM    H7T13329   2.043   1.768   7.038 -0.8549 -0.6916  2.1760
  125OSM    C8S13330   1.864   1.834   7.165 -0.3612 -0.0993 -0.7492
  125OSM    H8S13331   1.798   1.750   7.136  1.6261 -2.0642  0.0912
  125OSM    H8T13332   1.812   1.933   7.170 -3.5552 -1.6971  1.5659
  125OSM    C9S13333   1.945   1.814   7.299  0.5987 -0.5073  0.4544
  125OSM    H9S13334   2.048   1.855   7.291 -0.0387  1.6085  2.0517
  125OSM    H9T13335   1.953   1.704   7.312 -0.5632 -0.6139  0.4236
  125OSM   C10S13336   1.881   1.879   7.419  0.7058 -0.4722  0.1086
  125OSM   H10S13337   1.789   1.820   7.438  0.5321 -0.5197 -0.8234
  125OSM   H10T13338   1.857   1.986   7.402  0.3861 -0.8235 -2.0059
  125OSM   C11S13339   1.979   1.871   7.545 -0.5971  0.3824  0.4348
  125OSM   H11S13340   2.084   1.883   7.511 -0.2684  3.2067  2.1496
  125OSM   H11T13341   1.977   1.767   7.586 -1.2912  0.6595  1.1405
  125OSM   C12S13342   1.949   1.953   7.675 -0.2717 -0.6249  0.5605
  125OSM   H12S13343   1.856   1.918   7.723 -0.6308  0.0489  0.3797
  125OSM   H12T13344   1.939   2.054   7.630  0.8722 -1.2680 -1.2322
  125OSM   C13S13345   2.072   1.955   7.769  0.0588  0.2549 -0.3093
  125OSM   H13S13346   2.171   1.937   7.721  0.1297  0.6624 -0.3117
  125OSM   H13T13347   2.054   1.865   7.832 -0.8800  1.1771  0.7766
  125OSM   C14S13348   2.082   2.082   7.854  0.4209  0.4386 -0.0334
  125OSM   H14S13349   2.072   2.174   7.793  1.5019  2.1272  2.1895
  125OSM   H14T13350   2.173   2.075   7.918 -1.2524 -3.0469  2.3155
  125OSM   C15S13351   1.965   2.077   7.956  0.0426  0.8616  0.2039
  125OSM   H15S13352   1.970   1.989   8.023  0.5431  0.5864 -0.1860
  125OSM   H15T13353   1.873   2.090   7.895  0.4241 -1.1697 -0.9044
  125OSM   C16S13354   1.969   2.198   8.053 -0.9344  0.4177  0.0253
  125OSM   H16S13355   1.870   2.229   8.091 -1.1909  0.9754 -1.0471
  125OSM   H16T13356   2.010   2.286   7.999 -2.8490  1.2885 -0.0897
  125OSM   C17S13357   2.064   2.169   8.172 -0.0548  0.4162  0.0568
  125OSM   H17S13358   2.169   2.160   8.139  0.0764  0.8564  0.3412
  125OSM   H17T13359   2.034   2.075   8.224  1.6783  0.6413  1.5735
  125OSM   C18S13360   2.057   2.285   8.268  0.0008 -0.2876  0.4229
  125OSM   H18S13361   2.131   2.264   8.348  0.9902 -0.3199 -0.4813
  125OSM   H18T13362   1.956   2.300   8.312 -0.1247  3.3009 -0.7405
  125OSM   H18U13363   2.098   2.379   8.225  2.1572 -0.8820  1.0490
  125OSM    C1F13364   1.904   2.387   6.744 -0.1054 -1.0828  0.5306
  125OSM     OF13365   1.802   2.362   6.671 -0.5983 -0.2282  0.1219
  125OSM    C2F13366   1.911   2.513   6.835 -0.1536  0.0817 -0.0023
  125OSM    H2F13367   2.007   2.568   6.827  2.0378 -2.7158  3.7390
  125OSM    H2G13368   1.896   2.476   6.938 -2.6999  1.4118  0.1805
  125OSM    C3F13369   1.786   2.604   6.830 -0.5569 -0.2133  0.1881
  125OSM    H3F13370   1.690   2.550   6.818 -1.3542  0.6665  2.1439
  125OSM    H3G13371   1.781   2.675   6.745 -1.0335  0.0928  0.4703
  125OSM    C4F13372   1.767   2.706   6.942 -0.5625  0.2875 -0.1104
  125OSM    H4F13373   1.768   2.657   7.042 -0.7573  0.2004 -0.1527
  125OSM    H4G13374   1.663   2.743   6.935 -1.1937 -1.3982  0.1334
  125OSM    C5F13375   1.873   2.809   6.955 -0.5016  0.3097 -0.1671
  125OSM    H5F13376   1.876   2.855   6.854 -1.1686 -2.3927 -1.5301
  125OSM    H5G13377   1.973   2.761   6.967 -1.1153 -0.6160  1.5748
  125OSM    C6F13378   1.847   2.909   7.061  0.4157 -0.5142 -0.1659
  125OSM    H6F13379   1.829   2.859   7.159 -1.3374  0.3709  0.0018
  125OSM    H6G13380   1.760   2.971   7.032  0.8906  0.0587 -0.4007
  125OSM    C7F13381   1.962   3.011   7.068  0.4496  0.1982 -0.0205
  125OSM    H7F13382   1.926   3.113   7.093 -1.6698  0.2123 -2.7042
  125OSM    H7G13383   2.006   3.010   6.966  1.2222 -0.4880  0.3025
  125OSM    C8F13384   2.066   2.968   7.178  0.0202 -0.4067 -0.0567
  125OSM    H8F13385   2.056   2.858   7.194  0.2026 -0.3266  0.6510
  125OSM    H8G13386   2.014   3.015   7.264  0.4677  1.7020 -0.8863
  125OSM    C9F13387   2.206   3.015   7.184  0.4783 -0.0766  0.0396
  125OSM    H9F13388   2.229   3.094   7.258  1.9086 -2.5797  2.4512
  125OSM   C10F13389   2.300   2.979   7.095  0.5350 -0.2825 -0.6595
  125OSM   H10F13390   2.403   3.007   7.120  0.3624 -1.5897  1.8645
  125OSM   C11F13391   2.280   2.889   6.976 -0.1465  0.2739 -0.4364
  125OSM   H11F13392   2.175   2.854   6.978 -0.1093  0.1897  0.4328
  125OSM   H11G13393   2.352   2.804   6.984 -1.9071 -1.2173  0.4732
  125OSM   C12F13394   2.314   2.967   6.840 -0.3938  0.3046 -0.3757
  125OSM   H12F13395   2.410   3.021   6.851  0.0215 -0.6319  0.8338
  125OSM   H12G13396   2.249   3.056   6.829  1.2564  1.8143  1.4044
  125OSM   C13F13397   2.345   2.880   6.724  0.2009  0.8168  0.2191
  125OSM   H13F13398   2.409   2.791   6.743  1.1407  1.5488  0.5587
  125OSM   H13G13399   2.404   2.939   6.651  0.9162  0.2667  0.3466
  125OSM   C14F13400   2.212   2.834   6.654  0.4726  0.8652  0.2076
  125OSM   H14F13401   2.155   2.786   6.737  2.0313 -0.5083  0.5284
  125OSM   H14G13402   2.228   2.765   6.568  0.5246 -0.8250  1.5085
  125OSM   C15F13403   2.130   2.939   6.581  0.1222 -0.5361  0.3018
  125OSM   H15F13404   2.185   2.980   6.494 -2.5815 -1.4040 -1.9750
  125OSM   H15G13405   2.112   3.011   6.664 -4.3317 -0.8437 -0.1718
  125OSM   C16F13406   1.990   2.888   6.543 -1.4789  0.1880 -0.1946
  125OSM   H16F13407   1.958   2.800   6.602  2.3797 -1.9709 -0.9551
  125OSM   H16G13408   1.994   2.858   6.436  0.7921 -0.5746  0.0371
  125OSM   C17F13409   1.877   2.986   6.557  0.1303  0.6295 -0.2013
  125OSM   H17F13410   1.880   3.067   6.481  0.3626  1.0162  0.2057
  125OSM   H17G13411   1.898   3.040   6.653 -0.6593 -1.4608  1.2120
  125OSM   C18F13412   1.727   2.927   6.563  0.1314 -0.1737 -0.8661
  125OSM   H18F13413   1.691   2.898   6.461 -1.3381 -0.8985 -0.1698
  125OSM   H18G13414   1.661   3.007   6.600  2.6526  1.4533  0.3471
  125OSM   H18H13415   1.713   2.839   6.630 -0.2690  0.4253 -0.1493
  126OSM      N13416   1.304   0.304   6.294  0.4161  0.1519 -0.1248
  126OSM    C1513417   1.345   0.239   6.164 -0.6439 -0.3994 -0.5140
  126OSM   H15A13418   1.338   0.132   6.158 -0.8473 -0.3933 -0.3796
  126OSM   H15B13419   1.450   0.260   6.148 -0.2729 -1.9739 -0.2674
  126OSM   H15C13420   1.293   0.282   6.079  1.8844 -1.6664 -2.9002
  126OSM    C1413421   1.408   0.254   6.397 -1.3492 -0.0961 -0.3000
  126OSM   H14A13422   1.508   0.279   6.364 -0.6545  0.0378  1.7898
  126OSM   H14B13423   1.405   0.146   6.399 -0.7248 -0.2213 -2.5806
  126OSM   H14C13424   1.388   0.286   6.498  0.8472  0.7315 -0.0757
  126OSM    C1313425   1.301   0.455   6.287 -0.5215  0.3141 -0.6472
  126OSM   H13A13426   1.403   0.492   6.290  0.0901 -1.2985 -0.6031
  126OSM   H13B13427   1.258   0.497   6.376  3.3632  0.6804  1.2640
  126OSM   H13C13428   1.246   0.487   6.200  0.5002  1.3340 -0.9473
  126OSM    C1213429   1.162   0.262   6.334 -0.4208  0.2804  1.1109
  126OSM   H12A13430   1.166   0.155   6.342  3.5501  0.3470  2.2061
  126OSM   H12B13431   1.092   0.297   6.260 -0.1021  0.6270  0.9705
  126OSM    C1113432   1.106   0.302   6.475 -0.1780 -0.5332  0.1797
  126OSM   H11A13433   1.181   0.251   6.539  0.2274 -2.6727 -1.8209
  126OSM   H11B13434   1.013   0.247   6.504  0.7380 -0.6420  3.2098
  126OSM      P13435   0.997   0.553   6.483  0.1456  0.2074  0.2751
  126OSM    O1313436   1.048   0.691   6.460  0.0831 -0.0108 -0.0472
  126OSM    O1413437   0.904   0.507   6.376  0.8565 -0.1921 -0.1661
  126OSM    O1113438   0.920   0.552   6.621 -0.2094  0.2487 -0.7431
  126OSM    O1213439   1.109   0.446   6.491  0.5387 -0.0737  0.6314
  126OSM    C1S13440   0.996   0.547   6.738  0.3056  0.3653 -0.2749
  126OSM    H1S13441   1.012   0.649   6.778  6.3097 -1.2827  2.6812
  126OSM    H1T13442   1.100   0.509   6.728 -0.0169 -1.1023  1.5266
  126OSM     NF13443   1.020   0.475   6.978  0.1194 -0.1765  0.0014
  126OSM    HNF13444   1.069   0.396   7.013  0.4064  0.2019  0.4653
  126OSM    C2S13445   0.937   0.465   6.857 -0.5793  0.1846 -0.3471
  126OSM    H2S13446   0.842   0.510   6.892 -1.3651  0.7649 -3.0779
  126OSM    C3S13447   0.908   0.318   6.818 -0.3165 -0.0392 -0.1333
  126OSM    H3S13448   1.004   0.262   6.813 -1.5978 -2.3022 -0.7126
  126OSM     O313449   0.843   0.313   6.692  0.6187 -0.2228  0.3491
  126OSM    HO313450   0.873   0.400   6.666  0.2703  0.3290  1.7177
  126OSM    C4S13451   0.818   0.256   6.922  0.5096 -0.8904 -0.5240
  126OSM    H4S13452   0.722   0.308   6.930  0.4824 -1.1214  0.9710
  126OSM    C5S13453   0.833   0.146   6.984  0.9931 -0.0119  0.2132
  126OSM    H5S13454   0.927   0.093   6.965  0.6372 -0.1385 -1.3635
  126OSM    C6S13455   0.730   0.087   7.074 -0.3981 -0.2004  0.0263
  126OSM    H6S13456   0.708  -0.016   7.038 -0.3118 -0.3413  0.3812
  126OSM    H6T13457   0.635   0.145   7.070  0.4677  1.3323  0.7530
  126OSM    C7S13458   0.771   0.061   7.216  0.2982  0.1335  1.1449
  126OSM    H7S13459   0.815   0.150   7.267  2.8014 -0.8940  0.9250
  126OSM    H7T13460   0.843  -0.023   7.222 -3.0649 -3.1437 -0.4922
  126OSM    C8S13461   0.652   0.031   7.299  0.7300 -0.3588 -0.2285
  126OSM    H8S13462   0.618  -0.075   7.307 -1.0899  0.3020  3.3369
  126OSM    H8T13463   0.565   0.085   7.256  1.2743  0.3341 -0.4666
  126OSM    C9S13464   0.656   0.069   7.442 -0.5643 -0.9772 -0.1785
  126OSM    H9S13465   0.560   0.062   7.497 -1.6185  1.5568 -1.5114
  126OSM    H9T13466   0.676   0.177   7.458 -0.1762 -0.9075 -1.0874
  126OSM   C10S13467   0.767  -0.006   7.520  0.4316 -0.6687  0.6418
  126OSM   H10S13468   0.863   0.021   7.469 -0.6077  2.1614 -0.0207
  126OSM   H10T13469   0.752  -0.115   7.504 -2.4571 -0.3702  0.8348
  126OSM   C11S13470   0.767   0.029   7.669  0.1644  0.7009 -0.1920
  126OSM   H11S13471   0.681  -0.021   7.717 -0.1927  1.8444  0.3995
  126OSM   H11T13472   0.755   0.137   7.691 -0.5225  0.2487  1.9194
  126OSM   C12S13473   0.894  -0.030   7.733  0.0764  0.1456  0.1660
  126OSM   H12S13474   0.979   0.012   7.675  0.9656 -1.3700  0.3191
  126OSM   H12T13475   0.889  -0.137   7.704  1.7499  0.2930 -0.7828
  126OSM   C13S13476   0.900  -0.031   7.886 -0.5467 -0.2889  0.3791
  126OSM   H13S13477   0.806  -0.075   7.924  0.4358 -1.2012  1.8762
  126OSM   H13T13478   0.897   0.077   7.913 -0.4319  0.0051 -0.7451
  126OSM   C14S13479   1.022  -0.098   7.948 -1.0578  0.2921  1.1205
  126OSM   H14S13480   1.109  -0.037   7.917 -1.3203  0.8988  1.5673
  126OSM   H14T13481   1.032  -0.200   7.906 -0.5628 -0.5370  3.1138
  126OSM   C15S13482   1.013  -0.103   8.102  0.0488 -0.8494  0.9345
  126OSM   H15S13483   0.909  -0.111   8.138  0.5716 -0.1579  2.7425
  126OSM   H15T13484   1.053  -0.008   8.146 -1.7120  0.6480 -0.5534
  126OSM   C16S13485   1.100  -0.218   8.155 -0.0750 -0.4030  0.2154
  126OSM   H16S13486   1.072  -0.316   8.110 -0.7252 -0.2732  0.3379
  126OSM   H16T13487   1.093  -0.214   8.266 -0.6716 -2.3155  0.2798
  126OSM   C17S13488   1.249  -0.185   8.124  0.1286  0.7736 -0.4226
  126OSM   H17S13489   1.267  -0.080   8.155 -2.5304  0.6835  1.8482
  126OSM   H17T13490   1.264  -0.191   8.014  0.6287  2.5393 -0.4800
  126OSM   C18S13491   1.353  -0.271   8.198 -0.4270  0.0777  0.4046
  126OSM   H18S13492   1.334  -0.379   8.177 -0.7486  0.3297 -0.6613
  126OSM   H18T13493   1.334  -0.259   8.307  2.0080  2.0057  0.6978
  126OSM   H18U13494   1.450  -0.225   8.169 -0.5952 -0.4619 -1.1198
  126OSM    C1F13495   1.033   0.589   7.049 -0.3638  0.5422  0.3560
  126OSM     OF13496   1.004   0.696   7.001  0.4635 -0.0467 -0.1661
  126OSM    C2F13497   1.085   0.577   7.189 -0.2565 -0.3376  0.1454
  126OSM    H2F13498   1.148   0.662   7.221 -0.3513 -0.2422  0.0769
  126OSM    H2G13499   1.161   0.496   7.197 -0.5159 -0.5630  0.3385
  126OSM    C3F13500   0.963   0.568   7.287  0.2796 -0.4216 -0.0127
  126OSM    H3F13501   0.907   0.472   7.276 -1.2334  0.4616 -0.2331
  126OSM    H3G13502   0.891   0.650   7.269  1.7548  0.9386  0.0852
  126OSM    C4F13503   1.020   0.573   7.433  0.4570  0.0840  0.0629
  126OSM    H4F13504   1.071   0.670   7.447  0.5225 -0.0172  0.5404
  126OSM    H4G13505   1.084   0.483   7.449 -0.8062 -1.6685 -3.5822
  126OSM    C5F13506   0.913   0.572   7.540  0.4097 -0.2643 -0.3345
  126OSM    H5F13507   0.829   0.629   7.495 -1.2400 -3.6961 -2.0304
  126OSM    H5G13508   0.942   0.628   7.631  2.2106 -1.5453 -0.0496
  126OSM    C6F13509   0.867   0.429   7.589  0.8477 -0.3021 -0.1111
  126OSM    H6F13510   0.845   0.358   7.507 -0.2400 -0.6190  0.4443
  126OSM    H6G13511   0.779   0.428   7.656  0.7621  0.5353 -0.1947
  126OSM    C7F13512   0.975   0.361   7.674  0.0712  0.0736  0.4201
  126OSM    H7F13513   1.082   0.380   7.651 -0.0116 -0.7180 -0.6974
  126OSM    H7G13514   0.963   0.251   7.663  2.0414 -0.1561  0.2196
  126OSM    C8F13515   0.953   0.394   7.823 -0.7749 -0.0846  0.1381
  126OSM    H8F13516   0.850   0.361   7.849  0.0213 -1.7652  1.3115
  126OSM    H8G13517   0.969   0.503   7.837  1.5763 -0.6331  2.7015
  126OSM    C9F13518   1.051   0.313   7.903 -0.0856  0.4754  0.2848
  126OSM    H9F13519   1.127   0.269   7.836 -0.1759  1.0291 -0.1814
  126OSM   C10F13520   1.057   0.284   8.036  0.2681 -0.6399 -0.5439
  126OSM   H10F13521   1.149   0.230   8.064  1.3414  0.1493 -2.4011
  126OSM   C11F13522   0.953   0.322   8.142 -0.4591 -0.4161  0.3051
  126OSM   H11F13523   0.853   0.349   8.102 -0.0897  1.0564  0.3223
  126OSM   H11G13524   0.979   0.423   8.182  0.9906  0.5283 -2.6877
  126OSM   C12F13525   0.935   0.244   8.273 -0.3487 -0.0576 -0.0205
  126OSM   H12F13526   0.915   0.141   8.235  1.1619 -0.7697  1.0055
  126OSM   H12G13527   0.852   0.279   8.337  0.0929 -1.9732  1.7155
  126OSM   C13F13528   1.067   0.250   8.353 -0.4428 -0.2215  0.3627
  126OSM   H13F13529   1.093   0.345   8.404 -0.2734 -1.1214  2.0311
  126OSM   H13G13530   1.159   0.225   8.296 -0.0271 -2.1529  1.7719
  126OSM   C14F13531   1.059   0.153   8.473 -0.4025 -0.7008  0.5143
  126OSM   H14F13532   1.054   0.049   8.434 -0.2557 -0.7307  0.5708
  126OSM   H14G13533   0.982   0.178   8.550 -0.2851 -2.1115  1.1231
  126OSM   C15F13534   1.197   0.163   8.548 -0.2938  0.3658  0.2490
  126OSM   H15F13535   1.175   0.133   8.652 -2.1801 -1.4306 -0.5857
  126OSM   H15G13536   1.245   0.263   8.539  1.8906 -0.6922 -0.7968
  126OSM   C16F13537   1.298   0.056   8.510 -0.0670  0.4597  0.3161
  126OSM   H16F13538   1.319   0.074   8.402 -2.3184 -1.5146 -0.5347
  126OSM   H16G13539   1.260  -0.047   8.528 -0.8146  0.7277  0.2701
  126OSM   C17F13540   1.432   0.069   8.582  0.7990 -0.2542  0.7451
  126OSM   H17F13541   1.405   0.035   8.684 -0.1320 -1.2873  0.1729
  126OSM   H17G13542   1.463   0.175   8.577 -1.2696  0.3750 -3.2456
  126OSM   C18F13543   1.533  -0.022   8.515 -0.7493  0.0993  0.3106
  126OSM   H18F13544   1.514  -0.131   8.526  0.6457 -0.0316  1.7167
  126OSM   H18G13545   1.629  -0.008   8.568 -2.9181  2.2068  4.1603
  126OSM   H18H13546   1.542   0.009   8.409 -0.2579  0.1618  0.3667
  127OSM      N13547   2.313   6.363   6.244  0.3112  0.3006 -0.2794
  127OSM    C1513548   2.189   6.458   6.237  0.1972 -0.4478 -1.0733
  127OSM   H15A13549   2.104   6.419   6.183 -0.2919  1.1953 -1.5511
  127OSM   H15B13550   2.217   6.548   6.184 -0.8137 -0.6292 -1.9520
  127OSM   H15C13551   2.149   6.487   6.333 -0.1937 -1.0310 -1.0572
  127OSM    C1413552   2.436   6.432   6.291  0.2158 -0.7365  0.0141
  127OSM   H14A13553   2.523   6.369   6.303  0.3937  0.0086  4.1064
  127OSM   H14B13554   2.417   6.472   6.390 -2.2694  0.7075 -0.9634
  127OSM   H14C13555   2.458   6.513   6.223 -2.1520 -1.8985 -2.3141
  127OSM    C1313556   2.273   6.252   6.336  0.1890  0.5329  0.4052
  127OSM   H13A13557   2.180   6.202   6.312  0.4979  0.9594 -1.9275
  127OSM   H13B13558   2.266   6.305   6.430 -2.1523 -0.9815  1.1701
  127OSM   H13C13559   2.349   6.176   6.333  0.1828  0.0880  4.7467
  127OSM    C1213560   2.323   6.313   6.109  0.0020 -0.0310  0.0165
  127OSM   H12A13561   2.352   6.394   6.043  0.9594 -0.1393  0.2968
  127OSM   H12B13562   2.228   6.269   6.080  0.6184 -1.0948 -0.4500
  127OSM    C1113563   2.425   6.191   6.088 -0.0307  1.0520 -0.0158
  127OSM   H11A13564   2.519   6.211   6.145  0.1636 -1.0262  0.4683
  127OSM   H11B13565   2.450   6.180   5.981  2.5435  0.5505  0.5567
  127OSM      P13566   2.266   5.988   6.080 -0.5123  0.3635  0.5018
  127OSM    O1313567   2.172   6.082   6.021 -1.3295  0.0342 -0.0434
  127OSM    O1413568   2.329   5.900   5.976 -0.1871  0.0452 -0.2968
  127OSM    O1113569   2.197   5.915   6.198  0.1133  0.5035 -0.5320
  127OSM    O1213570   2.377   6.076   6.152  0.0524  0.2020  0.3893
  127OSM    C1S13571   2.240   5.804   6.280  0.5152 -0.4938 -0.4483
  127OSM    H1S13572   2.348   5.785   6.262  0.4239 -1.0467 -0.4249
  127OSM    H1T13573   2.185   5.710   6.259  0.9525 -0.4014 -2.1701
  127OSM     NF13574   2.275   5.717   6.512 -0.3475 -0.4271  1.0543
  127OSM    HNF13575   2.210   5.670   6.571  1.2778 -2.5609  1.2924
  127OSM    C2S13576   2.232   5.831   6.438  0.3034 -0.2855  0.4473
  127OSM    H2S13577   2.296   5.919   6.460 -0.0185  0.0102  0.2217
  127OSM    C3S13578   2.093   5.867   6.473  0.2581 -0.0512 -0.3291
  127OSM    H3S13579   2.033   5.773   6.477 -1.7490  1.2008  1.2569
  127OSM     O313580   2.031   5.966   6.394  0.2262  0.2289  0.4081
  127OSM    HO313581   2.087   5.952   6.317 -1.2593 -5.2231 -0.0809
  127OSM    C4S13582   2.094   5.905   6.623  0.0777  0.4073  0.4641
  127OSM    H4S13583   2.050   5.830   6.690 -2.3340  1.6002  0.3204
  127OSM    C5S13584   2.139   6.020   6.675 -0.2493  0.8518 -0.4358
  127OSM    H5S13585   2.172   6.095   6.602 -1.2635 -0.6357 -2.5360
  127OSM    C6S13586   2.182   6.030   6.817 -0.3048 -0.4939 -0.1951
  127OSM    H6S13587   2.098   6.081   6.868 -0.4911 -1.2650  0.2858
  127OSM    H6T13588   2.266   6.100   6.836 -0.6671 -0.3418  0.9180
  127OSM    C7S13589   2.198   5.892   6.891  0.1757  0.6101  0.1341
  127OSM    H7S13590   2.271   5.826   6.840  0.5191  1.1555 -0.0890
  127OSM    H7T13591   2.094   5.853   6.894 -2.3959  6.2339 -2.1041
  127OSM    C8S13592   2.249   5.928   7.034  0.3050 -0.6622 -0.8487
  127OSM    H8S13593   2.164   5.969   7.093 -0.0929 -3.5030  0.7187
  127OSM    H8T13594   2.328   6.004   7.014  0.7405 -1.5403 -2.7407
  127OSM    C9S13595   2.314   5.810   7.105  0.5609  0.5639 -0.3982
  127OSM    H9S13596   2.396   5.776   7.038  0.4556 -0.5156 -0.0040
  127OSM    H9T13597   2.236   5.731   7.115  2.7461 -1.7608 -0.4775
  127OSM   C10S13598   2.365   5.838   7.248  0.1023 -0.1127  0.0215
  127OSM   H10S13599   2.273   5.859   7.308  0.6355 -1.0996  1.2362
  127OSM   H10T13600   2.419   5.934   7.262  0.5815 -0.5793  1.6253
  127OSM   C11S13601   2.428   5.714   7.307  0.2310 -0.2655  0.2373
  127OSM   H11S13602   2.525   5.717   7.253 -0.9685  1.6698 -1.9986
  127OSM   H11T13603   2.361   5.630   7.279 -0.9960  1.2838 -1.8493
  127OSM   C12S13604   2.449   5.726   7.454 -0.5573 -0.1684 -0.1519
  127OSM   H12S13605   2.358   5.711   7.516 -1.1716  1.7676 -0.5240
  127OSM   H12T13606   2.485   5.828   7.480 -0.9840 -0.7191  2.9091
  127OSM   C13S13607   2.545   5.610   7.505 -0.0366 -0.0463 -0.1917
  127OSM   H13S13608   2.648   5.624   7.466 -0.0261 -1.3773 -0.6974
  127OSM   H13T13609   2.499   5.520   7.458  0.0646  0.9029 -2.1999
  127OSM   C14S13610   2.560   5.597   7.658 -0.6042  0.1487 -1.1198
  127OSM   H14S13611   2.580   5.694   7.707  0.2067  0.2696 -1.6718
  127OSM   H14T13612   2.647   5.531   7.679 -3.0445 -2.9433  0.1637
  127OSM   C15S13613   2.446   5.527   7.729 -0.1229 -0.3181 -0.5927
  127OSM   H15S13614   2.451   5.416   7.721 -0.1295 -0.6820  2.9168
  127OSM   H15T13615   2.352   5.556   7.678  0.9543 -0.9393 -3.0926
  127OSM   C16S13616   2.438   5.567   7.874  0.3742  0.3150 -0.4484
  127OSM   H16S13617   2.412   5.675   7.884 -1.8908 -0.1658 -0.6228
  127OSM   H16T13618   2.544   5.563   7.907 -0.4267  1.1563  2.5139
  127OSM   C17S13619   2.353   5.478   7.968 -0.3700 -0.8310 -0.4198
  127OSM   H17S13620   2.393   5.375   7.956  2.0741  0.3204 -3.4706
  127OSM   H17T13621   2.249   5.484   7.929 -0.5033 -1.1921 -0.1222
  127OSM   C18S13622   2.350   5.520   8.112  0.2019  0.0825  0.5377
  127OSM   H18S13623   2.279   5.460   8.173 -1.5684  0.5265 -0.9911
  127OSM   H18T13624   2.322   5.625   8.133 -1.4064  0.1176 -1.5072
  127OSM   H18U13625   2.450   5.503   8.158 -0.4728  1.5269  2.6670
  127OSM    C1F13626   2.405   5.670   6.511  0.2318 -0.1841 -0.0693
  127OSM     OF13627   2.503   5.706   6.447 -0.1151 -0.1781 -0.2674
  127OSM    C2F13628   2.415   5.542   6.590 -0.5861  0.6677 -0.0891
  127OSM    H2F13629   2.413   5.469   6.506 -2.3894  2.4291 -1.6746
  127OSM    H2G13630   2.324   5.536   6.653  1.4077  0.7749  3.0421
  127OSM    C3F13631   2.535   5.538   6.685 -0.2413  0.5371 -0.6682
  127OSM    H3F13632   2.633   5.531   6.633  0.0839 -2.0778  0.1455
  127OSM    H3G13633   2.533   5.442   6.741 -1.6667  2.0575  2.0890
  127OSM    C4F13634   2.534   5.649   6.797  0.1963  0.0984  0.3559
  127OSM    H4F13635   2.460   5.634   6.878 -0.0938  0.6481  0.1939
  127OSM    H4G13636   2.506   5.742   6.743  0.1787 -0.4332 -0.5748
  127OSM    C5F13637   2.672   5.655   6.868 -0.7187  0.2022 -0.2460
  127OSM    H5F13638   2.682   5.747   6.930  2.6584 -0.6858  0.7211
  127OSM    H5G13639   2.757   5.650   6.797  0.8161 -3.3483  1.5700
  127OSM    C6F13640   2.684   5.540   6.966  0.5483  0.6675  0.7675
  127OSM    H6F13641   2.687   5.443   6.911  0.6429  0.8135  0.5128
  127OSM    H6G13642   2.590   5.529   7.024  0.7779 -0.3924  0.9612
  127OSM    C7F13643   2.810   5.546   7.060 -0.1185 -0.1481 -0.5537
  127OSM    H7F13644   2.797   5.631   7.131 -1.1486 -0.1467 -0.7275
  127OSM    H7G13645   2.892   5.573   6.990 -2.3806  1.7719 -2.6324
  127OSM    C8F13646   2.842   5.406   7.128 -0.0694  0.3239 -0.0291
  127OSM    H8F13647   2.845   5.327   7.050  2.5714  0.2176  0.0892
  127OSM    H8G13648   2.753   5.376   7.188  0.1603  1.0490  0.6961
  127OSM    C9F13649   2.974   5.411   7.203  0.0441  0.0409  0.5722
  127OSM    H9F13650   3.056   5.455   7.145 -2.3074  3.8070 -0.2131
  127OSM   C10F13651   2.994   5.369   7.329  0.7025  0.1895  0.2753
  127OSM   H10F13652   3.099   5.378   7.361  1.7212 -1.3584 -2.3293
  127OSM   C11F13653   2.886   5.318   7.431  0.2378 -0.4031  0.2938
  127OSM   H11F13654   2.908   5.225   7.488  0.5479  0.0710  0.9568
  127OSM   H11G13655   2.787   5.296   7.384  1.4419 -4.1099 -0.8142
  127OSM   C12F13656   2.852   5.421   7.539 -0.1664 -0.4057 -0.0161
  127OSM   H12F13657   2.760   5.386   7.591  1.1357 -3.1422  0.6243
  127OSM   H12G13658   2.838   5.527   7.507  1.6604  0.0214  0.4745
  127OSM   C13F13659   2.956   5.437   7.664 -0.4051 -0.2789 -0.0583
  127OSM   H13F13660   2.955   5.546   7.682  0.2238 -0.7114  3.1373
  127OSM   H13G13661   3.058   5.409   7.630 -1.4590 -2.0024 -2.0340
  127OSM   C14F13662   2.922   5.341   7.778 -0.5857 -0.1852  0.0260
  127OSM   H14F13663   2.938   5.235   7.749 -0.0700 -0.5517  1.5693
  127OSM   H14G13664   2.822   5.359   7.823 -0.0773  2.4033  0.3080
  127OSM   C15F13665   3.012   5.361   7.905 -0.1340  0.1802  0.6688
  127OSM   H15F13666   2.987   5.464   7.940 -0.3568  1.6136 -3.2841
  127OSM   H15G13667   3.117   5.379   7.875  0.3482 -0.4633  1.9077
  127OSM   C16F13668   2.980   5.259   8.009  0.0557  0.3718 -0.4963
  127OSM   H16F13669   3.029   5.163   7.982 -0.6152  0.0934 -0.7555
  127OSM   H16G13670   2.873   5.230   8.008  0.5208 -1.4712 -1.1376
  127OSM   C17F13671   3.008   5.305   8.152 -0.4574 -0.1891 -0.7456
  127OSM   H17F13672   2.972   5.232   8.228 -1.9110  0.5217 -0.7109
  127OSM   H17G13673   2.945   5.396   8.166  0.5781  0.6601 -1.5056
  127OSM   C18F13674   3.152   5.336   8.179 -0.1304 -0.1119 -0.3642
  127OSM   H18F13675   3.170   5.344   8.289  0.5645 -1.1203 -0.3920
  127OSM   H18G13676   3.177   5.433   8.130  0.8996 -1.0767 -1.7982
  127OSM   H18H13677   3.217   5.254   8.142  1.2259  0.4528  0.6877
  128OSM      N13678   3.105   4.140   5.937  0.2665 -0.4489 -0.2000
  128OSM    C1513679   3.168   4.005   5.951  0.4105 -0.1195  0.4865
  128OSM   H15A13680   3.275   4.015   5.947  0.3271  0.4622 -0.5588
  128OSM   H15B13681   3.142   3.945   5.865  3.3011 -0.4987 -0.2266
  128OSM   H15C13682   3.140   3.953   6.042 -1.6923  0.7226  0.3737
  128OSM    C1413683   3.156   4.202   5.817  0.0248 -0.2145  0.6184
  128OSM   H14A13684   3.257   4.239   5.828 -0.1535  1.2437 -1.8439
  128OSM   H14B13685   3.097   4.287   5.785 -2.7158 -2.0617  0.4993
  128OSM   H14C13686   3.144   4.127   5.740 -1.7406  0.0666  0.5945
  128OSM    C1313687   2.951   4.114   5.923  0.1269  0.0165 -0.6131
  128OSM   H13A13688   2.920   4.037   5.993 -0.8846  0.9853  0.0322
  128OSM   H13B13689   2.927   4.080   5.824  2.0445  0.9451 -1.4508
  128OSM   H13C13690   2.888   4.199   5.944 -0.1438 -0.1474 -0.7600
  128OSM    C1213691   3.135   4.231   6.060  0.0976 -0.1000 -0.1661
  128OSM   H12A13692   3.097   4.328   6.030  0.5289 -0.5986 -2.5726
  128OSM   H12B13693   3.242   4.238   6.067  0.1231 -1.5194  1.4235
  128OSM    C1113694   3.075   4.195   6.195  0.4146 -0.1638  0.1112
  128OSM   H11A13695   3.120   4.241   6.286  0.1215 -0.0366  0.1944
  128OSM   H11B13696   3.077   4.085   6.208 -0.9671 -0.3152 -0.7798
  128OSM      P13697   2.881   4.371   6.227 -0.0625  0.0996  0.1034
  128OSM    O1313698   2.973   4.463   6.155 -0.2108  0.3392  0.1507
  128OSM    O1413699   2.730   4.378   6.203 -0.0381  0.7016  0.7599
  128OSM    O1113700   2.897   4.389   6.379 -0.0933  0.3391  0.3017
  128OSM    O1213701   2.932   4.222   6.192  0.4916  0.3006 -0.1266
  128OSM    C1S13702   2.839   4.298   6.469 -0.0871  0.1759  0.5550
  128OSM    H1S13703   2.884   4.199   6.443 -1.4372 -0.2522 -0.2631
  128OSM    H1T13704   2.732   4.280   6.445  0.4598 -1.5981 -0.7885
  128OSM     NF13705   2.821   4.249   6.702 -0.2301  0.5962 -0.1922
  128OSM    HNF13706   2.747   4.270   6.765 -2.1824 -3.1484 -0.9002
  128OSM    C2S13707   2.869   4.352   6.610  0.4657 -0.2255  0.3596
  128OSM    H2S13708   2.978   4.367   6.624  0.1601  1.5861  1.0084
  128OSM    C3S13709   2.817   4.498   6.626  0.1609  0.1081 -0.1260
  128OSM    H3S13710   2.709   4.485   6.606  0.2013  0.0685 -0.3208
  128OSM     O313711   2.869   4.598   6.533 -0.4112  0.4175 -0.6370
  128OSM    HO313712   2.917   4.544   6.470  2.0531  1.2691  0.4086
  128OSM    C4S13713   2.853   4.550   6.764  0.2356 -0.2136 -0.1791
  128OSM    H4S13714   2.951   4.510   6.796 -0.5511 -2.7006 -0.6682
  128OSM    C5S13715   2.767   4.618   6.845  0.5778 -0.1293 -0.6523
  128OSM    H5S13716   2.665   4.641   6.810  0.7719  2.9023  0.5006
  128OSM    C6S13717   2.800   4.645   6.982 -0.2583 -0.0281  0.2045
  128OSM    H6S13718   2.837   4.750   6.994 -0.7613  0.3087 -1.0139
  128OSM    H6T13719   2.894   4.599   7.020  0.5399  0.5855 -0.9587
  128OSM    C7S13720   2.686   4.601   7.076 -0.4711 -0.3383 -0.1871
  128OSM    H7S13721   2.665   4.494   7.055  2.2088 -0.6721 -1.5217
  128OSM    H7T13722   2.602   4.673   7.066 -0.1830  0.5596  2.7862
  128OSM    C8S13723   2.726   4.628   7.229  0.1928  1.1209 -0.1710
  128OSM    H8S13724   2.722   4.738   7.240 -0.1047  0.8866  3.4904
  128OSM    H8T13725   2.827   4.582   7.237 -1.2009 -2.2135  0.0214
  128OSM    C9S13726   2.624   4.568   7.323 -0.5232 -0.5836 -0.6855
  128OSM    H9S13727   2.675   4.568   7.422  0.9027  0.7990 -1.3825
  128OSM    H9T13728   2.602   4.462   7.300 -1.3757 -0.7280  0.7015
  128OSM   C10S13729   2.492   4.641   7.326 -0.0346  0.7659  0.0852
  128OSM   H10S13730   2.437   4.632   7.229 -1.8347  1.2393  1.0133
  128OSM   H10T13731   2.518   4.747   7.343  1.2942 -0.0148  3.6482
  128OSM   C11S13732   2.401   4.583   7.434  0.5567  0.2030  0.1174
  128OSM   H11S13733   2.405   4.472   7.421  3.5359 -0.0301  2.0872
  128OSM   H11T13734   2.302   4.630   7.418  2.4975  3.9876 -2.1240
  128OSM   C12S13735   2.444   4.606   7.582 -0.1212 -0.5326 -0.6540
  128OSM   H12S13736   2.444   4.717   7.594  0.0627 -0.6100  0.0656
  128OSM   H12T13737   2.551   4.578   7.597  0.7393  1.2314 -2.7930
  128OSM   C13S13738   2.346   4.539   7.687 -0.0521  0.8883 -0.2096
  128OSM   H13S13739   2.330   4.443   7.634 -1.6557  0.7544  0.4574
  128OSM   H13T13740   2.250   4.595   7.689 -1.3083 -1.1308  1.0245
  128OSM   C14S13741   2.395   4.531   7.833  0.0552  0.3045  0.8032
  128OSM   H14S13742   2.385   4.628   7.887 -0.4961  0.5398  0.2916
  128OSM   H14T13743   2.502   4.505   7.814 -0.5310 -1.5244 -0.2690
  128OSM   C15S13744   2.314   4.420   7.904 -0.2625  0.2752 -0.3427
  128OSM   H15S13745   2.335   4.323   7.855  1.4096 -1.3993  3.2999
  128OSM   H15T13746   2.205   4.441   7.905 -0.3758 -0.3081 -0.2936
  128OSM   C16S13747   2.357   4.398   8.049  0.8571 -0.4016 -0.5343
  128OSM   H16S13748   2.285   4.328   8.097  0.2198  0.5285 -0.1143
  128OSM   H16T13749   2.359   4.497   8.099 -0.1997 -0.1972 -0.8697
  128OSM   C17S13750   2.496   4.332   8.064  0.3760 -0.1723  0.0410
  128OSM   H17S13751   2.578   4.380   8.007 -0.2553 -0.3703 -1.0563
  128OSM   H17T13752   2.491   4.231   8.018 -1.8029  0.4689 -1.2739
  128OSM   C18S13753   2.543   4.315   8.213 -0.1942 -0.0738  0.2175
  128OSM   H18S13754   2.455   4.287   8.275  0.1832 -1.5846  0.0920
  128OSM   H18T13755   2.571   4.416   8.251 -2.3425  0.4734  0.4800
  128OSM   H18U13756   2.628   4.244   8.214 -1.3576 -1.5676 -0.8043
  128OSM    C1F13757   2.872   4.123   6.706  0.1721 -0.0057 -0.2297
  128OSM     OF13758   2.976   4.100   6.652  0.2929 -0.0068 -0.3905
  128OSM    C2F13759   2.804   4.018   6.786  0.3602  0.1277  0.6165
  128OSM    H2F13760   2.881   3.958   6.839 -0.9342  0.8206  3.4795
  128OSM    H2G13761   2.753   3.947   6.717  0.3218  1.0857 -0.3758
  128OSM    C3F13762   2.696   4.073   6.879 -0.1951  0.0709  0.1108
  128OSM    H3F13763   2.633   3.989   6.917 -3.6312  2.7642  0.9016
  128OSM    H3G13764   2.611   4.127   6.833  0.8533 -0.5523 -2.7314
  128OSM    C4F13765   2.745   4.148   7.004 -0.8066  0.0800  0.5104
  128OSM    H4F13766   2.644   4.167   7.048 -0.9868 -2.2503  1.2154
  128OSM    H4G13767   2.794   4.246   6.983 -0.1416  0.0300  1.7714
  128OSM    C5F13768   2.834   4.065   7.103 -0.4097  0.3488  0.0633
  128OSM    H5F13769   2.927   4.043   7.047 -1.3680  1.0628 -1.9200
  128OSM    H5G13770   2.795   3.964   7.124 -0.5018  0.7735  2.1571
  128OSM    C6F13771   2.858   4.137   7.229  0.2157  0.8579 -0.0059
  128OSM    H6F13772   2.870   4.243   7.199 -5.7345  1.5892 -0.9365
  128OSM    H6G13773   2.945   4.090   7.281  0.3541 -0.5114 -1.3946
  128OSM    C7F13774   2.734   4.131   7.320 -0.4557 -0.7564  0.6947
  128OSM    H7F13775   2.694   4.030   7.343  0.7832 -1.0075  1.8527
  128OSM    H7G13776   2.656   4.186   7.263 -0.0707 -0.7158  0.1965
  128OSM    C8F13777   2.767   4.210   7.451  0.2304 -0.0213  0.4929
  128OSM    H8F13778   2.815   4.310   7.444  3.5296 -1.3945  1.3063
  128OSM    H8G13779   2.848   4.153   7.501  0.8253  0.9423  0.6667
  128OSM    C9F13780   2.643   4.247   7.529  0.1779  0.4099 -0.6742
  128OSM    H9F13781   2.576   4.323   7.487 -3.3379  0.2918  3.9979
  128OSM   C10F13782   2.619   4.196   7.650 -0.5348 -0.2862  0.2642
  128OSM   H10F13783   2.522   4.214   7.698 -0.0014 -2.8368  2.5911
  128OSM   C11F13784   2.703   4.092   7.725  0.4473 -0.2682  0.1518
  128OSM   H11F13785   2.800   4.071   7.674  2.1204 -0.3881  3.1165
  128OSM   H11G13786   2.649   3.995   7.730  0.8917 -0.4612  2.2922
  128OSM   C12F13787   2.755   4.136   7.861  0.4106 -0.7323 -0.7403
  128OSM   H12F13788   2.674   4.118   7.935  0.5027  1.3061 -0.0743
  128OSM   H12G13789   2.772   4.246   7.864 -3.2890 -0.0346 -1.2776
  128OSM   C13F13790   2.877   4.053   7.901 -0.9800  0.1561 -0.7377
  128OSM   H13F13791   2.967   4.090   7.848 -0.5474  0.0466 -0.0786
  128OSM   H13G13792   2.863   3.945   7.878  0.7076  0.0097 -1.2416
  128OSM   C14F13793   2.901   4.072   8.052  0.0422 -0.0163 -0.0703
  128OSM   H14F13794   2.886   4.175   8.090  0.3717 -0.1841  0.5330
  128OSM   H14G13795   3.008   4.057   8.077 -0.3238 -1.0271  0.9833
  128OSM   C15F13796   2.810   3.979   8.139 -0.3824  0.0601  0.2748
  128OSM   H15F13797   2.845   3.877   8.113  0.7929  0.6810 -0.6645
  128OSM   H15G13798   2.708   3.985   8.095 -0.5666 -1.3162  0.4679
  128OSM   C16F13799   2.820   4.009   8.290  0.5199 -0.1634  0.7289
  128OSM   H16F13800   2.801   4.117   8.302 -0.8820 -0.5867  2.8734
  128OSM   H16G13801   2.920   3.993   8.337  0.5127 -1.0781  0.4626
  128OSM   C17F13802   2.707   3.934   8.367 -0.7594 -0.2891  0.5134
  128OSM   H17F13803   2.615   3.987   8.334  0.5759  1.7148 -0.1556
  128OSM   H17G13804   2.712   3.950   8.476  0.4326 -2.6095  0.8583
  128OSM   C18F13805   2.687   3.789   8.330 -0.1493  0.1534 -0.4220
  128OSM   H18F13806   2.598   3.750   8.384 -0.1141  0.4423 -0.1511
  128OSM   H18G13807   2.779   3.733   8.358  0.6153  2.2466  1.5740
  128OSM   H18H13808   2.670   3.776   8.221 -1.5631  0.7200 -0.2976
  129OSM      N13809   1.141   5.714   6.099 -0.0932  0.4024  0.7073
  129OSM    C1513810   1.132   5.675   5.951  0.2518 -0.2097 -0.1707
  129OSM   H15A13811   1.229   5.674   5.903  1.3389  0.5266  1.8721
  129OSM   H15B13812   1.082   5.752   5.895  2.4745 -0.8261 -3.2581
  129OSM   H15C13813   1.101   5.572   5.948  0.0710 -0.2825  2.1213
  129OSM    C1413814   1.262   5.644   6.150 -0.2336 -0.3142 -0.3039
  129OSM   H14A13815   1.288   5.682   6.248 -0.5260 -0.5577 -0.1294
  129OSM   H14B13816   1.351   5.674   6.097  0.8837  0.5145  1.8806
  129OSM   H14C13817   1.248   5.537   6.144 -0.8173 -0.2516 -0.1445
  129OSM    C1313818   1.164   5.857   6.107 -0.3380  0.5512 -0.2548
  129OSM   H13A13819   1.081   5.923   6.087  0.5136  1.4625 -0.9108
  129OSM   H13B13820   1.256   5.895   6.063 -0.1175  1.9142  1.2951
  129OSM   H13C13821   1.172   5.883   6.212  0.8193 -0.8989  0.0528
  129OSM    C1213822   1.016   5.679   6.179 -0.5330  0.1185  0.4797
  129OSM   H12A13823   0.999   5.572   6.174  0.6630 -0.1659  1.6377
  129OSM   H12B13824   0.931   5.725   6.132 -0.7144 -1.5371 -0.9009
  129OSM    C1113825   1.020   5.725   6.327  0.3061 -0.4143  0.1182
  129OSM   H11A13826   1.121   5.705   6.370 -0.4993 -0.9114  1.8761
  129OSM   H11B13827   0.953   5.665   6.391  0.5781 -0.1463  0.6601
  129OSM      P13828   0.855   5.926   6.324  0.3116  0.0636  0.6536
  129OSM    O1313829   0.866   6.076   6.323 -0.3591 -0.0379 -0.3331
  129OSM    O1413830   0.793   5.870   6.206 -0.4582 -0.0289  0.3811
  129OSM    O1113831   0.778   5.874   6.456 -0.1578 -1.2005 -0.2187
  129OSM    O1213832   1.000   5.863   6.341  0.4070 -0.1469 -0.0767
  129OSM    C1S13833   0.838   5.861   6.586 -0.2765  0.2095 -0.9392
  129OSM    H1S13834   0.857   5.961   6.630  0.0841 -0.0555 -0.4727
  129OSM    H1T13835   0.936   5.808   6.583 -1.2147 -1.8576  1.2451
  129OSM     NF13836   0.797   5.788   6.827  0.1611  0.1489  0.2660
  129OSM    HNF13837   0.859   5.717   6.857  0.0436 -2.6902 -5.0303
  129OSM    C2S13838   0.752   5.778   6.693  0.1435  0.0172 -0.0145
  129OSM    H2S13839   0.647   5.813   6.685 -0.1139 -0.2100  1.9274
  129OSM    C3S13840   0.745   5.630   6.646  0.4196 -0.8171  0.8520
  129OSM    H3S13841   0.846   5.585   6.656  0.4506 -0.6147  1.5069
  129OSM     O313842   0.703   5.618   6.511 -0.0579 -0.0541  0.4389
  129OSM    HO313843   0.720   5.707   6.480  1.1081 -0.3936  0.0717
  129OSM    C4S13844   0.651   5.553   6.738 -0.0079 -0.0217  0.4270
  129OSM    H4S13845   0.701   5.504   6.823  3.8120  2.8404  0.1104
  129OSM    C5S13846   0.522   5.522   6.709 -0.4284  0.1179 -0.0886
  129OSM    H5S13847   0.479   5.558   6.614  1.3020  3.0746  0.1229
  129OSM    C6S13848   0.435   5.429   6.795 -0.1431  0.0176 -0.0551
  129OSM    H6S13849   0.409   5.346   6.726  0.0245 -0.2890  0.2470
  129OSM    H6T13850   0.346   5.493   6.814  1.2142  2.1315 -0.4511
  129OSM    C7S13851   0.491   5.362   6.925 -0.4215  0.3178  0.0180
  129OSM    H7S13852   0.594   5.319   6.922 -0.1571  0.8542  1.0064
  129OSM    H7T13853   0.418   5.279   6.934 -0.9076  0.6675 -0.6179
  129OSM    C8S13854   0.485   5.461   7.044  0.2990 -0.0413 -0.1365
  129OSM    H8S13855   0.378   5.487   7.056  0.3306 -1.1679  3.9624
  129OSM    H8T13856   0.547   5.546   7.009  1.6907 -0.6365  0.8092
  129OSM    C9S13857   0.522   5.396   7.174 -0.7263  0.2266 -0.1733
  129OSM    H9S13858   0.619   5.348   7.151 -1.2624 -0.8902 -0.1666
  129OSM    H9T13859   0.446   5.320   7.201  0.7454 -1.5476 -0.8087
  129OSM   C10S13860   0.555   5.493   7.288  0.6201 -0.1010  0.9108
  129OSM   H10S13861   0.456   5.537   7.311 -1.2918 -2.0927 -2.6619
  129OSM   H10T13862   0.620   5.575   7.253 -0.3174  2.7502  5.1156
  129OSM   C11S13863   0.628   5.423   7.404 -0.3817  0.1120  0.3003
  129OSM   H11S13864   0.733   5.413   7.368 -0.4177  1.7452 -0.3299
  129OSM   H11T13865   0.598   5.316   7.414  2.0309 -0.9503 -2.3829
  129OSM   C12S13866   0.632   5.506   7.533 -0.5149  0.2153 -0.9289
  129OSM   H12S13867   0.625   5.609   7.493 -0.2925  1.4249  1.9119
  129OSM   H12T13868   0.728   5.489   7.587 -1.6692 -1.8504  0.6490
  129OSM   C13S13869   0.508   5.462   7.631 -0.0981 -0.7182  0.0171
  129OSM   H13S13870   0.504   5.356   7.663 -0.4021 -0.6965  0.0482
  129OSM   H13T13871   0.410   5.481   7.583 -0.4360  1.4125  1.3745
  129OSM   C14S13872   0.502   5.543   7.761  0.0989  0.2926 -0.1750
  129OSM   H14S13873   0.422   5.498   7.824 -0.0596 -0.0385 -0.6074
  129OSM   H14T13874   0.466   5.648   7.750 -3.9616 -1.1651 -3.5070
  129OSM   C15S13875   0.632   5.542   7.851  0.1785  0.0389 -0.4079
  129OSM   H15S13876   0.700   5.615   7.802  0.5860  0.4305  0.6949
  129OSM   H15T13877   0.663   5.435   7.844  0.0883  0.0442 -0.8819
  129OSM   C16S13878   0.603   5.592   7.989  0.0658 -0.4720 -0.4074
  129OSM   H16S13879   0.587   5.701   7.977 -1.7777 -0.7566 -0.7607
  129OSM   H16T13880   0.690   5.587   8.059 -0.5949  1.5739  0.6375
  129OSM   C17S13881   0.480   5.524   8.078 -0.2007 -0.2006 -0.5327
  129OSM   H17S13882   0.449   5.437   8.016 -1.8802 -1.6312  2.1649
  129OSM   H17T13883   0.395   5.595   8.068  0.9270  1.4312  0.8792
  129OSM   C18S13884   0.502   5.513   8.229 -0.1815  0.3799 -0.1603
  129OSM   H18S13885   0.598   5.461   8.251 -0.5856  0.1232  1.1407
  129OSM   H18T13886   0.423   5.455   8.282  0.0729 -1.4660 -1.7113
  129OSM   H18U13887   0.509   5.613   8.277 -2.7406  2.0058 -2.8339
  129OSM    C1F13888   0.772   5.892   6.904 -0.1907 -0.4089 -0.3435
  129OSM     OF13889   0.714   5.990   6.864  0.6606  0.0918 -0.1513
  129OSM    C2F13890   0.820   5.878   7.050  0.7478  0.0993  0.3191
  129OSM    H2F13891   0.896   5.797   7.055 -0.3369 -1.0553 -0.9566
  129OSM    H2G13892   0.733   5.827   7.097  0.5560 -1.1321 -1.2617
  129OSM    C3F13893   0.862   6.013   7.112  0.4515  0.5779 -0.2669
  129OSM    H3F13894   0.773   6.081   7.110 -0.7686 -0.9825 -1.5854
  129OSM    H3G13895   0.921   6.067   7.035  2.2444 -1.9027 -0.7490
  129OSM    C4F13896   0.921   5.998   7.254 -0.3300  0.1148  0.3140
  129OSM    H4F13897   0.934   6.102   7.290 -0.7744  0.2429  0.1068
  129OSM    H4G13898   1.021   5.950   7.244 -0.9400 -1.3504  0.8678
  129OSM    C5F13899   0.845   5.915   7.358  0.1029  0.3196  0.8815
  129OSM    H5F13900   0.841   5.809   7.325  0.3093  0.8148 -0.8548
  129OSM    H5G13901   0.739   5.949   7.359  0.1756  1.2589 -3.3724
  129OSM    C6F13902   0.914   5.906   7.494  1.1128  0.1421  0.1541
  129OSM    H6F13903   0.905   6.004   7.547  3.3042  0.3475  0.2371
  129OSM    H6G13904   1.022   5.886   7.481  1.3520  1.0347  0.6466
  129OSM    C7F13905   0.851   5.790   7.578  0.4444  0.3816  0.7399
  129OSM    H7F13906   0.858   5.689   7.533  0.8132  0.0896  1.4379
  129OSM    H7G13907   0.742   5.806   7.592  0.2137  0.2015 -0.7452
  129OSM    C8F13908   0.909   5.799   7.718  0.1098  0.2410 -1.0373
  129OSM    H8F13909   0.873   5.705   7.764  2.8927  0.2164  1.3406
  129OSM    H8G13910   0.858   5.878   7.777 -0.9772 -1.3871  0.2807
  129OSM    C9F13911   1.060   5.800   7.721 -0.9264 -0.2837  0.1883
  129OSM    H9F13912   1.107   5.704   7.696  1.2722  0.8236 -0.2609
  129OSM   C10F13913   1.134   5.912   7.741 -0.2875 -0.2566  0.2382
  129OSM   H10F13914   1.243   5.908   7.738 -0.3543 -2.2484 -1.6293
  129OSM   C11F13915   1.092   6.052   7.770 -0.3674  0.0174 -1.3355
  129OSM   H11F13916   0.984   6.059   7.792 -0.4042 -1.9712 -0.5933
  129OSM   H11G13917   1.128   6.116   7.687 -0.8477 -2.5426 -3.6802
  129OSM   C12F13918   1.159   6.094   7.903 -0.4821  0.1566  0.7897
  129OSM   H12F13919   1.125   6.196   7.931 -0.4809  0.2469  0.4652
  129OSM   H12G13920   1.268   6.094   7.881 -1.2597 -1.0546 -4.4324
  129OSM   C13F13921   1.110   6.019   8.034  0.3555  0.6182  0.8164
  129OSM   H13F13922   1.129   5.914   8.005 -0.1972  0.9680 -0.9162
  129OSM   H13G13923   1.000   6.026   8.050  0.2311  2.9929 -0.5207
  129OSM   C14F13924   1.179   6.045   8.171  0.1365 -0.5962  0.7005
  129OSM   H14F13925   1.289   6.056   8.167 -0.0162  0.8848 -0.0660
  129OSM   H14G13926   1.161   5.964   8.244  2.4296 -0.8548  1.0474
  129OSM   C15F13927   1.109   6.167   8.233 -0.4583  1.1776 -0.1236
  129OSM   H15F13928   0.998   6.159   8.236 -0.4121  0.7104  2.4360
  129OSM   H15G13929   1.129   6.261   8.177 -1.2479  2.2723  1.3439
  129OSM   C16F13930   1.151   6.189   8.381 -0.0356 -0.0838  0.1199
  129OSM   H16F13931   1.262   6.195   8.381  0.1282 -2.1343  1.7561
  129OSM   H16G13932   1.117   6.109   8.450 -0.7294 -0.7818 -1.0060
  129OSM   C17F13933   1.093   6.320   8.442 -0.6471 -0.0023  0.4962
  129OSM   H17F13934   0.985   6.329   8.421 -0.7124 -0.6001  0.5689
  129OSM   H17G13935   1.135   6.409   8.390  1.6155  0.9743  3.6755
  129OSM   C18F13936   1.119   6.323   8.593  0.6037  0.0125  0.2693
  129OSM   H18F13937   1.225   6.310   8.621  0.7529 -3.2737 -1.3053
  129OSM   H18G13938   1.061   6.239   8.637 -0.2340  1.2746  1.6825
  129OSM   H18H13939   1.078   6.422   8.622 -0.7811  0.0047 -1.4628
  130OSM      N13940   1.151   3.710   6.048 -0.4874  0.3705  0.0606
  130OSM    C1513941   1.057   3.598   6.076 -0.0296  0.2866  0.6717
  130OSM   H15A13942   0.955   3.634   6.081  0.1190  0.5858  1.8139
  130OSM   H15B13943   1.082   3.560   6.174  2.5010 -2.3679 -0.8282
  130OSM   H15C13944   1.075   3.515   6.010 -0.6404  1.5730 -1.2049
  130OSM    C1413945   1.109   3.774   5.914  0.2876  0.1070  0.1822
  130OSM   H14A13946   1.009   3.816   5.909  1.2644  2.4850 -3.1177
  130OSM   H14B13947   1.114   3.693   5.842 -1.5273 -1.3208  1.5397
  130OSM   H14C13948   1.174   3.856   5.888  4.8580 -2.9635  0.8041
  130OSM    C1313949   1.143   3.810   6.148 -0.0331  0.7519 -0.0760
  130OSM   H13A13950   1.157   3.776   6.250 -2.9875  0.3811  0.2918
  130OSM   H13B13951   1.042   3.845   6.159 -0.0477  0.6620  0.0772
  130OSM   H13C13952   1.202   3.898   6.127  2.8785 -0.3888  2.4677
  130OSM    C1213953   1.292   3.664   6.045 -0.6966  0.0516  0.4515
  130OSM   H12A13954   1.329   3.624   6.138  0.9486 -3.0313 -1.3777
  130OSM   H12B13955   1.357   3.743   6.008  1.7413 -1.9149  0.2548
  130OSM    C1113956   1.315   3.550   5.939  0.0614  1.3868  0.3015
  130OSM   H11A13957   1.420   3.555   5.901  0.5490 -1.7718  0.9528
  130OSM   H11B13958   1.245   3.559   5.854  1.4687 -1.3392 -1.2732
  130OSM      P13959   1.398   3.367   6.121  0.4455 -0.3645 -0.0582
  130OSM    O1313960   1.345   3.248   6.191 -0.3170 -0.2314  0.2279
  130OSM    O1413961   1.527   3.345   6.060  0.3100  0.1511 -0.4186
  130OSM    O1113962   1.406   3.487   6.230 -0.0847  0.0669  0.5720
  130OSM    O1213963   1.301   3.421   6.003 -0.5528 -0.4094 -0.4449
  130OSM    C1S13964   1.334   3.490   6.355  0.4079 -0.2240  1.0773
  130OSM    H1S13965   1.240   3.433   6.347  1.3075 -1.4441 -2.8364
  130OSM    H1T13966   1.329   3.598   6.381 -0.0931 -0.0991  0.4697
  130OSM     NF13967   1.327   3.460   6.597  0.5402 -0.3772 -0.2895
  130OSM    HNF13968   1.373   3.523   6.658 -1.8579  3.5481 -2.1265
  130OSM    C2S13969   1.405   3.429   6.479 -0.2703 -0.4840  0.4952
  130OSM    H2S13970   1.415   3.320   6.462 -2.1604 -0.5718 -0.2929
  130OSM    C3S13971   1.557   3.475   6.479  0.3362  0.2270 -0.1515
  130OSM    H3S13972   1.556   3.585   6.496 -1.4498  0.1886  0.2223
  130OSM     O313973   1.629   3.451   6.359 -0.1815  0.1198  0.2659
  130OSM    HO313974   1.571   3.430   6.286 -1.3787  1.2406  0.8537
  130OSM    C4S13975   1.617   3.417   6.604  0.1883 -0.2929 -0.4135
  130OSM    H4S13976   1.585   3.472   6.694 -1.8831  0.4971 -1.5583
  130OSM    C5S13977   1.700   3.317   6.624  0.3901  0.0637 -0.0863
  130OSM    H5S13978   1.726   3.252   6.539  1.5423  1.2772 -0.6914
  130OSM    C6S13979   1.759   3.284   6.759  0.1136 -0.5384 -0.3181
  130OSM    H6S13980   1.846   3.216   6.753  0.3481 -0.4068  1.2380
  130OSM    H6T13981   1.684   3.228   6.819 -1.5655  2.0593  0.1888
  130OSM    C7S13982   1.794   3.414   6.843  0.6816  0.2038  0.1654
  130OSM    H7S13983   1.699   3.469   6.861 -0.4462 -1.4745 -0.5078
  130OSM    H7T13984   1.861   3.467   6.772 -0.2163 -0.7783 -1.4788
  130OSM    C8S13985   1.851   3.379   6.979  0.3235 -0.4597 -0.7719
  130OSM    H8S13986   1.923   3.294   6.983  0.7141 -0.1634 -1.3468
  130OSM    H8T13987   1.769   3.337   7.042  1.5362 -3.0183 -0.7577
  130OSM    C9S13988   1.923   3.492   7.054 -0.0824 -0.3748  0.5613
  130OSM    H9S13989   1.860   3.583   7.060 -2.7127 -1.7837 -2.5883
  130OSM    H9T13990   2.009   3.500   6.985 -1.2546 -1.6940 -1.1416
  130OSM   C10S13991   1.968   3.447   7.197  0.3606 -0.4830 -0.0090
  130OSM   H10S13992   2.048   3.370   7.189  1.0568  0.1714  0.4868
  130OSM   H10T13993   1.883   3.396   7.247  2.0609 -2.1413  1.3627
  130OSM   C11S13994   2.000   3.564   7.289 -0.4197  0.5013 -0.0478
  130OSM   H11S13995   1.901   3.608   7.317 -0.8434  0.3756 -1.2897
  130OSM   H11T13996   2.062   3.641   7.237  0.2242  0.0303  0.0180
  130OSM   C12S13997   2.048   3.518   7.430 -0.4808  0.8126  0.4251
  130OSM   H12S13998   2.137   3.452   7.422 -0.7398  0.2693  1.6571
  130OSM   H12T13999   1.962   3.468   7.482 -1.1732  1.8743  0.3252
  130OSM   C13S14000   2.078   3.641   7.513 -0.9932 -0.6427 -0.4538
  130OSM   H13S14001   1.994   3.714   7.518  0.8899  1.7600 -1.7529
  130OSM   H13T14002   2.162   3.694   7.465 -0.9177  0.4249  0.8105
  130OSM   C14S14003   2.130   3.606   7.658  0.3280  0.2743 -0.2741
  130OSM   H14S14004   2.150   3.699   7.715  2.3547  0.3029 -0.9625
  130OSM   H14T14005   2.226   3.551   7.647 -0.8223 -1.6982 -1.1192
  130OSM   C15S14006   2.021   3.523   7.742  0.8176 -0.3152  0.2637
  130OSM   H15S14007   2.033   3.418   7.706 -3.7438 -0.6267 -0.9947
  130OSM   H15T14008   1.923   3.568   7.715  1.5533  1.1284 -0.0716
  130OSM   C16S14009   2.035   3.531   7.892  0.6954 -0.5315  0.1568
  130OSM   H16S14010   2.042   3.636   7.928 -1.2836  0.1472 -1.2578
  130OSM   H16T14011   2.127   3.480   7.926  1.6712  0.1463 -1.3406
  130OSM   C17S14012   1.899   3.468   7.957 -0.1571  0.5815  0.1995
  130OSM   H17S14013   1.888   3.362   7.927  1.2547  0.3774  0.3263
  130OSM   H17T14014   1.807   3.528   7.937 -0.2066  1.0938  1.7962
  130OSM   C18S14015   1.907   3.475   8.112  0.0780 -0.0061  1.6270
  130OSM   H18S14016   1.983   3.399   8.142  0.3649 -0.3448  0.1392
  130OSM   H18T14017   1.809   3.441   8.152 -1.0744  0.3085 -0.7568
  130OSM   H18U14018   1.932   3.580   8.138 -1.4543  0.8157 -0.0208
  130OSM    C1F14019   1.198   3.429   6.617  0.4532 -0.4631  0.7309
  130OSM     OF14020   1.124   3.376   6.538  0.1804 -0.3711  0.8238
  130OSM    C2F14021   1.152   3.484   6.753  0.6518 -0.6921 -0.7294
  130OSM    H2F14022   1.197   3.586   6.753 -0.5989 -0.0796  1.1629
  130OSM    H2G14023   1.207   3.428   6.832  2.0198  0.1544 -1.0513
  130OSM    C3F14024   1.004   3.497   6.781 -0.2800 -0.7239  0.0822
  130OSM    H3F14025   0.952   3.401   6.765  1.3986 -1.9157  1.4456
  130OSM    H3G14026   0.952   3.559   6.705 -0.2599 -1.8537 -0.8884
  130OSM    C4F14027   0.986   3.540   6.926 -0.2160 -0.0376  0.6415
  130OSM    H4F14028   1.036   3.638   6.944  0.5199  0.1587 -2.0111
  130OSM    H4G14029   1.032   3.461   6.989  1.1547  0.5037  0.3647
  130OSM    C5F14030   0.834   3.554   6.966  0.6257  0.4956 -0.4936
  130OSM    H5F14031   0.771   3.486   6.906 -0.4182  1.4498 -0.5158
  130OSM    H5G14032   0.812   3.658   6.935 -1.1228 -0.0991 -1.3517
  130OSM    C6F14033   0.799   3.536   7.112  0.3566 -0.7041 -0.4288
  130OSM    H6F14034   0.691   3.554   7.129 -0.1552  0.8697 -4.3724
  130OSM    H6G14035   0.859   3.603   7.178  0.5684  0.2186 -1.5336
  130OSM    C7F14036   0.832   3.387   7.171  0.2656 -1.2850  0.5009
  130OSM    H7F14037   0.936   3.360   7.142  1.3232  0.4675  2.3697
  130OSM    H7G14038   0.754   3.325   7.123  0.2451  0.0723 -1.3471
  130OSM    C8F14039   0.815   3.366   7.322 -0.0863 -0.1052  0.3466
  130OSM    H8F14040   0.807   3.257   7.341 -0.3936 -0.2485 -0.5732
  130OSM    H8G14041   0.725   3.423   7.351  0.1729  1.2515 -1.3420
  130OSM    C9F14042   0.940   3.412   7.384  0.4384 -0.4969 -0.8558
  130OSM    H9F14043   0.974   3.510   7.346 -0.1375  0.3355  0.6989
  130OSM   C10F14044   1.024   3.353   7.476  0.6254 -0.3784  0.1632
  130OSM   H10F14045   1.112   3.415   7.497  0.3444 -0.3021  1.1412
  130OSM   C11F14046   1.023   3.229   7.559 -0.0430 -0.2614  0.3809
  130OSM   H11F14047   1.107   3.167   7.522  0.5061  0.5384  0.2648
  130OSM   H11G14048   0.935   3.167   7.531 -0.4901  0.8064 -0.6753
  130OSM   C12F14049   1.033   3.249   7.713  0.3708 -0.0008  0.3038
  130OSM   H12F14050   1.108   3.328   7.738 -0.9598  2.2266 -2.1641
  130OSM   H12G14051   1.065   3.148   7.744  0.5931 -0.1387 -0.3495
  130OSM   C13F14052   0.901   3.293   7.768  0.3201 -0.3487  0.5008
  130OSM   H13F14053   0.824   3.233   7.714 -0.1175  0.6490 -0.0035
  130OSM   H13G14054   0.894   3.399   7.737  0.2267 -0.8991 -1.5032
  130OSM   C14F14055   0.890   3.287   7.917 -0.1523  0.4710  0.1652
  130OSM   H14F14056   0.797   3.330   7.963 -1.3238  0.6239 -2.1983
  130OSM   H14G14057   0.977   3.338   7.963  1.6985 -2.1436 -0.2374
  130OSM   C15F14058   0.886   3.138   7.959 -0.5329 -0.1395 -0.4940
  130OSM   H15F14059   0.973   3.076   7.927 -0.3686 -1.4668  2.2116
  130OSM   H15G14060   0.804   3.078   7.914  0.4015 -0.2357 -2.1512
  130OSM   C16F14061   0.868   3.129   8.120  0.2327  0.3015  0.4343
  130OSM   H16F14062   0.773   3.184   8.139  0.9047  1.4645  0.5858
  130OSM   H16G14063   0.955   3.185   8.162  1.8188  0.8907 -3.1547
  130OSM   C17F14064   0.863   2.991   8.190 -1.2574  0.9261  0.0377
  130OSM   H17F14065   0.774   2.936   8.151 -1.9324  1.7723  0.3455
  130OSM   H17G14066   0.856   3.017   8.297 -1.1904  1.8296 -0.1703
  130OSM   C18F14067   0.989   2.895   8.183 -0.4316 -0.0220  0.0951
  130OSM   H18F14068   1.067   2.936   8.250  0.1692  0.2309 -0.7492
  130OSM   H18G14069   1.018   2.884   8.077 -0.0627 -1.8482  0.3545
  130OSM   H18H14070   0.954   2.797   8.224  0.5789 -0.3021  0.3138
  131OSM      N14071   2.453   5.112   6.139 -0.9061 -0.2110  0.3185
  131OSM    C1514072   2.594   5.141   6.084 -0.5759  0.0135 -0.0025
  131OSM   H15A14073   2.620   5.245   6.069 -1.4532  0.3418  0.6734
  131OSM   H15B14074   2.591   5.095   5.986 -1.6116  0.6470 -0.2909
  131OSM   H15C14075   2.659   5.088   6.151 -0.1931 -0.0434 -0.4106
  131OSM    C1414076   2.443   4.962   6.125 -0.4164  0.4408 -0.3545
  131OSM   H14A14077   2.510   4.921   6.199  0.5212  0.2615 -1.2846
  131OSM   H14B14078   2.476   4.925   6.030  2.3183 -1.4791  1.2211
  131OSM   H14C14079   2.344   4.923   6.143  0.1266 -1.4752 -1.3208
  131OSM    C1314080   2.452   5.161   6.284  0.1791  0.0521  0.1315
  131OSM   H13A14081   2.499   5.258   6.292  0.5678 -0.2227  1.4634
  131OSM   H13B14082   2.509   5.097   6.350  0.4508  0.1187 -0.0402
  131OSM   H13C14083   2.350   5.173   6.319  0.2224 -0.2655  0.3703
  131OSM    C1214084   2.351   5.185   6.057 -0.3545 -0.0205  0.3875
  131OSM   H12A14085   2.358   5.143   5.958  4.3959  1.7920 -0.2874
  131OSM   H12B14086   2.384   5.287   6.047 -1.0969  0.2661  0.7444
  131OSM    C1114087   2.209   5.172   6.097  0.5946  0.7868 -0.7454
  131OSM   H11A14088   2.176   5.071   6.131  0.4293  0.9788 -0.3233
  131OSM   H11B14089   2.136   5.196   6.017  0.2149  0.3095 -0.5527
  131OSM      P14090   2.174   5.407   6.193 -0.0136  0.2845  0.4392
  131OSM    O1314091   2.310   5.456   6.211  0.1426  0.2833 -0.0500
  131OSM    O1414092   2.114   5.445   6.066  0.0313 -0.3353  0.8938
  131OSM    O1114093   2.080   5.458   6.303 -0.7620 -0.2427  0.1616
  131OSM    O1214094   2.177   5.246   6.210  0.7554  0.1689  0.2780
  131OSM    C1S14095   2.056   5.407   6.426  0.0138 -0.0682 -0.4314
  131OSM    H1S14096   2.140   5.432   6.494 -1.6739  1.1731  1.3285
  131OSM    H1T14097   2.039   5.298   6.415 -1.4566  0.3143 -2.5247
  131OSM     NF14098   1.943   5.428   6.644 -0.1685 -0.2896  0.2900
  131OSM    HNF14099   1.913   5.335   6.662 -2.5583  0.5513  0.9754
  131OSM    C2S14100   1.933   5.463   6.506  0.2789 -0.2661  0.3953
  131OSM    H2S14101   1.940   5.574   6.504  0.7916 -0.2424  1.9432
  131OSM    C3S14102   1.805   5.405   6.435 -0.0151 -0.3692  0.6403
  131OSM    H3S14103   1.801   5.295   6.445 -0.5463 -0.3522  0.6741
  131OSM     O314104   1.810   5.435   6.296 -0.2156 -0.0864  0.6583
  131OSM    HO314105   1.902   5.463   6.290 -0.2103 -0.2117  0.0986
  131OSM    C4S14106   1.684   5.472   6.487  0.0942  0.0550 -0.7858
  131OSM    H4S14107   1.684   5.582   6.493  0.7318 -0.0145  0.8159
  131OSM    C5S14108   1.578   5.407   6.537  0.1428 -0.1394 -0.1445
  131OSM    H5S14109   1.589   5.298   6.529  0.1255 -0.4210  2.6879
  131OSM    C6S14110   1.452   5.474   6.584  0.1884  0.0416 -0.1475
  131OSM    H6S14111   1.380   5.393   6.605 -0.6359  0.9221  0.4913
  131OSM    H6T14112   1.398   5.528   6.503  0.6575 -1.0515 -1.2324
  131OSM    C7S14113   1.474   5.565   6.707  0.0829 -0.0869  0.0010
  131OSM    H7S14114   1.390   5.634   6.731  1.1427  1.0212  0.6232
  131OSM    H7T14115   1.555   5.638   6.687 -0.3469  0.1823 -0.8246
  131OSM    C8S14116   1.511   5.485   6.834 -0.1964  0.2205  0.3465
  131OSM    H8S14117   1.543   5.383   6.806  0.7240  0.8190 -0.8531
  131OSM    H8T14118   1.421   5.477   6.899 -1.6055 -0.6809 -1.6043
  131OSM    C9S14119   1.630   5.556   6.913  0.3201  0.1670 -0.3546
  131OSM    H9S14120   1.581   5.652   6.940 -1.4555 -1.1014  1.2521
  131OSM    H9T14121   1.719   5.563   6.847  1.1343 -0.3621  0.6631
  131OSM   C10S14122   1.670   5.492   7.043 -0.1385  0.4084 -0.6431
  131OSM   H10S14123   1.761   5.543   7.082 -0.9004  0.3517  1.3627
  131OSM   H10T14124   1.690   5.385   7.019  3.5653  1.4550 -3.0227
  131OSM   C11S14125   1.568   5.499   7.160 -0.3098 -0.0280 -0.3307
  131OSM   H11S14126   1.463   5.482   7.129 -0.8623  4.3256 -1.5429
  131OSM   H11T14127   1.557   5.596   7.213  0.0356 -0.8503  1.3219
  131OSM   C12S14128   1.607   5.386   7.261 -0.4094 -0.6722 -0.4922
  131OSM   H12S14129   1.717   5.372   7.272 -0.1602 -0.3115 -2.1388
  131OSM   H12T14130   1.580   5.294   7.206 -0.2975 -1.1725  0.2839
  131OSM   C13S14131   1.524   5.392   7.389  0.4553 -0.4366  0.3441
  131OSM   H13S14132   1.420   5.426   7.370  0.5330 -0.9383 -1.0310
  131OSM   H13T14133   1.560   5.475   7.454 -1.3367  0.9905 -0.3923
  131OSM   C14S14134   1.508   5.261   7.471 -0.5192 -0.5439  0.7685
  131OSM   H14S14135   1.473   5.186   7.397  1.8625  0.6629 -1.7703
  131OSM   H14T14136   1.424   5.275   7.543 -1.3441  1.9257 -0.5435
  131OSM   C15S14137   1.634   5.219   7.553  0.0897  0.5396 -0.2493
  131OSM   H15S14138   1.687   5.310   7.588 -0.7077  0.6706  0.6518
  131OSM   H15T14139   1.694   5.162   7.479 -2.1783 -0.6414 -1.3099
  131OSM   C16S14140   1.604   5.127   7.669 -0.3521 -0.2593 -0.9448
  131OSM   H16S14141   1.701   5.111   7.721 -1.2503  0.4615  1.0597
  131OSM   H16T14142   1.575   5.024   7.638  1.4068 -1.4851  1.1552
  131OSM   C17S14143   1.499   5.171   7.773 -0.1358 -0.2532  0.6182
  131OSM   H17S14144   1.509   5.110   7.866 -2.8586 -0.0633  1.1340
  131OSM   H17T14145   1.398   5.155   7.730 -0.7733  1.8392  1.2247
  131OSM   C18S14146   1.502   5.321   7.815 -0.1289  0.4996 -0.3860
  131OSM   H18S14147   1.472   5.390   7.734 -1.1812  0.5541  0.0309
  131OSM   H18T14148   1.607   5.340   7.843 -0.3239 -1.4090  1.9877
  131OSM   H18U14149   1.433   5.344   7.899  0.6961  1.9309 -0.0687
  131OSM    C1F14150   2.025   5.484   6.728 -0.4987  0.2468  0.3820
  131OSM     OF14151   2.080   5.586   6.693  0.5729  0.3676 -0.8730
  131OSM    C2F14152   2.049   5.413   6.852 -0.0193 -0.2260 -0.4137
  131OSM    H2F14153   2.088   5.313   6.824  2.1944  0.5180 -0.2406
  131OSM    H2G14154   1.962   5.402   6.920 -0.4118  0.1957 -0.8469
  131OSM    C3F14155   2.163   5.490   6.937  0.4429  0.8316  0.5186
  131OSM    H3F14156   2.109   5.581   6.971 -1.5913  0.5731 -1.7594
  131OSM    H3G14157   2.250   5.525   6.878  1.3489 -0.1968  1.2118
  131OSM    C4F14158   2.206   5.421   7.070  0.1940  0.3614  0.3444
  131OSM    H4F14159   2.268   5.494   7.126 -0.7970  0.1535  1.7698
  131OSM    H4G14160   2.277   5.338   7.049  0.3735  1.0027 -1.8218
  131OSM    C5F14161   2.081   5.380   7.144 -1.0552 -0.1841 -0.1738
  131OSM    H5F14162   2.058   5.277   7.111  0.2546 -0.7917  0.7232
  131OSM    H5G14163   1.990   5.443   7.132 -1.1515 -0.1105  0.8272
  131OSM    C6F14164   2.127   5.372   7.295  0.1578 -0.0008 -0.7044
  131OSM    H6F14165   2.133   5.476   7.333 -1.6382  0.7174 -2.2177
  131OSM    H6G14166   2.226   5.325   7.310  1.6302  2.2345 -2.7274
  131OSM    C7F14167   2.013   5.307   7.380  0.3106 -0.4104  0.4544
  131OSM    H7F14168   1.984   5.214   7.326 -0.4401  1.0416 -1.7875
  131OSM    H7G14169   1.923   5.372   7.369  0.3160  0.1014  2.8001
  131OSM    C8F14170   2.025   5.280   7.531  0.2676 -0.1012  0.1461
  131OSM    H8F14171   2.088   5.189   7.539  0.7984  0.1961 -0.5806
  131OSM    H8G14172   1.925   5.256   7.574  1.4368 -1.6831  2.2007
  131OSM    C9F14173   2.103   5.383   7.604 -0.0482 -0.3824  0.4727
  131OSM    H9F14174   2.209   5.391   7.576 -0.5199  0.2791 -1.2016
  131OSM   C10F14175   2.053   5.464   7.696 -0.2277  0.4115 -0.3942
  131OSM   H10F14176   2.123   5.531   7.748  1.9848 -1.1124 -1.2201
  131OSM   C11F14177   1.915   5.467   7.751 -0.2882 -0.0240 -0.0912
  131OSM   H11F14178   1.841   5.425   7.679  0.1480  0.2957 -0.7412
  131OSM   H11G14179   1.880   5.571   7.741 -0.1419  0.0366  0.0277
  131OSM   C12F14180   1.899   5.416   7.893  0.6473 -0.8945  0.4013
  131OSM   H12F14181   1.797   5.430   7.935  0.1502  0.0155 -1.0209
  131OSM   H12G14182   1.959   5.488   7.952 -0.5504  1.6926 -1.3406
  131OSM   C13F14183   1.956   5.280   7.917 -0.7000  0.3359 -0.9319
  131OSM   H13F14184   2.065   5.277   7.938 -0.8255  0.1127 -0.2708
  131OSM   H13G14185   1.918   5.210   7.840 -1.5272 -1.1102  0.7358
  131OSM   C14F14186   1.898   5.213   8.051  0.2420  0.5740  0.4688
  131OSM   H14F14187   1.934   5.108   8.046  1.4442  1.0364 -1.7946
  131OSM   H14G14188   1.787   5.220   8.048  0.2979  1.3615 -0.4213
  131OSM   C15F14189   1.947   5.295   8.177 -0.0309  0.2360  0.2983
  131OSM   H15F14190   1.902   5.396   8.183 -0.4482  0.0842 -0.2133
  131OSM   H15G14191   2.057   5.292   8.190 -0.0906  0.4011  0.8617
  131OSM   C16F14192   1.900   5.223   8.306  0.0306 -0.0594  0.4453
  131OSM   H16F14193   1.968   5.136   8.317  0.2080  0.1533  1.0675
  131OSM   H16G14194   1.796   5.187   8.292  0.7794 -1.8536 -0.7459
  131OSM   C17F14195   1.923   5.302   8.434 -0.8262 -0.1844  0.3092
  131OSM   H17F14196   1.861   5.394   8.424 -0.8576 -0.2496 -0.1445
  131OSM   H17G14197   2.024   5.350   8.429 -1.4887  1.1869 -2.2457
  131OSM   C18F14198   1.900   5.213   8.554 -0.3651  0.0752 -0.0210
  131OSM   H18F14199   1.990   5.153   8.577  0.7393  0.4869 -2.8970
  131OSM   H18G14200   1.808   5.151   8.543  0.5614 -1.2056 -0.9109
  131OSM   H18H14201   1.891   5.275   8.645 -0.8339  0.3903 -0.2800
  132OSM      N14202   4.786   2.138   6.254  0.6239  0.3829  0.4498
  132OSM    C1514203   4.763   2.190   6.116 -0.3953  0.4885 -0.4152
  132OSM   H15A14204   4.712   2.285   6.113  0.4669  0.9569 -0.5114
  132OSM   H15B14205   4.693   2.124   6.066  0.4106 -0.5881 -0.1604
  132OSM   H15C14206   4.848   2.193   6.050  0.8257 -0.0749  1.0855
  132OSM    C1414207   4.852   2.243   6.342  0.3301  0.0525 -0.1471
  132OSM   H14A14208   4.883   2.192   6.433 -0.2605  0.7695  0.4658
  132OSM   H14B14209   4.792   2.331   6.360 -0.7610 -0.9763  1.4169
  132OSM   H14C14210   4.943   2.268   6.289  1.1251 -1.5377  0.3874
  132OSM    C1314211   4.659   2.094   6.307 -0.2692 -0.0757 -0.4803
  132OSM   H13A14212   4.581   2.170   6.302 -0.2403  0.2533  2.4418
  132OSM   H13B14213   4.670   2.055   6.407  1.6014 -0.2381 -0.7264
  132OSM   H13C14214   4.602   2.019   6.254 -1.4803  0.1576  0.4350
  132OSM    C1214215   4.872   2.011   6.230 -0.9096  0.6276  0.3833
  132OSM   H12A14216   4.974   2.032   6.201 -0.5534 -0.2953  0.8998
  132OSM   H12B14217   4.824   1.948   6.156  1.5812 -0.5821 -0.3269
  132OSM    C1114218   4.893   1.915   6.345 -0.6509  0.7142  0.0232
  132OSM   H11A14219   4.802   1.893   6.406  0.7941 -1.9994  1.4190
  132OSM   H11B14220   4.964   1.954   6.422  1.4327 -2.3767 -0.1180
  132OSM      P14221   4.860   1.685   6.232 -0.2125 -0.5252  0.1438
  132OSM    O1314222   4.731   1.677   6.300 -0.6675 -0.0174 -0.2334
  132OSM    O1414223   4.860   1.708   6.091  0.8392  0.2797 -0.5364
  132OSM    O1114224   4.935   1.545   6.256 -0.5408  0.0462 -0.4412
  132OSM    O1214225   4.948   1.798   6.294  0.1680 -0.0134  0.6199
  132OSM    C1S14226   5.033   1.542   6.357 -1.4867 -1.0895 -0.2612
  132OSM    H1S14227   5.094   1.635   6.356 -1.9069 -0.8128 -0.3883
  132OSM    H1T14228   5.105   1.459   6.338 -0.0564  0.3623 -1.4381
  132OSM     NF14229   5.087   1.525   6.599 -0.2570  0.7961  0.4870
  132OSM    HNF14230   5.114   1.436   6.633 -0.1490  1.3737  1.9674
  132OSM    C2S14231   4.976   1.518   6.502 -0.0280 -0.0169 -0.0347
  132OSM    H2S14232   4.913   1.602   6.537 -0.5018 -1.2646  2.2926
  132OSM    C3S14233   4.884   1.396   6.513 -0.5854  0.3699  0.4963
  132OSM    H3S14234   4.950   1.310   6.489 -0.2384  0.6463  0.4492
  132OSM     O314235   4.774   1.389   6.422 -0.1867  0.3957  0.1671
  132OSM    HO314236   4.763   1.477   6.386 -0.3215  1.7150  3.1983
  132OSM    C4S14237   4.833   1.365   6.651 -0.0744 -0.0940 -0.6468
  132OSM    H4S14238   4.765   1.446   6.683 -0.0649  0.7432 -2.6352
  132OSM    C5S14239   4.873   1.256   6.723  0.0905  0.1075  0.4504
  132OSM    H5S14240   4.949   1.188   6.681 -0.5083 -1.9136  2.4631
  132OSM    C6S14241   4.824   1.224   6.861 -0.1805  0.1309 -0.1226
  132OSM    H6S14242   4.814   1.114   6.873  0.9606  0.0989  0.7029
  132OSM    H6T14243   4.730   1.278   6.884  0.1612  1.2070 -1.2106
  132OSM    C7S14244   4.916   1.278   6.976  0.5235  0.8198  0.7435
  132OSM    H7S14245   4.918   1.389   6.973  1.4457  0.8236  1.0081
  132OSM    H7T14246   5.016   1.245   6.940  0.7838  2.6787 -0.4375
  132OSM    C8S14247   4.860   1.240   7.111 -0.3723  0.5677  0.2068
  132OSM    H8S14248   4.899   1.136   7.118 -0.4128  0.4988 -0.5013
  132OSM    H8T14249   4.750   1.235   7.101 -0.4164 -1.1891  1.1873
  132OSM    C9S14250   4.920   1.322   7.228  0.1339 -0.0053  0.5705
  132OSM    H9S14251   4.907   1.430   7.204  2.4943 -0.2109 -2.1220
  132OSM    H9T14252   5.029   1.301   7.227  0.3232  0.8528 -1.6205
  132OSM   C10S14253   4.866   1.288   7.369  0.0292 -0.2806  0.3412
  132OSM   H10S14254   4.862   1.178   7.375  0.3986 -0.2917  0.4211
  132OSM   H10T14255   4.766   1.335   7.383 -0.8306 -2.1946  0.9342
  132OSM   C11S14256   4.962   1.338   7.474  0.2559  0.1714  0.5165
  132OSM   H11S14257   4.990   1.443   7.452 -3.4362  1.4260  1.1303
  132OSM   H11T14258   5.054   1.275   7.476  0.1601  0.0173  0.0276
  132OSM   C12S14259   4.906   1.320   7.623  0.5258  0.2301  1.1298
  132OSM   H12S14260   4.882   1.212   7.634  2.3465 -0.4218 -0.5681
  132OSM   H12T14261   4.813   1.379   7.635  1.0739  1.4433 -0.3120
  132OSM   C13S14262   5.004   1.371   7.729  0.5046 -0.4630 -0.4075
  132OSM   H13S14263   5.005   1.482   7.733 -2.1373 -0.3981  0.0515
  132OSM   H13T14264   5.108   1.332   7.725  1.1500  1.2902 -2.5446
  132OSM   C14S14265   4.937   1.323   7.861  0.4282  0.0810  0.5900
  132OSM   H14S14266   4.961   1.215   7.870 -0.5910 -0.1855  0.3167
  132OSM   H14T14267   4.829   1.349   7.864  0.6093  1.0104 -0.3656
  132OSM   C15S14268   4.996   1.392   7.979 -0.4772  0.2112  0.3716
  132OSM   H15S14269   4.975   1.500   7.969 -0.2173  0.1373 -1.1332
  132OSM   H15T14270   5.104   1.368   7.975 -0.8294 -1.8335  1.3050
  132OSM   C16S14271   4.951   1.341   8.113  0.2244  0.3465  0.0221
  132OSM   H16S14272   4.967   1.231   8.108 -0.2850  0.3073 -0.9615
  132OSM   H16T14273   4.843   1.349   8.136  0.0694 -1.6980  0.1667
  132OSM   C17S14274   5.022   1.403   8.240  0.2112 -0.5758 -0.2982
  132OSM   H17S14275   5.128   1.368   8.239  0.6305  0.6333 -0.3479
  132OSM   H17T14276   4.974   1.367   8.333  0.2954  1.2931  0.5005
  132OSM   C18S14277   5.027   1.562   8.234 -0.0842 -0.0589 -0.4322
  132OSM   H18S14278   5.030   1.598   8.129 -0.1957  0.7980 -0.1457
  132OSM   H18T14279   5.102   1.614   8.297  0.5158  1.4703 -2.2951
  132OSM   H18U14280   4.929   1.603   8.264  0.0606  0.3221 -0.4743
  132OSM    C1F14281   5.154   1.633   6.635  0.0855 -0.1541  0.4485
  132OSM     OF14282   5.136   1.741   6.577  0.5502 -0.1733  0.3643
  132OSM    C2F14283   5.251   1.625   6.740  0.3400  0.6150  0.2112
  132OSM    H2F14284   5.317   1.714   6.737  0.6934  0.3343 -1.1563
  132OSM    H2G14285   5.301   1.526   6.732  1.0614  0.9539  0.4939
  132OSM    C3F14286   5.185   1.627   6.881  0.5045  0.5090  0.1497
  132OSM    H3F14287   5.130   1.532   6.900  0.9788 -0.2657 -2.0767
  132OSM    H3G14288   5.105   1.704   6.890  0.1337  0.0579  0.8165
  132OSM    C4F14289   5.283   1.640   6.998 -0.2668  0.0633 -0.3016
  132OSM    H4F14290   5.330   1.741   7.004 -0.3702  0.0683  0.6418
  132OSM    H4G14291   5.361   1.561   6.986  0.6222  0.7766  0.6314
  132OSM    C5F14292   5.221   1.624   7.135  0.5443  0.0589 -0.2353
  132OSM    H5F14293   5.166   1.530   7.155 -0.8606  1.0519  0.7230
  132OSM    H5G14294   5.145   1.704   7.147  1.5783  0.7888  2.1759
  132OSM    C6F14295   5.317   1.628   7.243 -0.0843 -0.1927 -0.0881
  132OSM    H6F14296   5.357   1.730   7.259 -0.7791 -0.2349  2.3442
  132OSM    H6G14297   5.404   1.566   7.210 -0.7795 -1.7151  0.8342
  132OSM    C7F14298   5.263   1.583   7.377 -0.1078 -0.0819  0.0338
  132OSM    H7F14299   5.241   1.474   7.368 -3.9084  0.5195  0.5661
  132OSM    H7G14300   5.162   1.627   7.383 -0.1906 -0.2558 -0.0817
  132OSM    C8F14301   5.360   1.602   7.497  0.4486  0.3394  0.4249
  132OSM    H8F14302   5.303   1.566   7.586  1.5190 -2.1404  0.1821
  132OSM    H8G14303   5.382   1.710   7.509  2.5800 -0.0503  0.4619
  132OSM    C9F14304   5.482   1.513   7.495  0.0533  0.7873  0.2340
  132OSM    H9F14305   5.534   1.499   7.400  1.1575 -0.7628  1.0302
  132OSM   C10F14306   5.546   1.447   7.596 -0.4790 -0.3983 -0.6631
  132OSM   H10F14307   5.636   1.387   7.575  0.4640  1.0596 -0.9589
  132OSM   C11F14308   5.509   1.451   7.746 -0.5319 -0.1695  0.2059
  132OSM   H11F14309   5.423   1.521   7.749 -1.7320 -1.4257 -1.9584
  132OSM   H11G14310   5.599   1.479   7.806  0.4312 -3.1390  0.3177
  132OSM   C12F14311   5.486   1.314   7.799  0.4846  0.0993  0.1345
  132OSM   H12F14312   5.575   1.255   7.766 -0.2276  1.3736 -4.8588
  132OSM   H12G14313   5.392   1.270   7.758  0.2763 -0.2657  0.9891
  132OSM   C13F14314   5.463   1.319   7.952 -0.5973  0.2739 -1.1054
  132OSM   H13F14315   5.432   1.219   7.988  2.2252 -0.0309  0.7644
  132OSM   H13G14316   5.377   1.386   7.972  0.3217  1.1963 -0.1177
  132OSM   C14F14317   5.579   1.368   8.043 -0.0919  0.7596  0.5488
  132OSM   H14F14318   5.614   1.470   8.016 -2.0366  0.9268 -1.6752
  132OSM   H14G14319   5.665   1.301   8.020 -1.1238 -0.4275  0.0037
  132OSM   C15F14320   5.549   1.339   8.185 -0.1513 -0.4730  0.5624
  132OSM   H15F14321   5.491   1.245   8.196 -3.2133  1.1358 -0.5706
  132OSM   H15G14322   5.489   1.419   8.232  1.0908  1.4535 -0.9603
  132OSM   C16F14323   5.677   1.334   8.271 -0.5329 -0.3604  0.6605
  132OSM   H16F14324   5.730   1.431   8.283 -0.1789 -0.5583  0.7123
  132OSM   H16G14325   5.748   1.266   8.219 -1.7350  0.3999 -2.1322
  132OSM   C17F14326   5.649   1.290   8.415  0.0993 -0.3475 -0.8072
  132OSM   H17F14327   5.614   1.185   8.423 -0.3057 -0.1130  0.7888
  132OSM   H17G14328   5.577   1.361   8.462  3.0270  2.3523 -0.0757
  132OSM   C18F14329   5.784   1.292   8.485  0.5785  0.9093 -0.1893
  132OSM   H18F14330   5.820   1.396   8.501  4.9828 -0.4718  0.3550
  132OSM   H18G14331   5.859   1.237   8.424  1.1406 -0.6463  1.7909
  132OSM   H18H14332   5.786   1.247   8.587 -1.1429 -0.0646 -0.5664
  133OSM      N14333   5.506   1.005   6.003  0.5038 -0.1728 -0.5412
  133OSM    C1514334   5.526   0.922   5.876  0.2248  0.8172 -0.7752
  133OSM   H15A14335   5.520   0.817   5.897  1.3763  0.9450  0.3235
  133OSM   H15B14336   5.620   0.947   5.828  0.4121  3.0185  0.6038
  133OSM   H15C14337   5.447   0.944   5.806 -0.3251 -0.6832 -0.6507
  133OSM    C1414338   5.630   0.989   6.087  0.2559  0.8249  0.2954
  133OSM   H14A14339   5.636   0.889   6.127 -1.6605  0.7902  0.5657
  133OSM   H14B14340   5.614   1.043   6.179 -1.0695  0.7923  0.0961
  133OSM   H14C14341   5.717   1.022   6.032 -0.9823  1.4744 -1.3703
  133OSM    C1314342   5.500   1.154   5.967 -0.0300  0.4175 -0.6358
  133OSM   H13A14343   5.590   1.180   5.912 -0.8659 -2.7238 -3.9278
  133OSM   H13B14344   5.495   1.220   6.052 -1.5736  1.3796 -1.4363
  133OSM   H13C14345   5.416   1.175   5.902 -1.9334 -0.7457  1.3254
  133OSM    C1214346   5.381   0.964   6.078 -0.3655  0.3684  0.4582
  133OSM   H12A14347   5.365   1.027   6.164  2.2990  1.9110 -0.0545
  133OSM   H12B14348   5.390   0.865   6.120 -3.0990  0.0838  0.5644
  133OSM    C1114349   5.248   0.966   5.995 -0.0604 -0.0037 -0.7064
  133OSM   H11A14350   5.257   0.881   5.924  0.7858 -1.4652  1.0572
  133OSM   H11B14351   5.242   1.069   5.953  0.2964  0.7816  1.0583
  133OSM      P14352   4.997   0.914   6.036 -0.3632 -0.3267  0.3635
  133OSM    O1314353   4.968   1.018   5.933 -0.3674 -0.0614  0.3376
  133OSM    O1414354   4.977   0.771   5.993 -0.0441 -0.0294  0.0387
  133OSM    O1114355   4.900   0.943   6.164 -0.1635 -0.6790 -0.3442
  133OSM    O1214356   5.142   0.940   6.092  0.2236 -0.1280  0.2260
  133OSM    C1S14357   4.955   0.903   6.296  0.0503 -0.0864  0.2534
  133OSM    H1S14358   5.061   0.931   6.313  1.0885 -3.5802  0.2288
  133OSM    H1T14359   4.945   0.794   6.312  0.6244 -0.6750 -2.7580
  133OSM     NF14360   4.981   0.929   6.540 -0.2479  0.2344 -0.0487
  133OSM    HNF14361   4.966   0.848   6.596  1.2025  0.0577  0.1377
  133OSM    C2S14362   4.890   0.964   6.424 -0.5907  0.1014  0.2144
  133OSM    H2S14363   4.892   1.074   6.403 -2.2592 -0.3320 -2.7468
  133OSM    C3S14364   4.741   0.916   6.439  0.1351 -0.7582 -0.2802
  133OSM    H3S14365   4.743   0.806   6.447  1.5743 -0.7017  0.4232
  133OSM     O314366   4.658   0.952   6.323 -0.2093 -0.7398 -0.0660
  133OSM    HO314367   4.713   1.002   6.263  0.9003  1.2274  2.3787
  133OSM    C4S14368   4.672   0.972   6.565  0.3620  0.1396 -0.1817
  133OSM    H4S14369   4.661   1.082   6.564 -3.2049 -0.1175 -0.6233
  133OSM    C5S14370   4.624   0.893   6.657 -0.2318 -0.3554 -0.3575
  133OSM    H5S14371   4.642   0.786   6.640  1.2045 -0.2799  0.5443
  133OSM    C6S14372   4.567   0.939   6.787  0.6830 -0.0974  0.3279
  133OSM    H6S14373   4.457   0.927   6.788  0.7830 -1.0846  0.6382
  133OSM    H6T14374   4.582   1.048   6.801  0.5808  0.3719 -2.5738
  133OSM    C7S14375   4.626   0.876   6.910  0.3604  0.8271  0.3054
  133OSM    H7S14376   4.734   0.894   6.925  0.6578  0.5315 -1.2649
  133OSM    H7T14377   4.610   0.766   6.920  0.8348  0.8698  1.7445
  133OSM    C8S14378   4.560   0.926   7.034  0.5533  1.0716  0.0264
  133OSM    H8S14379   4.456   0.887   7.025  1.1757 -0.6284 -0.3104
  133OSM    H8T14380   4.560   1.036   7.046  0.7458  0.9179  1.8687
  133OSM    C9S14381   4.628   0.859   7.146 -0.1452  0.7009 -0.5258
  133OSM    H9S14382   4.730   0.905   7.147 -0.7186  2.0165 -0.8652
  133OSM    H9T14383   4.633   0.749   7.134 -1.3758  0.8092 -2.2542
  133OSM   C10S14384   4.568   0.881   7.285 -0.3219 -0.0975  0.2087
  133OSM   H10S14385   4.492   0.802   7.302 -0.5258  0.1308  0.3851
  133OSM   H10T14386   4.512   0.978   7.284  0.7599  0.5421  0.0805
  133OSM   C11S14387   4.674   0.893   7.391 -0.6602 -0.2146 -0.5228
  133OSM   H11S14388   4.769   0.935   7.351  0.3156 -1.6898  0.1375
  133OSM   H11T14389   4.704   0.791   7.422  1.6225  0.4074 -0.4447
  133OSM   C12S14390   4.626   0.965   7.522 -0.5558  0.4228 -0.0461
  133OSM   H12S14391   4.544   0.898   7.555  0.3421 -0.6755  0.0058
  133OSM   H12T14392   4.586   1.068   7.508  0.5926  1.2830  2.3067
  133OSM   C13S14393   4.726   0.946   7.645 -0.0598  1.1441  0.7665
  133OSM   H13S14394   4.826   0.979   7.607  0.6114  0.6750  2.0706
  133OSM   H13T14395   4.726   0.836   7.661  0.7192  1.0661  0.2879
  133OSM   C14S14396   4.713   1.026   7.776 -0.8047  0.8502  0.2099
  133OSM   H14S14397   4.695   1.133   7.753  0.9354  1.0247 -0.5592
  133OSM   H14T14398   4.811   1.019   7.829 -1.1056  1.1593  0.8208
  133OSM   C15S14399   4.599   0.984   7.864 -0.1533  0.8951 -0.2894
  133OSM   H15S14400   4.605   0.874   7.877  1.6630  1.1870  2.1223
  133OSM   H15T14401   4.505   1.014   7.813 -0.2861  0.8016 -0.0977
  133OSM   C16S14402   4.603   1.041   8.005 -0.4344  0.4907 -0.1848
  133OSM   H16S14403   4.585   1.151   8.007  3.3948  1.2795  0.5450
  133OSM   H16T14404   4.707   1.029   8.043 -1.5761 -2.0247  2.4427
  133OSM   C17S14405   4.505   0.977   8.111  0.6869 -0.0513  0.0665
  133OSM   H17S14406   4.414   0.948   8.054 -0.2073 -0.7511  1.7692
  133OSM   H17T14407   4.478   1.042   8.197 -0.2990 -3.1699  2.2847
  133OSM   C18S14408   4.571   0.851   8.163  0.4189  0.5042  0.2954
  133OSM   H18S14409   4.499   0.803   8.232 -1.8829  2.4890 -0.5903
  133OSM   H18T14410   4.666   0.873   8.216  0.2973 -2.5901  1.9946
  133OSM   H18U14411   4.586   0.786   8.074 -1.6180  1.1604 -0.5915
  133OSM    C1F14412   5.102   0.990   6.567  0.7747 -0.0221  0.3661
  133OSM     OF14413   5.147   1.083   6.500 -0.4723 -0.9862 -0.6237
  133OSM    C2F14414   5.182   0.934   6.674  0.3800 -0.1161  0.0361
  133OSM    H2F14415   5.288   0.927   6.641  0.2772 -2.6800  0.0281
  133OSM    H2G14416   5.148   0.828   6.683  2.5589 -0.7949  0.7610
  133OSM    C3F14417   5.175   1.010   6.813  0.5186 -0.0305  0.0984
  133OSM    H3F14418   5.074   0.990   6.855  0.2241  0.2644 -0.4665
  133OSM    H3G14419   5.172   1.120   6.797 -0.1664 -0.2394 -1.3565
  133OSM    C4F14420   5.284   0.987   6.913  0.3962 -0.3208  0.1156
  133OSM    H4F14421   5.382   1.015   6.868 -1.1833  1.5824 -2.4608
  133OSM    H4G14422   5.289   0.881   6.946  1.1832 -0.2372  0.2913
  133OSM    C5F14423   5.264   1.079   7.034 -0.6409  0.7902  0.0117
  133OSM    H5F14424   5.167   1.053   7.083 -1.1552 -0.6016 -1.6412
  133OSM    H5G14425   5.265   1.183   6.995  1.1895  1.4986  1.7616
  133OSM    C6F14426   5.373   1.073   7.139 -0.5614  0.3546 -0.3248
  133OSM    H6F14427   5.476   1.065   7.099 -0.6143 -0.0429 -0.3844
  133OSM    H6G14428   5.355   0.992   7.213  2.0220 -0.3088 -0.3371
  133OSM    C7F14429   5.375   1.204   7.216  0.8211 -0.3968 -0.0895
  133OSM    H7F14430   5.273   1.240   7.242  0.5562 -0.1482 -1.3887
  133OSM    H7G14431   5.429   1.270   7.146  1.6172 -0.9324  0.0136
  133OSM    C8F14432   5.458   1.188   7.342  0.3661 -0.2707  0.1296
  133OSM    H8F14433   5.412   1.104   7.399 -1.4977 -0.1280 -1.0910
  133OSM    H8G14434   5.439   1.284   7.394 -0.5235  0.0414 -0.7395
  133OSM    C9F14435   5.603   1.177   7.311  0.3623 -0.2178  0.2670
  133OSM    H9F14436   5.651   1.255   7.251 -0.5524  0.3137  0.2107
  133OSM   C10F14437   5.680   1.074   7.354  0.2008 -0.3725 -0.5254
  133OSM   H10F14438   5.789   1.072   7.339  0.3324 -2.2099  0.4261
  133OSM   C11F14439   5.633   0.950   7.428 -0.4350 -0.7489  0.3667
  133OSM   H11F14440   5.708   0.869   7.414 -0.5666 -1.2713  2.4338
  133OSM   H11G14441   5.532   0.916   7.398 -0.9324 -0.5820  1.7914
  133OSM   C12F14442   5.628   0.987   7.578 -0.8614 -0.9361 -0.5568
  133OSM   H12F14443   5.548   1.061   7.595  0.0423  0.0049 -0.2776
  133OSM   H12G14444   5.724   1.038   7.601 -1.9804  0.0624  2.3028
  133OSM   C13F14445   5.609   0.865   7.680 -0.5070 -0.5900 -0.0035
  133OSM   H13F14446   5.694   0.794   7.676 -0.1294 -0.2890  1.7277
  133OSM   H13G14447   5.514   0.814   7.654  0.6877 -1.8135 -2.2363
  133OSM   C14F14448   5.614   0.928   7.823 -0.1074  0.3618 -0.9334
  133OSM   H14F14449   5.511   0.969   7.828 -0.2117  0.2864 -2.1471
  133OSM   H14G14450   5.683   1.015   7.818 -1.6657  1.5595 -3.7479
  133OSM   C15F14451   5.634   0.832   7.944  0.0886  0.4173 -0.0855
  133OSM   H15F14452   5.734   0.783   7.936 -0.3834 -0.7320  0.8621
  133OSM   H15G14453   5.556   0.754   7.933  2.3731 -2.1876  0.8564
  133OSM   C16F14454   5.634   0.908   8.078 -0.2694 -0.1822 -0.6026
  133OSM   H16F14455   5.544   0.971   8.093 -0.1773 -0.4112  1.0002
  133OSM   H16G14456   5.723   0.974   8.087  0.3157 -0.9360 -0.7834
  133OSM   C17F14457   5.635   0.809   8.198  0.5208  0.5925  0.0304
  133OSM   H17F14458   5.727   0.747   8.194  0.8803  1.1666 -3.5897
  133OSM   H17G14459   5.542   0.749   8.193  0.6021  0.0863  2.7164
  133OSM   C18F14460   5.633   0.885   8.327  0.0873 -0.6147  0.0795
  133OSM   H18F14461   5.617   0.819   8.415  0.3769 -3.5654 -1.9038
  133OSM   H18G14462   5.547   0.954   8.322  1.2923  0.8714 -1.1071
  133OSM   H18H14463   5.721   0.953   8.329 -0.3233 -0.0940  0.8675
  134OSM      N14464   3.514   1.868   6.407  0.4808  0.8334  0.5177
  134OSM    C1514465   3.467   1.733   6.368 -1.0027  0.7637  0.3066
  134OSM   H15A14466   3.400   1.685   6.438  1.2881 -0.8014  1.5519
  134OSM   H15B14467   3.551   1.664   6.367 -0.1126  1.8173 -0.7247
  134OSM   H15C14468   3.418   1.725   6.272 -0.3223 -1.3597  0.0821
  134OSM    C1414469   3.582   1.860   6.542 -0.5234  0.0662  0.2555
  134OSM   H14A14470   3.506   1.830   6.612 -0.8751 -0.0313 -0.1647
  134OSM   H14B14471   3.617   1.959   6.568 -1.1947  1.0828 -2.3841
  134OSM   H14C14472   3.664   1.789   6.543 -1.5503 -1.2433 -1.7129
  134OSM    C1314473   3.622   1.912   6.302  1.0624  0.9502 -0.8613
  134OSM   H13A14474   3.668   2.006   6.331 -0.4233  1.1152  1.2415
  134OSM   H13B14475   3.564   1.934   6.214 -0.8008  0.5094  0.2097
  134OSM   H13C14476   3.700   1.839   6.285 -1.7112 -1.7210 -3.1574
  134OSM    C1214477   3.406   1.971   6.410  0.4894 -0.7663 -0.6857
  134OSM   H12A14478   3.447   2.061   6.455  1.6828 -1.4777 -0.3005
  134OSM   H12B14479   3.326   1.945   6.478 -0.6237  2.4736 -0.5677
  134OSM    C1114480   3.343   2.011   6.280  0.4242 -0.0200  0.4905
  134OSM   H11A14481   3.254   2.071   6.310  0.5155  0.0382  0.6426
  134OSM   H11B14482   3.305   1.925   6.221 -2.3697  0.8871  0.7883
  134OSM      P14483   3.469   2.230   6.232  0.3151 -0.1469  0.0389
  134OSM    O1314484   3.582   2.268   6.145 -0.0047  0.5535 -0.4191
  134OSM    O1414485   3.351   2.315   6.220 -0.2424 -0.2700  0.1251
  134OSM    O1114486   3.508   2.237   6.382 -0.2038  0.4302  0.1424
  134OSM    O1214487   3.428   2.086   6.194 -0.3958  0.4616  0.6383
  134OSM    C1S14488   3.554   2.369   6.417 -0.2727 -0.6732  0.4277
  134OSM    H1S14489   3.476   2.448   6.405  1.0598  0.5185 -0.8737
  134OSM    H1T14490   3.653   2.395   6.374  0.2213  0.5803  2.1825
  134OSM     NF14491   3.610   2.502   6.623 -0.6681  0.1826  0.6433
  134OSM    HNF14492   3.705   2.528   6.638 -0.5461 -0.4459  1.0002
  134OSM    C2S14493   3.591   2.370   6.568 -0.8300  0.0081 -0.6640
  134OSM    H2S14494   3.505   2.320   6.617 -1.0156 -0.9795 -1.9492
  134OSM    C3S14495   3.715   2.269   6.601  1.1083 -0.7860 -0.3842
  134OSM    H3S14496   3.810   2.323   6.582  0.2349  0.8343 -0.3296
  134OSM     O314497   3.712   2.149   6.519  0.3113  0.1978  0.0653
  134OSM    HO314498   3.636   2.155   6.461 -1.6305  0.9274  2.5242
  134OSM    C4S14499   3.720   2.231   6.750  0.4721  0.1704  0.3234
  134OSM    H4S14500   3.768   2.316   6.801 -1.6855  1.5706  0.1204
  134OSM    C5S14501   3.663   2.137   6.822 -0.8019 -0.4004  0.6406
  134OSM    H5S14502   3.582   2.075   6.779 -0.2322  0.1209 -1.2641
  134OSM    C6S14503   3.677   2.113   6.970 -0.1092 -0.0619 -0.6788
  134OSM    H6S14504   3.741   2.023   6.985 -2.2239 -1.6590 -0.8025
  134OSM    H6T14505   3.581   2.090   7.022  0.7233  0.9462  1.4219
  134OSM    C7S14506   3.728   2.234   7.049  0.3279 -0.0469 -1.3620
  134OSM    H7S14507   3.661   2.322   7.041  0.5108  0.1592 -0.7165
  134OSM    H7T14508   3.832   2.261   7.020  0.7803 -1.5841 -1.2332
  134OSM    C8S14509   3.738   2.198   7.201  0.3167  0.2431 -0.3982
  134OSM    H8S14510   3.699   2.094   7.204  4.4793 -1.4722  1.4681
  134OSM    H8T14511   3.671   2.264   7.261 -0.8217  0.9288 -2.3267
  134OSM    C9S14512   3.879   2.199   7.258 -0.3911 -0.2548  0.3495
  134OSM    H9S14513   3.950   2.154   7.185  1.8610  0.3225  2.0499
  134OSM    H9T14514   3.873   2.133   7.347 -0.8203  1.9125  2.0152
  134OSM   C10S14515   3.933   2.334   7.293 -0.6791  0.3386 -0.1173
  134OSM   H10S14516   3.903   2.410   7.217  1.8878  0.2543 -1.3545
  134OSM   H10T14517   4.044   2.332   7.287 -0.4563 -3.6862  2.1507
  134OSM   C11S14518   3.906   2.383   7.431  0.6722 -0.0989  0.1989
  134OSM   H11S14519   3.798   2.402   7.445  0.2242 -0.9955 -1.6435
  134OSM   H11T14520   3.945   2.485   7.450  0.5961 -0.0700  0.1996
  134OSM   C12S14521   3.953   2.298   7.552 -0.2749 -0.6094 -0.2742
  134OSM   H12S14522   4.062   2.312   7.569 -0.5592  2.7622 -0.4901
  134OSM   H12T14523   3.911   2.195   7.546 -2.1377  0.0678  0.1983
  134OSM   C13S14524   3.879   2.353   7.679 -0.5020  0.3704 -0.2862
  134OSM   H13S14525   3.768   2.357   7.676 -0.4861  0.9958 -0.3782
  134OSM   H13T14526   3.911   2.460   7.687  2.2864 -0.4812  1.2722
  134OSM   C14S14527   3.924   2.282   7.810 -0.2172 -0.0530  0.1031
  134OSM   H14S14528   4.034   2.297   7.823 -0.5137  2.3550  0.2704
  134OSM   H14T14529   3.912   2.172   7.802  0.1821  0.0769 -3.7198
  134OSM   C15S14530   3.854   2.327   7.936 -0.6379 -0.1336 -0.4733
  134OSM   H15S14531   3.759   2.272   7.951 -2.0717  2.1829 -0.4990
  134OSM   H15T14532   3.840   2.437   7.927 -0.2218 -0.1560 -1.5933
  134OSM   C16S14533   3.938   2.303   8.056  0.2951  0.3093 -0.0599
  134OSM   H16S14534   4.044   2.334   8.040 -0.2438  2.9368  0.8845
  134OSM   H16T14535   3.943   2.194   8.079 -1.1789  0.7945  3.0726
  134OSM   C17S14536   3.900   2.361   8.193 -0.5566  0.2576  0.1596
  134OSM   H17S14537   3.878   2.468   8.172  3.0278  1.0611 -0.1050
  134OSM   H17T14538   3.984   2.344   8.264 -0.0048  1.6055 -0.1314
  134OSM   C18S14539   3.782   2.278   8.245 -0.0092 -0.2582  0.8245
  134OSM   H18S14540   3.755   2.320   8.345  0.0840 -1.5240  1.4137
  134OSM   H18T14541   3.809   2.173   8.271  2.7252 -0.4081 -2.0927
  134OSM   H18U14542   3.694   2.301   8.182  1.1484  1.7785 -0.1400
  134OSM    C1F14543   3.515   2.595   6.636  0.5246 -0.1711  0.0234
  134OSM     OF14544   3.395   2.565   6.621 -0.3298  0.1018 -0.1533
  134OSM    C2F14545   3.561   2.739   6.671  0.0364  0.1203  0.0876
  134OSM    H2F14546   3.668   2.732   6.703 -0.3656 -0.9901  1.3149
  134OSM    H2G14547   3.503   2.777   6.758 -0.0681  0.4968 -0.1463
  134OSM    C3F14548   3.552   2.841   6.547  0.3501  0.3830 -0.8174
  134OSM    H3F14549   3.467   2.817   6.480 -0.7125  0.8467  0.3087
  134OSM    H3G14550   3.646   2.837   6.489  0.9008  0.2590  0.0693
  134OSM    C4F14551   3.539   2.984   6.604 -0.6478 -0.0149 -0.3606
  134OSM    H4F14552   3.474   2.987   6.694 -0.4639 -0.8098 -0.1945
  134OSM    H4G14553   3.493   3.049   6.526 -1.6724 -0.9174 -0.5319
  134OSM    C5F14554   3.676   3.041   6.651 -0.1327  0.5290 -0.2479
  134OSM    H5F14555   3.744   3.076   6.570  1.4144  1.6548  1.4640
  134OSM    H5G14556   3.728   2.956   6.699 -0.4635 -0.1115 -0.9982
  134OSM    C6F14557   3.656   3.163   6.751 -0.7346  0.7295  0.1340
  134OSM    H6F14558   3.598   3.150   6.845  0.2563  0.4892  0.7322
  134OSM    H6G14559   3.582   3.228   6.701 -0.0273  1.7425  0.3486
  134OSM    C7F14560   3.784   3.240   6.778 -0.1134  0.1035  0.1785
  134OSM    H7F14561   3.864   3.163   6.775 -0.3575 -0.1511  0.1712
  134OSM    H7G14562   3.791   3.303   6.869 -1.4121  0.3307  0.1437
  134OSM    C8F14563   3.817   3.332   6.657 -0.2801 -0.4628 -0.6847
  134OSM    H8F14564   3.842   3.274   6.566  1.8450  1.3490 -1.3528
  134OSM    H8G14565   3.906   3.392   6.686  0.8448 -2.8753  1.2387
  134OSM    C9F14566   3.718   3.438   6.616 -0.2140  0.3726 -0.2089
  134OSM    H9F14567   3.670   3.416   6.520  0.9611  1.0694 -0.9640
  134OSM   C10F14568   3.691   3.557   6.680  0.1033 -1.1752  0.6629
  134OSM   H10F14569   3.611   3.618   6.635  0.6835 -1.3498 -0.6727
  134OSM   C11F14570   3.774   3.611   6.798 -0.5092  0.2275  0.3126
  134OSM   H11F14571   3.853   3.677   6.756  0.1790  0.8438  2.4489
  134OSM   H11G14572   3.819   3.529   6.858 -0.2310 -0.1102 -0.3511
  134OSM   C12F14573   3.695   3.692   6.890  0.5853  0.6508  0.3712
  134OSM   H12F14574   3.597   3.646   6.917  0.6895  1.1100  1.6344
  134OSM   H12G14575   3.675   3.785   6.833 -1.7880 -0.7648 -1.3029
  134OSM   C13F14576   3.760   3.731   7.022 -0.0241  0.7339 -0.1306
  134OSM   H13F14577   3.864   3.762   6.998  0.5779 -1.0859 -0.0498
  134OSM   H13G14578   3.771   3.636   7.080  1.9869  0.3650 -1.0455
  134OSM   C14F14579   3.680   3.825   7.112 -0.0116  0.1543 -0.3763
  134OSM   H14F14580   3.586   3.769   7.134  1.8199 -3.7210 -1.5516
  134OSM   H14G14581   3.654   3.923   7.066 -0.3825  0.7058  0.9785
  134OSM   C15F14582   3.741   3.861   7.247  0.2021  0.5999 -0.0272
  134OSM   H15F14583   3.688   3.952   7.282  0.4470  0.7431 -0.0250
  134OSM   H15G14584   3.843   3.899   7.224 -0.6352  1.9000 -1.8380
  134OSM   C16F14585   3.742   3.738   7.339 -0.4920  0.1054 -0.2245
  134OSM   H16F14586   3.826   3.672   7.308 -1.0830  0.0208 -1.7410
  134OSM   H16G14587   3.650   3.677   7.327 -0.4339  0.0452 -0.3755
  134OSM   C17F14588   3.756   3.780   7.487 -0.0472 -0.3323 -0.3127
  134OSM   H17F14589   3.672   3.847   7.518  0.9667  0.2036  1.4031
  134OSM   H17G14590   3.844   3.846   7.505 -0.8255 -0.0423  3.0473
  134OSM   C18F14591   3.761   3.669   7.579 -0.6048  0.4081  0.4950
  134OSM   H18F14592   3.658   3.649   7.615  0.2778 -3.7945  1.1223
  134OSM   H18G14593   3.831   3.674   7.664  1.8497 -1.2965 -1.2751
  134OSM   H18H14594   3.801   3.576   7.533 -0.4578 -0.2875  1.9948
  135OSM      N14595   2.705   2.685   5.916  0.5413  0.3867 -0.3352
  135OSM    C1514596   2.557   2.666   5.878  0.0261 -0.0810  0.6744
  135OSM   H15A14597   2.542   2.630   5.778  1.2701  0.9640  0.0741
  135OSM   H15B14598   2.503   2.758   5.895  2.1558  1.3270  0.1771
  135OSM   H15C14599   2.517   2.595   5.949  1.7436  1.7393  3.7134
  135OSM    C1414600   2.796   2.573   5.864  0.1145 -0.3686 -0.4940
  135OSM   H14A14601   2.754   2.521   5.779  1.2959 -1.0586 -0.6834
  135OSM   H14B14602   2.807   2.496   5.939 -0.7963 -2.2759 -2.2003
  135OSM   H14C14603   2.887   2.626   5.839  0.9749  0.1286  3.0985
  135OSM    C1314604   2.744   2.807   5.847 -0.3567 -0.7447 -0.5999
  135OSM   H13A14605   2.852   2.810   5.852 -0.4361  1.3292  1.0749
  135OSM   H13B14606   2.699   2.895   5.891  0.9759 -0.2512 -0.1697
  135OSM   H13C14607   2.711   2.795   5.745  0.1975  0.7980 -0.9891
  135OSM    C1214608   2.715   2.703   6.065 -0.1141 -0.0723 -0.5479
  135OSM   H12A14609   2.653   2.784   6.100 -1.0664 -0.5404 -1.1154
  135OSM   H12B14610   2.816   2.739   6.080 -0.8374  1.2783  1.4379
  135OSM    C1114611   2.666   2.588   6.156 -0.2109 -0.1631 -0.3822
  135OSM   H11A14612   2.556   2.577   6.144 -0.6600  1.2806  1.9183
  135OSM   H11B14613   2.679   2.640   6.253 -0.4874  2.0218 -1.4654
  135OSM      P14614   2.682   2.342   6.214 -0.1364 -0.0587 -0.3156
  135OSM    O1314615   2.551   2.372   6.280  0.1105 -0.1164 -0.1856
  135OSM    O1414616   2.684   2.218   6.134 -0.0880  0.6215 -0.3709
  135OSM    O1114617   2.790   2.339   6.324  0.3788  0.1317  0.0132
  135OSM    O1214618   2.737   2.467   6.139 -0.0235 -0.0153 -0.1744
  135OSM    C1S14619   2.819   2.442   6.420  0.2763  0.0394 -0.6453
  135OSM    H1S14620   2.726   2.497   6.445  1.1857  0.8575  1.1240
  135OSM    H1T14621   2.882   2.525   6.382 -0.3521  0.2495 -1.2375
  135OSM     NF14622   2.919   2.495   6.629  0.3968  0.4234 -0.2506
  135OSM    HNF14623   3.016   2.511   6.643  0.1245  1.9452  0.0383
  135OSM    C2S14624   2.900   2.389   6.543 -0.0834 -0.1482 -0.0202
  135OSM    H2S14625   2.841   2.318   6.604  0.8236 -0.4153  0.5587
  135OSM    C3S14626   3.029   2.312   6.496  0.2155  0.3779  0.0775
  135OSM    H3S14627   3.086   2.392   6.444  2.6429 -1.5816 -0.4420
  135OSM     O314628   3.009   2.202   6.403 -0.4110 -0.1834  0.0655
  135OSM    HO314629   2.919   2.219   6.374  0.1782  0.1792 -1.7088
  135OSM    C4S14630   3.103   2.257   6.624  0.3151  0.4907  1.0326
  135OSM    H4S14631   3.036   2.205   6.693 -0.5353  2.6501  1.9462
  135OSM    C5S14632   3.230   2.281   6.655  0.6498 -0.1586 -0.3773
  135OSM    H5S14633   3.295   2.329   6.580 -0.6950  0.7738 -0.9815
  135OSM    C6S14634   3.286   2.217   6.780  0.0085 -0.9727  0.2862
  135OSM    H6S14635   3.395   2.204   6.762  0.5169  1.0904  1.4514
  135OSM    H6T14636   3.241   2.121   6.811 -0.9564 -0.7449 -0.3581
  135OSM    C7S14637   3.279   2.317   6.902  0.0445  0.7721 -0.5959
  135OSM    H7S14638   3.189   2.381   6.892 -1.6969 -1.2104  1.2926
  135OSM    H7T14639   3.364   2.388   6.892  0.8752 -0.0538  0.2301
  135OSM    C8S14640   3.285   2.236   7.033 -0.1356 -0.3084  0.1892
  135OSM    H8S14641   3.363   2.157   7.022  1.4166  1.2163 -0.1084
  135OSM    H8T14642   3.187   2.184   7.044  0.2977 -0.9008  1.4064
  135OSM    C9S14643   3.314   2.308   7.169  0.1213 -0.1116  0.9639
  135OSM    H9S14644   3.237   2.386   7.191  0.5506  0.6625 -0.1617
  135OSM    H9T14645   3.415   2.352   7.158 -0.1318  0.4695  0.9156
  135OSM   C10S14646   3.336   2.204   7.277 -0.4998 -0.0341  0.3053
  135OSM   H10S14647   3.426   2.145   7.251  0.0081  1.1204 -0.6437
  135OSM   H10T14648   3.254   2.130   7.265 -2.5169  1.8357  1.8450
  135OSM   C11S14649   3.363   2.253   7.416 -0.2672  0.1802 -0.0137
  135OSM   H11S14650   3.278   2.315   7.451 -0.6575 -0.1894 -0.3017
  135OSM   H11T14651   3.460   2.308   7.409  0.5512 -1.3001 -0.7077
  135OSM   C12S14652   3.371   2.138   7.523  0.1664 -0.7817  0.1550
  135OSM   H12S14653   3.455   2.069   7.504  1.8839  1.6027 -1.5503
  135OSM   H12T14654   3.277   2.080   7.508 -1.2953  0.5334  3.2800
  135OSM   C13S14655   3.387   2.212   7.658 -0.0180 -0.0475  0.4815
  135OSM   H13S14656   3.311   2.292   7.671  0.3309  0.1126  1.5977
  135OSM   H13T14657   3.492   2.247   7.660 -0.1942  0.5843 -0.6196
  135OSM   C14S14658   3.370   2.113   7.777  0.3895  1.0847  0.5537
  135OSM   H14S14659   3.431   2.022   7.757 -0.6480  0.8024 -1.5911
  135OSM   H14T14660   3.261   2.092   7.781  0.4278  1.0663  1.8590
  135OSM   C15S14661   3.400   2.167   7.917 -0.3946  0.2632 -0.3370
  135OSM   H15S14662   3.354   2.266   7.935  0.2949  0.8128 -1.4880
  135OSM   H15T14663   3.507   2.172   7.946 -0.8619  1.2634  1.3587
  135OSM   C16S14664   3.330   2.073   8.018 -0.0066 -0.5176  0.1557
  135OSM   H16S14665   3.349   1.967   7.991 -0.6910 -0.3489 -1.0199
  135OSM   H16T14666   3.220   2.086   8.010  0.1869  0.2820 -1.5289
  135OSM   C17S14667   3.383   2.102   8.161  0.7125 -0.6799  0.1483
  135OSM   H17S14668   3.297   2.119   8.230  1.9558 -1.6046  1.9995
  135OSM   H17T14669   3.439   2.197   8.159  0.4149 -0.4275  1.9805
  135OSM   C18S14670   3.467   1.992   8.218  0.4057 -0.7660 -0.3783
  135OSM   H18S14671   3.533   2.032   8.298 -2.4749  1.4845  1.0399
  135OSM   H18T14672   3.540   1.944   8.149  2.0274  1.3638 -0.2495
  135OSM   H18U14673   3.413   1.908   8.266 -0.9030 -0.1860 -0.8099
  135OSM    C1F14674   2.820   2.578   6.683 -0.1089 -0.4136 -0.2252
  135OSM     OF14675   2.698   2.565   6.668  0.3476 -0.2582  0.0824
  135OSM    C2F14676   2.877   2.699   6.752  0.2917 -0.7679 -1.0488
  135OSM    H2F14677   2.898   2.785   6.684  0.0870  1.9588  2.0714
  135OSM    H2G14678   2.968   2.667   6.808 -0.5785 -0.4774  0.5953
  135OSM    C3F14679   2.784   2.765   6.859  0.8351  0.2752  0.1435
  135OSM    H3F14680   2.688   2.795   6.812  0.8837 -1.1651 -0.9568
  135OSM    H3G14681   2.832   2.855   6.902  0.4332  1.2375 -1.3701
  135OSM    C4F14682   2.767   2.675   6.985  0.3985 -0.1407  0.0859
  135OSM    H4F14683   2.869   2.657   7.024 -0.2699 -2.6796  0.8949
  135OSM    H4G14684   2.723   2.578   6.953 -0.7111  0.7134 -1.0950
  135OSM    C5F14685   2.669   2.733   7.086  0.1446 -0.1418  0.2742
  135OSM    H5F14686   2.630   2.649   7.148  0.6273 -1.3315 -0.9774
  135OSM    H5G14687   2.578   2.767   7.031  0.7001 -1.4815 -1.5913
  135OSM    C6F14688   2.722   2.845   7.179 -0.4399 -0.4372 -0.3846
  135OSM    H6F14689   2.733   2.948   7.139 -0.2764  0.0356  0.8403
  135OSM    H6G14690   2.823   2.818   7.217 -1.2166 -1.4111  1.1245
  135OSM    C7F14691   2.640   2.868   7.309 -0.3815  0.6771 -0.4696
  135OSM    H7F14692   2.534   2.863   7.275 -1.2544  1.5378  1.9284
  135OSM    H7G14693   2.653   2.970   7.351 -1.1831  1.1385 -1.3111
  135OSM    C8F14694   2.667   2.754   7.414 -0.2061 -0.3975 -0.8209
  135OSM    H8F14695   2.668   2.658   7.358  0.5396  0.2767 -2.0140
  135OSM    H8G14696   2.580   2.742   7.482 -0.5505 -2.2493 -1.5165
  135OSM    C9F14697   2.797   2.776   7.494  0.1243 -0.9173 -0.7205
  135OSM    H9F14698   2.880   2.739   7.432 -0.7941  0.3648 -2.8306
  135OSM   C10F14699   2.804   2.832   7.617 -0.0997  0.1693  0.1159
  135OSM   H10F14700   2.901   2.843   7.667  0.2241 -1.3967 -0.1267
  135OSM   C11F14701   2.688   2.880   7.703  0.0480 -0.0043 -0.4272
  135OSM   H11F14702   2.638   2.792   7.748  1.8282 -1.0704 -0.4560
  135OSM   H11G14703   2.618   2.940   7.641  2.7688  1.2697 -2.4798
  135OSM   C12F14704   2.719   2.965   7.827 -0.2785  0.3888 -1.3594
  135OSM   H12F14705   2.621   3.011   7.850 -0.0805  0.7314 -1.1913
  135OSM   H12G14706   2.789   3.046   7.799 -0.5835  0.7072 -1.2043
  135OSM   C13F14707   2.772   2.896   7.954 -0.1828 -0.1746 -0.6199
  135OSM   H13F14708   2.883   2.892   7.955 -0.0282  2.2541  0.6596
  135OSM   H13G14709   2.733   2.792   7.954 -0.2360 -0.1770  0.7715
  135OSM   C14F14710   2.730   2.967   8.083  0.6136  0.2313  0.4645
  135OSM   H14F14711   2.626   2.939   8.111  0.5437 -0.7822 -0.7335
  135OSM   H14G14712   2.734   3.074   8.056  0.0536  0.6819  2.0199
  135OSM   C15F14713   2.833   2.960   8.200  0.3313  0.0921 -0.2738
  135OSM   H15F14714   2.934   2.999   8.174  0.3224  0.7223  0.5782
  135OSM   H15G14715   2.840   2.854   8.233  0.0453  0.5062  1.1978
  135OSM   C16F14716   2.778   3.054   8.317  1.0273 -0.2060 -0.4524
  135OSM   H16F14717   2.682   3.004   8.342  0.3215  0.3290 -1.9424
  135OSM   H16G14718   2.751   3.153   8.276 -1.1606 -0.1365  1.0163
  135OSM   C17F14719   2.876   3.089   8.431 -0.3778  0.0470  0.0543
  135OSM   H17F14720   2.982   3.084   8.396 -0.7414 -0.3265 -1.0494
  135OSM   H17G14721   2.862   3.004   8.501 -0.1963  1.1979  1.5163
  135OSM   C18F14722   2.843   3.221   8.489  0.3664  0.1429  0.2267
  135OSM   H18F14723   2.735   3.242   8.506  0.3517  0.0908  0.1961
  135OSM   H18G14724   2.874   3.300   8.417  1.0485 -1.0121 -0.7883
  135OSM   H18H14725   2.908   3.245   8.577 -1.0951 -0.7498  1.6026
  136OSM      N14726   0.517   4.256   5.768  0.1505  0.4003 -0.2180
  136OSM    C1514727   0.455   4.378   5.730 -0.1959  0.2117  0.6834
  136OSM   H15A14728   0.514   4.462   5.763  0.5522 -0.8498  2.1469
  136OSM   H15B14729   0.358   4.390   5.775  0.1128  0.7491  1.2231
  136OSM   H15C14730   0.442   4.380   5.623 -1.7991 -0.2902  0.8467
  136OSM    C1414731   0.441   4.137   5.715  0.0952  0.4667  0.1901
  136OSM   H14A14732   0.477   4.114   5.616 -0.7040  2.0665 -0.5111
  136OSM   H14B14733   0.333   4.149   5.711 -0.2172 -2.1403 -0.4513
  136OSM   H14C14734   0.465   4.059   5.785 -0.5852 -0.3152 -0.4368
  136OSM    C1314735   0.656   4.247   5.709  0.4641 -0.5250 -0.2801
  136OSM   H13A14736   0.713   4.338   5.724 -2.2383  1.2355 -0.0079
  136OSM   H13B14737   0.656   4.234   5.602 -1.8724 -1.7641 -0.1909
  136OSM   H13C14738   0.707   4.163   5.754 -2.6803 -2.5836 -0.2413
  136OSM    C1214739   0.527   4.257   5.921  0.1623 -0.3436  0.3788
  136OSM   H12A14740   0.424   4.263   5.953  0.0644  1.3598 -0.1262
  136OSM   H12B14741   0.577   4.348   5.952  0.7160  0.0087 -1.4401
  136OSM    C1114742   0.601   4.139   5.987  0.2655 -0.2690 -0.1778
  136OSM   H11A14743   0.582   4.039   5.943  2.1928 -0.3500 -0.9369
  136OSM   H11B14744   0.562   4.132   6.091  0.5877  0.2209 -0.0188
  136OSM      P14745   0.847   4.064   6.042 -0.1365  0.2311  0.0898
  136OSM    O1314746   0.796   3.924   6.009 -0.0584  0.4667  0.2108
  136OSM    O1414747   0.986   4.097   5.997 -0.3038  0.0085 -0.4441
  136OSM    O1114748   0.834   4.083   6.199  0.0458  0.1949 -0.0909
  136OSM    O1214749   0.742   4.161   5.979 -0.1193  0.0966  0.1286
  136OSM    C1S14750   0.838   4.218   6.253 -0.0866 -0.1922 -0.0045
  136OSM    H1S14751   0.738   4.262   6.233  0.3732 -0.0065 -2.1798
  136OSM    H1T14752   0.920   4.279   6.210  0.5676 -1.0905 -0.0504
  136OSM     NF14753   0.859   4.363   6.437 -0.2756 -0.3095  0.1171
  136OSM    HNF14754   0.938   4.419   6.462 -1.6050  0.7327  2.2107
  136OSM    C2S14755   0.874   4.222   6.403 -0.9684  0.4552  0.5919
  136OSM    H2S14756   0.802   4.158   6.459 -0.2627 -2.2147 -1.3069
  136OSM    C3S14757   1.013   4.154   6.428 -1.2984  0.4186  0.9052
  136OSM    H3S14758   1.088   4.212   6.370 -3.0014  0.8539 -0.9834
  136OSM     O314759   1.027   4.020   6.396  0.6165 -0.3614  0.2557
  136OSM    HO314760   0.946   3.995   6.351 -1.4967 -1.6155  4.3175
  136OSM    C4S14761   1.049   4.176   6.573  0.4745 -0.2821  0.0094
  136OSM    H4S14762   1.071   4.281   6.597  1.6169 -0.4590 -0.2024
  136OSM    C5S14763   1.038   4.095   6.678  0.2541 -0.4688  0.0143
  136OSM    H5S14764   0.975   4.005   6.663  0.2650 -0.3739 -0.6561
  136OSM    C6S14765   1.067   4.119   6.823 -0.3177  0.2152 -1.0676
  136OSM    H6S14766   1.056   4.027   6.884  0.6992  0.0031 -1.1995
  136OSM    H6T14767   0.989   4.191   6.858  0.5429  0.6205  0.0902
  136OSM    C7S14768   1.206   4.181   6.847  0.3385 -0.0749  0.3673
  136OSM    H7S14769   1.201   4.283   6.803 -0.9850  0.1901  1.0720
  136OSM    H7T14770   1.278   4.110   6.801  2.0479  1.1321  1.0880
  136OSM    C8S14771   1.231   4.188   7.003 -0.1600 -0.2601 -1.1262
  136OSM    H8S14772   1.231   4.083   7.042 -3.8851  0.5067  1.4410
  136OSM    H8T14773   1.151   4.241   7.059  0.1848 -1.2688  0.3926
  136OSM    C9S14774   1.362   4.265   7.023  0.1162  0.0258  0.0035
  136OSM    H9S14775   1.349   4.375   7.013  1.0094  0.2210  0.8062
  136OSM    H9T14776   1.421   4.221   6.940 -1.0473  0.6219 -1.1849
  136OSM   C10S14777   1.428   4.242   7.160 -0.0286  0.3181 -0.0900
  136OSM   H10S14778   1.537   4.258   7.152  0.6150 -1.1880  3.5900
  136OSM   H10T14779   1.398   4.138   7.187 -2.0511  0.6092 -0.9802
  136OSM   C11S14780   1.376   4.329   7.270  0.2742 -0.3109 -0.0315
  136OSM   H11S14781   1.266   4.325   7.279 -0.0806  2.5614 -1.6415
  136OSM   H11T14782   1.404   4.436   7.256 -2.3924  0.4925  0.3407
  136OSM   C12S14783   1.442   4.298   7.403  0.9404 -0.4229 -0.0217
  136OSM   H12S14784   1.553   4.289   7.395  0.9917  0.5465 -0.5598
  136OSM   H12T14785   1.402   4.201   7.438  1.8399 -1.0630 -0.7261
  136OSM   C13S14786   1.394   4.382   7.525  0.0986 -0.3500 -0.0195
  136OSM   H13S14787   1.289   4.413   7.505 -0.7240 -0.2360  3.6867
  136OSM   H13T14788   1.441   4.483   7.526  0.3977 -0.4454 -1.9979
  136OSM   C14S14789   1.405   4.317   7.664 -0.0559 -0.0293 -0.9981
  136OSM   H14S14790   1.512   4.291   7.676  0.3624  2.0051  0.0886
  136OSM   H14T14791   1.353   4.219   7.662  1.6604 -1.0604  0.9401
  136OSM   C15S14792   1.371   4.411   7.784 -0.1740  0.1055  0.2146
  136OSM   H15S14793   1.262   4.434   7.778 -0.3765 -0.2472  2.0440
  136OSM   H15T14794   1.422   4.510   7.777 -1.1246  0.9628  3.5830
  136OSM   C16S14795   1.398   4.346   7.918  0.8012 -0.6977  0.3947
  136OSM   H16S14796   1.364   4.418   7.995 -2.3170  0.7994 -2.1200
  136OSM   H16T14797   1.501   4.311   7.939  1.5493  0.5996 -0.8982
  136OSM   C17S14798   1.298   4.230   7.940 -0.1742  0.8492 -0.2817
  136OSM   H17S14799   1.345   4.143   7.889  1.6556 -0.7409  3.6638
  136OSM   H17T14800   1.193   4.238   7.904  0.1183 -0.2776 -1.4640
  136OSM   C18S14801   1.293   4.184   8.087 -0.2253 -0.6478  0.4607
  136OSM   H18S14802   1.223   4.099   8.099  1.9060 -2.6966 -0.6995
  136OSM   H18T14803   1.261   4.276   8.141  0.5035 -1.0178  1.5329
  136OSM   H18U14804   1.394   4.151   8.119 -0.4581 -1.8784 -0.0343
  136OSM    C1F14805   0.745   4.426   6.454  0.1180  0.5392  0.0009
  136OSM     OF14806   0.636   4.370   6.457  0.3723 -0.4251 -0.1464
  136OSM    C2F14807   0.754   4.578   6.489 -0.0579  0.1396 -0.1962
  136OSM    H2F14808   0.752   4.642   6.398 -0.6736 -2.0895 -1.8465
  136OSM    H2G14809   0.856   4.581   6.532  0.1365 -2.1884 -0.3558
  136OSM    C3F14810   0.648   4.633   6.591 -0.3291  0.1824  0.1835
  136OSM    H3F14811   0.642   4.593   6.694 -1.0129  3.1448  1.4089
  136OSM    H3G14812   0.549   4.633   6.541  0.0663  0.8518 -0.6197
  136OSM    C4F14813   0.685   4.785   6.613  0.7474 -0.2488 -0.4574
  136OSM    H4F14814   0.676   4.840   6.517  2.0129  0.6323 -0.1066
  136OSM    H4G14815   0.792   4.800   6.639  0.7635  0.6623 -0.9926
  136OSM    C5F14816   0.583   4.854   6.712  0.4269 -0.4713  0.2453
  136OSM    H5F14817   0.482   4.833   6.671  0.4083 -0.5048  0.3096
  136OSM    H5G14818   0.599   4.963   6.700 -0.0008 -0.3084  1.0921
  136OSM    C6F14819   0.609   4.822   6.855  0.2918 -0.4807 -0.3508
  136OSM    H6F14820   0.718   4.817   6.877  0.3570  1.1783 -0.1643
  136OSM    H6G14821   0.568   4.719   6.868 -1.3261  0.2471  0.5986
  136OSM    C7F14822   0.520   4.914   6.947  0.7574 -0.2805 -0.8347
  136OSM    H7F14823   0.413   4.908   6.921 -0.1260  1.3950  1.9202
  136OSM    H7G14824   0.541   5.022   6.930 -1.1456  0.7241  2.3085
  136OSM    C8F14825   0.539   4.878   7.092  0.8928  0.1423 -0.3446
  136OSM    H8F14826   0.648   4.862   7.108  1.4834  2.1214 -2.0169
  136OSM    H8G14827   0.482   4.784   7.109 -0.2901  0.8736 -0.1438
  136OSM    C9F14828   0.478   4.988   7.175 -0.4966  1.4315 -0.2793
  136OSM    H9F14829   0.409   5.049   7.115 -1.2183  0.3827 -0.5471
  136OSM   C10F14830   0.491   5.013   7.306  0.4950 -0.6652  0.0701
  136OSM   H10F14831   0.441   5.106   7.338 -0.2496 -0.2526 -2.1034
  136OSM   C11F14832   0.562   4.928   7.406 -0.1942 -0.2701  0.5935
  136OSM   H11F14833   0.632   4.858   7.356 -0.5818  0.1161 -0.5227
  136OSM   H11G14834   0.487   4.857   7.449 -0.7138 -1.4205 -2.0481
  136OSM   C12F14835   0.631   5.001   7.514 -0.5103  0.5957  0.2024
  136OSM   H12F14836   0.668   5.101   7.484  0.9023  0.8462  2.4971
  136OSM   H12G14837   0.723   4.944   7.537  0.3047  1.8860  0.2465
  136OSM   C13F14838   0.546   5.032   7.648 -0.0432 -0.2974  0.1628
  136OSM   H13F14839   0.480   4.944   7.664  0.1764 -0.5650 -0.3822
  136OSM   H13G14840   0.478   5.119   7.633  2.3913  1.5135 -1.0353
  136OSM   C14F14841   0.636   5.056   7.762 -0.5549  0.0544 -1.0347
  136OSM   H14F14842   0.707   5.137   7.736 -0.7121 -0.0548 -1.8290
  136OSM   H14G14843   0.702   4.969   7.783 -1.2390 -0.1050  0.6001
  136OSM   C15F14844   0.552   5.094   7.884  0.1193 -1.0294  0.0410
  136OSM   H15F14845   0.486   5.004   7.889  0.8006 -1.5393  0.0590
  136OSM   H15G14846   0.502   5.191   7.868  1.1058 -0.8429 -2.2983
  136OSM   C16F14847   0.632   5.109   8.012 -0.7767 -0.4798 -0.2485
  136OSM   H16F14848   0.696   5.199   8.008 -0.6256 -0.4993  1.3345
  136OSM   H16G14849   0.705   5.025   8.013  0.7292  0.7360 -1.9510
  136OSM   C17F14850   0.553   5.117   8.141  0.6563  0.3669  0.3893
  136OSM   H17F14851   0.494   5.027   8.167 -0.5520  0.7384 -0.9619
  136OSM   H17G14852   0.479   5.197   8.117 -0.8206 -1.5732 -1.9798
  136OSM   C18F14853   0.626   5.154   8.270 -0.0921 -0.3798 -0.2578
  136OSM   H18F14854   0.550   5.162   8.351  0.5249  3.1033  0.1393
  136OSM   H18G14855   0.684   5.249   8.262 -1.6798  0.8490  1.6259
  136OSM   H18H14856   0.701   5.085   8.314 -1.3365 -0.0234  2.7210
  137OSM      N14857   1.218   1.217   6.185  0.0399  0.1051  0.3593
  137OSM    C1514858   1.253   1.309   6.068  0.1004  0.0910 -0.0437
  137OSM   H15A14859   1.327   1.382   6.097  0.7652 -0.2517 -0.8510
  137OSM   H15B14860   1.166   1.358   6.027 -0.3422  0.4836  1.2999
  137OSM   H15C14861   1.300   1.255   5.987 -0.8023  0.2805 -0.7099
  137OSM    C1414862   1.150   1.092   6.137 -0.3171  0.6833 -0.0257
  137OSM   H14A14863   1.216   1.019   6.093 -2.3886  0.2875 -2.7160
  137OSM   H14B14864   1.069   1.110   6.067 -0.2863 -1.1378 -0.5687
  137OSM   H14C14865   1.104   1.043   6.222  1.6318 -1.1136  0.0769
  137OSM    C1314866   1.341   1.175   6.256 -0.2100 -0.1240  0.3529
  137OSM   H13A14867   1.378   1.257   6.317 -1.1041  1.3546 -1.0059
  137OSM   H13B14868   1.423   1.151   6.190  0.9337 -2.4602  2.4782
  137OSM   H13C14869   1.320   1.091   6.321  1.4288 -0.7522  0.1237
  137OSM    C1214870   1.128   1.294   6.286 -0.2497  0.4795  0.8013
  137OSM   H12A14871   1.036   1.325   6.239 -1.2086 -0.7464  1.7901
  137OSM   H12B14872   1.176   1.390   6.301  0.0012  0.4040  0.4874
  137OSM    C1114873   1.087   1.221   6.421 -0.2119 -0.6984  0.2194
  137OSM   H11A14874   1.028   1.290   6.485 -0.2029 -1.5087  1.1234
  137OSM   H11B14875   1.179   1.202   6.480 -0.1270 -0.8703  0.0316
  137OSM      P14876   0.863   1.093   6.382  0.3140  0.0881  0.3327
  137OSM    O1314877   0.817   1.235   6.374  0.3595  0.0024 -0.2887
  137OSM    O1414878   0.817   1.008   6.271 -0.2364 -0.0901 -0.3648
  137OSM    O1114879   0.814   1.030   6.522  0.6847  0.4150 -0.1572
  137OSM    O1214880   1.017   1.097   6.396  0.0203  0.3396  0.5108
  137OSM    C1S14881   0.919   0.988   6.619  0.6259 -0.4792  0.5173
  137OSM    H1S14882   1.020   1.033   6.613  1.1324 -1.5120  1.0177
  137OSM    H1T14883   0.942   0.880   6.603 -1.1444 -0.7627 -0.4295
  137OSM     NF14884   0.972   0.959   6.865  0.7962 -0.0871  0.0216
  137OSM    HNF14885   0.970   0.869   6.908 -0.9328 -0.9776 -1.8083
  137OSM    C2S14886   0.867   0.991   6.766  0.0309 -0.1830 -0.4344
  137OSM    H2S14887   0.836   1.096   6.781 -0.5632 -0.3641 -0.3862
  137OSM    C3S14888   0.739   0.904   6.788 -0.3007 -0.0259  0.3757
  137OSM    H3S14889   0.766   0.798   6.768 -1.4603 -0.3818  0.6337
  137OSM     O314890   0.638   0.921   6.692  0.2338 -0.7429 -0.1295
  137OSM    HO314891   0.667   0.985   6.627  0.6879 -0.8459 -0.0322
  137OSM    C4S14892   0.691   0.902   6.930  0.0108  0.3036 -0.0146
  137OSM    H4S14893   0.730   0.818   6.990 -2.9282  0.3878  2.2223
  137OSM    C5S14894   0.588   0.968   6.981  0.6943  0.4698  0.5009
  137OSM    H5S14895   0.521   1.025   6.916  0.0163  0.5636  1.2717
  137OSM    C6S14896   0.547   0.968   7.122 -0.2493 -0.7614 -0.6748
  137OSM    H6S14897   0.466   0.895   7.143  1.0739 -2.4203 -1.0885
  137OSM    H6T14898   0.518   1.069   7.159  1.8756 -0.0973 -0.6556
  137OSM    C7S14899   0.671   0.934   7.213  0.2820 -0.3268  0.0384
  137OSM    H7S14900   0.749   1.011   7.198  0.4623 -0.3351  0.8621
  137OSM    H7T14901   0.706   0.832   7.185 -1.3303 -1.0886  0.6300
  137OSM    C8S14902   0.625   0.932   7.360 -0.0469  0.6572 -0.1663
  137OSM    H8S14903   0.561   0.847   7.391  1.7786 -0.0191  1.9581
  137OSM    H8T14904   0.575   1.031   7.371 -1.5958  0.3567 -3.2456
  137OSM    C9S14905   0.750   0.940   7.450 -0.2865  0.3778  0.0800
  137OSM    H9S14906   0.833   1.003   7.411  0.1270 -0.1306  0.1194
  137OSM    H9T14907   0.784   0.835   7.467 -0.4584  0.4694  1.0515
  137OSM   C10S14908   0.721   1.020   7.582  0.6052  0.0202  0.2924
  137OSM   H10S14909   0.662   0.953   7.648  2.2806 -0.7672  1.0595
  137OSM   H10T14910   0.672   1.117   7.559  1.3875  0.2891 -0.2794
  137OSM   C11S14911   0.846   1.055   7.660  0.2404  0.0302  0.0886
  137OSM   H11S14912   0.905   1.114   7.586 -1.4379 -0.1092 -1.4231
  137OSM   H11T14913   0.904   0.964   7.686  0.4854  0.7410  2.1926
  137OSM   C12S14914   0.829   1.143   7.785 -0.2917  0.6843 -0.5859
  137OSM   H12S14915   0.821   1.250   7.756  1.9305  1.1282  0.2420
  137OSM   H12T14916   0.922   1.129   7.845  1.9007 -1.8191 -4.1703
  137OSM   C13S14917   0.712   1.103   7.874  0.3002 -0.3554 -0.2905
  137OSM   H13S14918   0.729   0.997   7.900 -0.5445 -0.6192 -0.7783
  137OSM   H13T14919   0.613   1.098   7.822  0.1084  1.8072 -0.2130
  137OSM   C14S14920   0.701   1.182   8.002 -0.4572 -0.5681 -0.3396
  137OSM   H14S14921   0.630   1.126   8.067 -0.2834 -0.7008 -0.2646
  137OSM   H14T14922   0.654   1.279   7.974  0.0191 -0.8932 -2.4182
  137OSM   C15S14923   0.816   1.195   8.097  0.1099 -0.1394 -0.0459
  137OSM   H15S14924   0.902   1.249   8.052  1.5586 -1.2517  1.2575
  137OSM   H15T14925   0.858   1.103   8.143 -1.8719 -1.6357 -1.0883
  137OSM   C16S14926   0.779   1.291   8.209 -0.3172  0.5121  0.6330
  137OSM   H16S14927   0.859   1.277   8.285  0.1397 -0.3036  0.0263
  137OSM   H16T14928   0.686   1.261   8.263 -0.3463  1.0337  0.8781
  137OSM   C17S14929   0.764   1.439   8.177  0.0767 -0.5373  0.6504
  137OSM   H17S14930   0.660   1.458   8.142 -0.6616 -1.2266  2.3596
  137OSM   H17T14931   0.841   1.455   8.099 -0.4529 -1.2779 -0.0423
  137OSM   C18S14932   0.788   1.515   8.306  0.3961  0.6499  0.6789
  137OSM   H18S14933   0.727   1.485   8.394 -0.8058  0.3766 -0.2260
  137OSM   H18T14934   0.765   1.622   8.289 -0.0258  0.4639  0.0643
  137OSM   H18U14935   0.895   1.509   8.336  1.8660  0.7492 -3.8086
  137OSM    C1F14936   1.039   1.067   6.917 -0.4671  1.2725 -0.3003
  137OSM     OF14937   1.033   1.174   6.861 -0.3610  0.3832 -0.4116
  137OSM    C2F14938   1.101   1.050   7.054  0.5819 -0.1059  0.6521
  137OSM    H2F14939   1.103   0.940   7.070 -1.4952 -0.7496 -2.5148
  137OSM    H2G14940   1.029   1.101   7.122  0.0596  0.8631 -0.5980
  137OSM    C3F14941   1.235   1.104   7.069  0.2312  0.2284  0.9099
  137OSM    H3F14942   1.233   1.213   7.049 -1.3031 -0.3110 -2.4181
  137OSM    H3G14943   1.298   1.073   6.983  2.3497  1.8138  1.7769
  137OSM    C4F14944   1.310   1.066   7.199  0.1896 -0.2010 -0.0683
  137OSM    H4F14945   1.415   1.037   7.179  0.2950  0.8189 -1.1433
  137OSM    H4G14946   1.263   0.967   7.218  4.1342 -2.4200 -0.8545
  137OSM    C5F14947   1.278   1.168   7.305 -0.3996 -0.0163 -0.7781
  137OSM    H5F14948   1.171   1.173   7.334 -0.1929 -0.7308  0.1519
  137OSM    H5G14949   1.310   1.271   7.279 -0.0125  0.1075  0.1326
  137OSM    C6F14950   1.361   1.144   7.439  0.5105  0.0604 -0.1864
  137OSM    H6F14951   1.470   1.141   7.422  0.1570 -0.1189 -2.9166
  137OSM    H6G14952   1.325   1.044   7.471  1.3939 -1.1188 -2.6654
  137OSM    C7F14953   1.326   1.243   7.554  0.1293  0.4394 -0.5644
  137OSM    H7F14954   1.217   1.250   7.575  0.4166  1.5383  0.6852
  137OSM    H7G14955   1.363   1.344   7.524 -0.2062  0.8279  0.2926
  137OSM    C8F14956   1.395   1.203   7.689  0.3722 -0.0058  0.4821
  137OSM    H8F14957   1.505   1.200   7.670  0.0791 -1.9487 -1.3338
  137OSM    H8G14958   1.373   1.095   7.703  0.0176  0.1468  1.1292
  137OSM    C9F14959   1.356   1.277   7.815  0.1980 -0.2980  0.2194
  137OSM    H9F14960   1.246   1.283   7.819  0.0851 -2.2388  1.4444
  137OSM   C10F14961   1.428   1.325   7.919 -1.0918  0.1051  0.3074
  137OSM   H10F14962   1.378   1.371   8.005 -2.0178  0.1204 -0.2256
  137OSM   C11F14963   1.578   1.310   7.912 -0.4336  0.5235 -0.0284
  137OSM   H11F14964   1.617   1.408   7.946  1.7136  0.6903 -2.7037
  137OSM   H11G14965   1.619   1.301   7.809 -2.2093  2.2994 -0.9510
  137OSM   C12F14966   1.635   1.196   8.008 -0.0459 -0.1133 -0.0166
  137OSM   H12F14967   1.743   1.183   7.989 -0.1279 -0.8040 -0.0553
  137OSM   H12G14968   1.579   1.103   7.980 -1.5631 -0.1008  2.5972
  137OSM   C13F14969   1.609   1.223   8.158 -0.3347  0.6355 -0.0774
  137OSM   H13F14970   1.502   1.243   8.178 -0.1261 -0.0861  2.0117
  137OSM   H13G14971   1.666   1.312   8.192  1.2885 -0.0121 -1.0015
  137OSM   C14F14972   1.628   1.109   8.249  0.8917 -0.5324 -0.1000
  137OSM   H14F14973   1.732   1.072   8.235  1.5524  1.4863 -0.7848
  137OSM   H14G14974   1.567   1.021   8.218 -0.4428 -0.3716  1.8717
  137OSM   C15F14975   1.601   1.149   8.397 -0.3104  0.1248 -0.4763
  137OSM   H15F14976   1.494   1.180   8.404 -0.3860 -0.5170  1.9508
  137OSM   H15G14977   1.665   1.240   8.404 -1.0527  0.5684  0.8876
  137OSM   C16F14978   1.628   1.044   8.499 -1.0812 -0.4934  0.2629
  137OSM   H16F14979   1.717   0.987   8.466 -0.5123  1.3179 -1.5145
  137OSM   H16G14980   1.543   0.973   8.501 -0.9612 -0.6221  1.2891
  137OSM   C17F14981   1.645   1.103   8.643 -0.4997  0.3836 -0.4068
  137OSM   H17F14982   1.637   1.023   8.720  1.5965  1.1596  0.6819
  137OSM   H17G14983   1.560   1.169   8.670  0.6732  0.9753  2.0559
  137OSM   C18F14984   1.781   1.173   8.662 -0.1588 -0.0564  0.2234
  137OSM   H18F14985   1.788   1.277   8.625  1.4780 -0.0654  0.4369
  137OSM   H18G14986   1.857   1.108   8.613 -0.9984  0.9101 -2.5890
  137OSM   H18H14987   1.808   1.173   8.770  2.9192 -0.6379 -0.4661
  138OSM      N14988   5.728   4.874   6.379  0.1839  0.4213 -0.3873
  138OSM    C1514989   5.650   4.833   6.253 -0.1491  0.2712  0.4165
  138OSM   H15A14990   5.557   4.783   6.275 -0.4297  1.2128  1.4825
  138OSM   H15B14991   5.707   4.764   6.192  0.5545  1.2784 -0.0873
  138OSM   H15C14992   5.622   4.915   6.189 -0.0215 -0.7269 -0.9712
  138OSM    C1414993   5.757   4.748   6.456 -0.0302  0.7604  0.5413
  138OSM   H14A14994   5.785   4.758   6.559  0.3207  1.1184  0.4184
  138OSM   H14B14995   5.832   4.686   6.409 -0.5188  1.3618 -1.1212
  138OSM   H14C14996   5.666   4.691   6.450  1.7879 -2.6405  2.6542
  138OSM    C1314997   5.860   4.935   6.340 -0.3002 -0.1920  0.6343
  138OSM   H13A14998   5.857   5.031   6.291  3.1250 -0.8512 -1.2090
  138OSM   H13B14999   5.909   4.873   6.265  0.8117  1.7114 -0.3062
  138OSM   H13C15000   5.935   4.946   6.417  0.1822 -0.5282  0.2278
  138OSM    C1215001   5.648   4.977   6.459  0.6204  0.3911  0.3679
  138OSM   H12A15002   5.622   5.062   6.398  0.6678  0.9606  1.1240
  138OSM   H12B15003   5.715   5.013   6.536  0.4467 -0.9864  1.2010
  138OSM    C1115004   5.514   4.941   6.530  0.6040  0.0509 -0.0983
  138OSM   H11A15005   5.468   5.031   6.576 -0.2966  0.5716 -1.9276
  138OSM   H11B15006   5.545   4.877   6.616  0.9520 -0.9757 -0.9664
  138OSM      P15007   5.338   4.954   6.342  0.0268  0.0241 -0.2989
  138OSM    O1315008   5.412   5.072   6.293  0.3904 -0.5582 -0.3497
  138OSM    O1415009   5.286   4.862   6.233 -0.0889 -0.3548 -0.3430
  138OSM    O1115010   5.216   5.000   6.436  0.1884 -0.0410 -0.2386
  138OSM    O1215011   5.430   4.865   6.445  0.7614 -0.5472  0.0296
  138OSM    C1S15012   5.158   4.897   6.522  0.7158  0.2892 -0.0500
  138OSM    H1S15013   5.184   4.795   6.488 -0.5134 -0.0727  0.0464
  138OSM    H1T15014   5.047   4.909   6.525  0.5491 -1.2976  1.4954
  138OSM     NF15015   5.130   4.805   6.754 -0.4840  0.5018  0.4155
  138OSM    HNF15016   5.041   4.819   6.796 -0.1149 -2.0158  2.2503
  138OSM    C2S15017   5.184   4.913   6.682  0.2885  0.4008  0.4260
  138OSM    H2S15018   5.293   4.909   6.704  0.3357 -2.3561  0.0880
  138OSM    C3S15019   5.122   5.054   6.719  0.5011  0.1883  0.4579
  138OSM    H3S15020   5.012   5.038   6.721  0.2659  1.4884  3.5855
  138OSM     O315021   5.143   5.157   6.617 -0.3699 -0.2327  0.2128
  138OSM    HO315022   5.165   5.116   6.533 -2.3383 -0.8716 -0.0419
  138OSM    C4S15023   5.161   5.110   6.851  0.2563 -0.0750 -0.2393
  138OSM    H4S15024   5.084   5.092   6.928  0.3035  1.1429  0.1149
  138OSM    C5S15025   5.281   5.183   6.872 -0.0677 -0.4502  0.0059
  138OSM    H5S15026   5.358   5.202   6.796  1.3136  1.3158  1.7572
  138OSM    C6S15027   5.325   5.253   7.001 -0.1213  0.4461 -0.1532
  138OSM    H6S15028   5.297   5.360   6.999  0.9636  0.7809 -3.0553
  138OSM    H6T15029   5.436   5.258   7.004 -0.0967  0.1258 -0.3748
  138OSM    C7S15030   5.262   5.186   7.122  0.4789 -0.4089  0.2034
  138OSM    H7S15031   5.284   5.077   7.136  1.0180 -0.8076 -3.1324
  138OSM    H7T15032   5.152   5.206   7.127  0.7621  1.2131  0.4309
  138OSM    C8S15033   5.326   5.248   7.251  0.4966 -0.2740  0.6142
  138OSM    H8S15034   5.318   5.359   7.241  2.5362 -0.1271  0.2586
  138OSM    H8T15035   5.433   5.230   7.273  1.5896  3.2143 -1.0249
  138OSM    C9S15036   5.233   5.213   7.370 -0.7083  0.0863 -0.0628
  138OSM    H9S15037   5.198   5.108   7.383 -2.9022  0.7807  0.1556
  138OSM    H9T15038   5.142   5.277   7.360 -2.2541 -1.8068  1.1742
  138OSM   C10S15039   5.306   5.252   7.500  0.2042 -0.1398 -0.5459
  138OSM   H10S15040   5.333   5.360   7.501 -0.4005  0.0907  3.0244
  138OSM   H10T15041   5.396   5.187   7.505  0.2027 -0.1578 -0.7324
  138OSM   C11S15042   5.223   5.219   7.625 -0.6845 -0.3184  0.7078
  138OSM   H11S15043   5.171   5.120   7.623  1.1451 -1.3597  1.7221
  138OSM   H11T15044   5.139   5.291   7.632 -1.0858 -0.8510  1.7146
  138OSM   C12S15045   5.299   5.232   7.753 -0.6381  0.4748  0.2802
  138OSM   H12S15046   5.307   5.340   7.778 -0.3559  0.6997 -0.7338
  138OSM   H12T15047   5.397   5.185   7.727  1.8135  2.2968  4.9679
  138OSM   C13S15048   5.251   5.145   7.870 -0.5528 -0.5698 -0.8347
  138OSM   H13S15049   5.276   5.038   7.855 -0.5360 -0.9548  1.5997
  138OSM   H13T15050   5.141   5.156   7.881 -0.6635 -1.6612 -0.7557
  138OSM   C14S15051   5.314   5.201   8.001  0.3709  0.9805  0.5133
  138OSM   H14S15052   5.272   5.301   8.022 -2.2879  0.0574 -0.0528
  138OSM   H14T15053   5.425   5.201   7.994  0.4687 -1.6599  0.9107
  138OSM   C15S15054   5.281   5.112   8.119 -0.4870 -1.0057  0.1888
  138OSM   H15S15055   5.297   5.008   8.083 -1.1338 -0.8789 -0.4886
  138OSM   H15T15056   5.176   5.121   8.156 -0.4277  1.1743 -0.0670
  138OSM   C16S15057   5.382   5.121   8.235 -0.5284 -0.8669  1.3403
  138OSM   H16S15058   5.364   5.221   8.280 -0.5087 -0.0339 -0.4428
  138OSM   H16T15059   5.483   5.110   8.190 -0.6081  0.4507  0.7977
  138OSM   C17S15060   5.356   5.014   8.333 -0.9506  0.0544  0.4913
  138OSM   H17S15061   5.407   5.050   8.424  1.8892 -1.7161 -0.2446
  138OSM   H17T15062   5.413   4.925   8.299  1.0977  1.7078 -0.6926
  138OSM   C18S15063   5.210   4.975   8.380 -0.2287  0.4735  0.1878
  138OSM   H18S15064   5.150   4.921   8.303  0.2744  1.7094 -1.1055
  138OSM   H18T15065   5.149   5.064   8.405 -0.9483  0.3294 -0.9839
  138OSM   H18U15066   5.208   4.905   8.467 -1.6406 -0.7128 -0.7361
  138OSM    C1F15067   5.183   4.683   6.738  0.4932  0.0084 -0.1242
  138OSM     OF15068   5.294   4.665   6.680  0.3855  0.3289 -0.4534
  138OSM    C2F15069   5.106   4.574   6.805  0.5080  0.1702  0.0092
  138OSM    H2F15070   5.116   4.483   6.741 -1.2465  0.5659 -0.9038
  138OSM    H2G15071   4.997   4.595   6.801  0.2204 -1.1169  0.7816
  138OSM    C3F15072   5.165   4.548   6.947  0.9609  0.4939 -0.2596
  138OSM    H3F15073   5.175   4.636   7.013  2.0452 -0.7956  1.3663
  138OSM    H3G15074   5.268   4.508   6.936  1.2307  1.2368 -0.5022
  138OSM    C4F15075   5.081   4.442   7.020  0.9494 -0.0815 -0.7243
  138OSM    H4F15076   5.155   4.397   7.090  0.4032 -1.2597 -0.8654
  138OSM    H4G15077   5.059   4.364   6.944  0.2071  0.1769 -0.7820
  138OSM    C5F15078   4.961   4.498   7.101 -0.1681 -0.1289 -0.8900
  138OSM    H5F15079   4.878   4.532   7.034 -1.1667  2.0354  1.2915
  138OSM    H5G15080   5.004   4.586   7.154  1.1894 -0.6514 -1.0934
  138OSM    C6F15081   4.908   4.406   7.214  0.4591 -0.4257 -0.5109
  138OSM    H6F15082   5.002   4.361   7.251  1.6702  1.6124 -0.9670
  138OSM    H6G15083   4.847   4.326   7.165 -0.7329 -0.0342  0.2715
  138OSM    C7F15084   4.832   4.479   7.326 -0.7407 -0.0786 -0.0907
  138OSM    H7F15085   4.752   4.409   7.357  0.0324 -0.9489 -0.0389
  138OSM    H7G15086   4.794   4.578   7.292  0.6321 -0.2136 -2.2054
  138OSM    C8F15087   4.923   4.507   7.448 -0.0236  0.1915 -0.6678
  138OSM    H8F15088   4.854   4.555   7.521  0.5757  0.2770 -0.1527
  138OSM    H8G15089   4.995   4.586   7.419  0.3971 -0.3849 -1.2200
  138OSM    C9F15090   4.998   4.395   7.526  0.0319  0.0427  0.1828
  138OSM    H9F15091   5.046   4.322   7.458  1.1252  1.9481 -1.1913
  138OSM   C10F15092   5.030   4.389   7.656  0.9879  0.2630  0.2739
  138OSM   H10F15093   5.077   4.297   7.695 -0.1749 -0.7264 -0.5829
  138OSM   C11F15094   5.007   4.488   7.762 -0.1066  0.5225 -0.2110
  138OSM   H11F15095   4.911   4.540   7.743 -0.1597  1.8299  3.0525
  138OSM   H11G15096   5.087   4.563   7.751 -0.5854  1.4698  2.1237
  138OSM   C12F15097   5.017   4.451   7.909  0.2626 -0.0019 -0.3596
  138OSM   H12F15098   4.994   4.543   7.967 -1.3793 -0.4611 -0.2316
  138OSM   H12G15099   5.116   4.422   7.952 -0.3630 -3.4207 -0.8935
  138OSM   C13F15100   4.930   4.332   7.953 -0.2727 -0.5787 -0.4855
  138OSM   H13F15101   4.980   4.237   7.926 -0.4320 -1.1144  1.0045
  138OSM   H13G15102   4.824   4.342   7.920 -0.3798 -2.9771 -0.9931
  138OSM   C14F15103   4.911   4.333   8.110  0.5393  0.1853  0.8424
  138OSM   H14F15104   4.859   4.425   8.144  0.5245  0.1604  0.8891
  138OSM   H14G15105   5.012   4.328   8.157 -0.0144  1.5145  2.2431
  138OSM   C15F15106   4.834   4.206   8.137 -1.2828  0.0585 -0.5784
  138OSM   H15F15107   4.901   4.118   8.130 -3.2667 -1.6052  0.2619
  138OSM   H15G15108   4.753   4.195   8.061 -0.6835  0.1420 -1.2418
  138OSM   C16F15109   4.780   4.205   8.280  0.4237 -0.9004 -0.4543
  138OSM   H16F15110   4.717   4.295   8.299  2.3617  0.3827  0.2379
  138OSM   H16G15111   4.868   4.215   8.346 -0.4036  3.3277  0.2867
  138OSM   C17F15112   4.708   4.081   8.326 -0.0776 -0.1438 -0.9699
  138OSM   H17F15113   4.708   4.079   8.437 -0.8787 -1.5782 -0.9699
  138OSM   H17G15114   4.758   3.985   8.299 -1.9864 -1.4116 -0.1797
  138OSM   C18F15115   4.558   4.084   8.293  0.0742 -0.0663  0.2181
  138OSM   H18F15116   4.513   4.172   8.342  2.4765 -0.0321  2.6044
  138OSM   H18G15117   4.523   3.987   8.335  0.7452  0.0704  1.1343
  138OSM   H18H15118   4.545   4.085   8.183 -0.1007 -1.4584  0.2021
  139OSM      N15119   6.534   5.953   5.992 -0.6962 -0.3475 -0.2564
  139OSM    C1515120   6.432   5.884   5.900  0.1483  0.0802 -0.0811
  139OSM   H15A15121   6.337   5.890   5.951  0.5280 -0.0072  0.6497
  139OSM   H15B15122   6.467   5.782   5.894  0.5533  0.2337 -0.3805
  139OSM   H15C15123   6.417   5.924   5.801 -1.8883  0.4999  0.3580
  139OSM    C1415124   6.672   5.909   5.954 -0.1061 -0.4484 -0.0265
  139OSM   H14A15125   6.685   5.941   5.851 -3.3225  1.6760  0.0744
  139OSM   H14B15126   6.684   5.802   5.956  0.4418 -0.5067 -2.5788
  139OSM   H14C15127   6.747   5.958   6.014 -0.4579  0.0602  0.0087
  139OSM    C1315128   6.517   6.094   5.964  0.2997  0.4052 -0.3554
  139OSM   H13A15129   6.412   6.120   5.970 -0.1096 -1.3859  1.0645
  139OSM   H13B15130   6.558   6.123   5.869 -2.2765  1.6353 -1.1869
  139OSM   H13C15131   6.575   6.151   6.035 -1.5149  1.0825  0.6667
  139OSM    C1215132   6.509   5.922   6.140  0.1948 -0.0032 -0.0933
  139OSM   H12A15133   6.407   5.951   6.161  0.2017 -1.5364  2.4607
  139OSM   H12B15134   6.570   5.980   6.207  0.5348  0.3750 -0.7192
  139OSM    C1115135   6.514   5.762   6.187 -0.5141 -0.5259  0.0100
  139OSM   H11A15136   6.513   5.766   6.298  1.8943  0.3871  0.0586
  139OSM   H11B15137   6.613   5.713   6.193  0.2710  1.1542  2.4621
  139OSM      P15138   6.274   5.682   6.173  0.2350 -0.4569 -0.3374
  139OSM    O1315139   6.201   5.789   6.104  0.0878 -0.5394 -0.1438
  139OSM    O1415140   6.220   5.545   6.156  0.5309  0.1155  0.2897
  139OSM    O1115141   6.278   5.712   6.327 -0.0592 -0.5602  0.6938
  139OSM    O1215142   6.426   5.681   6.121 -0.4115 -0.2434  0.2906
  139OSM    C1S15143   6.233   5.829   6.392 -0.1972  0.6042  0.3515
  139OSM    H1S15144   6.137   5.861   6.345 -0.7251  0.2700  1.1685
  139OSM    H1T15145   6.315   5.903   6.378  0.2637 -0.3080 -2.1200
  139OSM     NF15146   6.130   5.910   6.586 -0.1008  0.2011  0.2041
  139OSM    HNF15147   6.172   5.982   6.641 -1.5176  2.1690 -1.1472
  139OSM    C2S15148   6.203   5.794   6.541  0.0345 -0.1398  0.1755
  139OSM    H2S15149   6.136   5.706   6.551 -2.0973  1.5773  2.0671
  139OSM    C3S15150   6.343   5.771   6.613  1.0122 -0.1811 -0.5554
  139OSM    H3S15151   6.405   5.863   6.606  1.1803  0.0644  2.6546
  139OSM     O315152   6.420   5.667   6.553 -0.2191  0.2677  0.2811
  139OSM    HO315153   6.389   5.668   6.462 -2.9090 -0.3988  1.0881
  139OSM    C4S15154   6.330   5.735   6.762  0.8653  0.2383 -0.8168
  139OSM    H4S15155   6.289   5.640   6.799  1.8549 -0.3806 -1.2651
  139OSM    C5S15156   6.364   5.818   6.863  0.6442  0.0318  0.5670
  139OSM    H5S15157   6.399   5.921   6.847  3.7839 -0.6052  2.5235
  139OSM    C6S15158   6.332   5.791   7.009  0.6690 -0.0668 -0.0401
  139OSM    H6S15159   6.367   5.884   7.059 -0.2346  0.6426 -0.6936
  139OSM    H6T15160   6.383   5.709   7.064 -0.0751  0.3859  1.3689
  139OSM    C7S15161   6.182   5.776   7.042 -0.8101 -0.4357 -0.0062
  139OSM    H7S15162   6.138   5.702   6.972 -1.2513 -1.4020  1.2558
  139OSM    H7T15163   6.134   5.874   7.023 -0.6550  0.0375  1.8224
  139OSM    C8S15164   6.152   5.735   7.189  0.5349 -0.3980  0.2900
  139OSM    H8S15165   6.215   5.646   7.213 -1.0894 -2.3572 -2.1462
  139OSM    H8T15166   6.045   5.703   7.193  0.8403 -1.5801 -0.4161
  139OSM    C9S15167   6.187   5.836   7.301  0.6532  0.0558 -0.3187
  139OSM    H9S15168   6.149   5.936   7.271 -0.6604 -0.2935  0.1219
  139OSM    H9T15169   6.298   5.836   7.291  0.5393 -1.7234 -2.7108
  139OSM   C10S15170   6.138   5.797   7.443  0.2213  0.4651 -0.1977
  139OSM   H10S15171   6.042   5.850   7.456  0.4317  0.7768  0.0937
  139OSM   H10T15172   6.208   5.833   7.521 -1.6851  0.3870  1.6309
  139OSM   C11S15173   6.109   5.649   7.479  0.9647  0.3697 -0.0869
  139OSM   H11S15174   6.209   5.608   7.450  0.4720 -0.3925 -0.7475
  139OSM   H11T15175   6.025   5.607   7.421  0.9471 -2.1012  1.5920
  139OSM   C12S15176   6.050   5.615   7.620 -0.0960 -0.3733  0.8864
  139OSM   H12S15177   6.052   5.506   7.641  0.9484 -0.5505 -0.0168
  139OSM   H12T15178   5.946   5.654   7.620 -0.4184 -1.1830 -0.0139
  139OSM   C13S15179   6.119   5.682   7.744 -0.3941  0.4858  0.5316
  139OSM   H13S15180   6.101   5.792   7.743  0.1009  0.5729 -1.1330
  139OSM   H13T15181   6.229   5.669   7.732 -0.6241 -1.3630  0.2025
  139OSM   C14S15182   6.085   5.622   7.883 -0.0696 -0.3479  0.6311
  139OSM   H14S15183   6.119   5.517   7.893 -1.3605 -0.8859 -0.2780
  139OSM   H14T15184   5.974   5.613   7.889 -0.1740 -0.2490 -0.9160
  139OSM   C15S15185   6.144   5.701   8.000 -0.2686  0.2836  0.1082
  139OSM   H15S15186   6.094   5.797   8.026  1.0480  0.7702  0.8915
  139OSM   H15T15187   6.248   5.731   7.977 -0.1779  0.3499  0.6036
  139OSM   C16S15188   6.152   5.621   8.123  0.5002  0.0516  0.1659
  139OSM   H16S15189   6.201   5.525   8.097 -0.2784  0.1446 -1.8286
  139OSM   H16T15190   6.045   5.600   8.146 -0.2269  1.7552 -1.3970
  139OSM   C17S15191   6.213   5.704   8.241 -0.6529  0.1577  0.2641
  139OSM   H17S15192   6.133   5.775   8.273 -0.5010  1.4994 -2.1070
  139OSM   H17T15193   6.291   5.777   8.211  0.0728 -0.9648 -0.6267
  139OSM   C18S15194   6.239   5.618   8.371  0.3179 -0.5004 -0.4025
  139OSM   H18S15195   6.155   5.545   8.372  0.0075 -0.1814 -1.3971
  139OSM   H18T15196   6.238   5.690   8.455 -1.7966 -0.5419 -0.3448
  139OSM   H18U15197   6.331   5.555   8.371  0.4702 -0.2987  0.7275
  139OSM    C1F15198   5.999   5.929   6.560  0.4302  0.2075 -0.1739
  139OSM     OF15199   5.931   5.854   6.488  0.0131 -0.6441 -0.2948
  139OSM    C2F15200   5.938   6.061   6.605 -0.6178 -0.6165 -0.3678
  139OSM    H2F15201   5.888   6.121   6.526  2.8964  0.2221 -2.1716
  139OSM    H2G15202   6.023   6.131   6.618 -0.3214 -1.3809  2.2835
  139OSM    C3F15203   5.827   6.051   6.718  0.2626 -0.3839 -0.4491
  139OSM    H3F15204   5.753   5.977   6.680  1.6850 -2.5138  0.7141
  139OSM    H3G15205   5.782   6.151   6.726 -0.6837 -0.7794 -0.7331
  139OSM    C4F15206   5.866   5.997   6.854 -0.0197 -0.0559  0.6003
  139OSM    H4F15207   5.952   6.060   6.881  0.1033 -0.0271  0.1507
  139OSM    H4G15208   5.902   5.892   6.846 -0.2340 -0.0583 -0.5895
  139OSM    C5F15209   5.752   5.991   6.955  1.0702  0.3538 -0.0431
  139OSM    H5F15210   5.669   5.940   6.901  0.8959  0.9783 -0.3723
  139OSM    H5G15211   5.712   6.094   6.970  1.4739  0.5878 -0.5613
  139OSM    C6F15212   5.799   5.922   7.083  0.2296 -0.9817  0.1259
  139OSM    H6F15213   5.894   5.963   7.123 -1.0386  1.3503  0.9556
  139OSM    H6G15214   5.812   5.816   7.054 -0.9507 -0.6703 -1.6654
  139OSM    C7F15215   5.706   5.938   7.201  0.6548  0.7157 -0.5334
  139OSM    H7F15216   5.613   5.888   7.169  0.1677  0.0617  1.6820
  139OSM    H7G15217   5.692   6.045   7.225 -2.0207 -0.0594  1.8123
  139OSM    C8F15218   5.745   5.859   7.328 -0.7055  0.2552  0.3962
  139OSM    H8F15219   5.838   5.909   7.363  1.5986 -1.3862 -2.8141
  139OSM    H8G15220   5.783   5.761   7.293  1.1567  1.7859 -2.2781
  139OSM    C9F15221   5.642   5.859   7.433  0.8282  0.7373 -0.1413
  139OSM    H9F15222   5.544   5.812   7.416  1.1885  0.6176 -2.1128
  139OSM   C10F15223   5.655   5.918   7.552 -0.6921  0.7350 -0.0892
  139OSM   H10F15224   5.587   5.911   7.638  1.7357 -1.6060  1.8301
  139OSM   C11F15225   5.770   6.004   7.596  0.1087 -0.0838 -0.1210
  139OSM   H11F15226   5.727   6.105   7.610 -1.9991 -0.5718 -2.5071
  139OSM   H11G15227   5.856   6.008   7.526 -0.9224  1.6657 -1.3565
  139OSM   C12F15228   5.827   5.966   7.735  0.2422 -0.6417  0.4498
  139OSM   H12F15229   5.895   6.050   7.762 -2.7937  2.0099  0.3518
  139OSM   H12G15230   5.884   5.872   7.717  1.9666 -0.0782  2.4337
  139OSM   C13F15231   5.734   5.959   7.851  0.1921 -0.0370  0.3077
  139OSM   H13F15232   5.672   5.867   7.840 -0.7048  0.6459 -0.5761
  139OSM   H13G15233   5.671   6.051   7.852 -1.4967 -1.1035 -1.5951
  139OSM   C14F15234   5.810   5.960   7.980  0.3929 -0.3830 -0.1956
  139OSM   H14F15235   5.831   6.066   8.007  0.4616 -0.1721 -1.0634
  139OSM   H14G15236   5.911   5.915   7.963 -0.8538 -3.9577  0.9090
  139OSM   C15F15237   5.751   5.874   8.094  0.3863 -0.4770 -0.1963
  139OSM   H15F15238   5.744   5.766   8.068  0.0890 -0.8005  1.1702
  139OSM   H15G15239   5.646   5.906   8.108 -0.2358 -2.0555 -1.0073
  139OSM   C16F15240   5.834   5.877   8.224  0.3105  0.0162  0.7200
  139OSM   H16F15241   5.855   5.980   8.260 -0.6678  0.0517  1.2444
  139OSM   H16G15242   5.933   5.828   8.218 -0.1131 -0.9783  1.5181
  139OSM   C17F15243   5.753   5.790   8.328 -1.0169 -0.1478 -1.4999
  139OSM   H17F15244   5.758   5.684   8.293  1.2201 -0.1352 -1.3975
  139OSM   H17G15245   5.646   5.816   8.342 -0.4539  2.5954 -1.8679
  139OSM   C18F15246   5.827   5.790   8.465 -0.3878 -0.2838  0.7331
  139OSM   H18F15247   5.777   5.720   8.536  1.6884 -2.3900  0.2634
  139OSM   H18G15248   5.823   5.894   8.504 -0.1213 -0.1650  0.4429
  139OSM   H18H15249   5.933   5.759   8.454 -0.0967 -0.1930  2.8914
  140OSM      N15250   5.112   0.433   6.247  0.6000 -0.6684  0.7858
  140OSM    C1515251   5.215   0.343   6.296 -0.1788  0.1954  0.2396
  140OSM   H15A15252   5.171   0.256   6.342  0.9562 -1.3249 -1.4083
  140OSM   H15B15253   5.280   0.397   6.363 -1.4051  1.1656  0.6909
  140OSM   H15C15254   5.276   0.307   6.215 -2.1368  0.4353 -1.4269
  140OSM    C1415255   5.045   0.386   6.123 -0.5050  0.1619 -0.3596
  140OSM   H14A15256   5.002   0.288   6.139 -1.9092  0.5451 -1.5548
  140OSM   H14B15257   5.116   0.386   6.041 -1.7025  0.2172 -1.4276
  140OSM   H14C15258   4.964   0.455   6.106 -0.7205  1.0069  3.3187
  140OSM    C1315259   5.013   0.461   6.358  0.1675  0.8026 -0.4278
  140OSM   H13A15260   5.067   0.480   6.449  1.1247 -0.7796 -0.6363
  140OSM   H13B15261   4.969   0.364   6.377 -0.1999  1.6003  3.8319
  140OSM   H13C15262   4.925   0.522   6.342 -1.9235 -1.4591  1.5698
  140OSM    C1215263   5.178   0.569   6.197  0.3427 -0.0769  0.8255
  140OSM   H12A15264   5.111   0.622   6.131  0.4137 -0.3549  0.5294
  140OSM   H12B15265   5.262   0.545   6.133  0.8107  2.3788  0.4466
  140OSM    C1115266   5.241   0.673   6.292 -0.1993 -0.6747  0.1230
  140OSM   H11A15267   5.168   0.714   6.366  2.3939  2.2123  1.3069
  140OSM   H11B15268   5.271   0.764   6.237  0.8366 -0.4673  0.9989
  140OSM      P15269   5.493   0.601   6.290 -0.3376 -0.3334  0.4128
  140OSM    O1315270   5.467   0.510   6.179 -0.1732  0.0779 -0.3675
  140OSM    O1415271   5.547   0.734   6.254 -0.0558 -0.1157  0.0675
  140OSM    O1115272   5.586   0.535   6.397  0.2409 -0.3824 -0.3139
  140OSM    O1215273   5.356   0.626   6.364 -0.0021 -0.7295  0.4479
  140OSM    C1S15274   5.672   0.603   6.485 -0.0585 -0.0534 -0.0520
  140OSM    H1S15275   5.639   0.706   6.510  0.1985  0.4260 -1.5548
  140OSM    H1T15276   5.768   0.620   6.432 -1.1894  0.4425 -2.0778
  140OSM     NF15277   5.809   0.614   6.688  0.1503  0.7170 -0.3458
  140OSM    HNF15278   5.905   0.591   6.686  0.0275  0.0544  0.8429
  140OSM    C2S15279   5.706   0.531   6.624  0.6137  0.7358  0.2021
  140OSM    H2S15280   5.614   0.530   6.685  1.4774  0.7190  1.5544
  140OSM    C3S15281   5.748   0.384   6.585 -0.5881 -0.1032  0.0596
  140OSM    H3S15282   5.841   0.390   6.525  0.2588 -0.1397  1.3317
  140OSM     O315283   5.645   0.319   6.516 -0.0946  0.2798 -0.3677
  140OSM    HO315284   5.585   0.385   6.481  0.3519 -0.2368 -2.2339
  140OSM    C4S15285   5.777   0.322   6.721  0.6834  0.1459  0.2371
  140OSM    H4S15286   5.686   0.311   6.782  0.9963 -1.7309  0.4116
  140OSM    C5S15287   5.900   0.283   6.759  0.6276  0.2043 -1.2841
  140OSM    H5S15288   5.988   0.308   6.697 -1.6385  1.1711 -4.3422
  140OSM    C6S15289   5.937   0.216   6.893  0.3322 -0.1479  0.3058
  140OSM    H6S15290   6.004   0.282   6.952  1.1359  2.0452 -2.7716
  140OSM    H6T15291   5.992   0.124   6.862  1.2672  0.8154 -1.0399
  140OSM    C7S15292   5.821   0.179   6.974 -0.3028  0.1115  0.4089
  140OSM    H7S15293   5.754   0.107   6.922  0.7708 -1.1091  0.6486
  140OSM    H7T15294   5.763   0.270   6.999  1.0794  1.9181 -2.4421
  140OSM    C8S15295   5.865   0.105   7.101 -0.0789 -0.2127  0.0732
  140OSM    H8S15296   5.950   0.036   7.085  0.0574  0.3218 -1.8014
  140OSM    H8T15297   5.784   0.032   7.122 -0.7265  0.4573 -0.0353
  140OSM    C9S15298   5.877   0.188   7.228 -0.6490 -0.4446  0.4003
  140OSM    H9S15299   5.791   0.257   7.219  0.9895  1.4918 -1.7336
  140OSM    H9T15300   5.974   0.242   7.231  0.2067 -1.6433 -2.0518
  140OSM   C10S15301   5.853   0.099   7.357 -0.0608 -0.2241  0.6592
  140OSM   H10S15302   5.946   0.038   7.359  0.8139  1.0331 -0.3336
  140OSM   H10T15303   5.772   0.030   7.326  0.8130 -0.7851 -0.4835
  140OSM   C11S15304   5.834   0.177   7.484  0.0327 -0.3365 -0.0920
  140OSM   H11S15305   5.750   0.246   7.459  1.3623  1.7295  0.8215
  140OSM   H11T15306   5.927   0.232   7.510 -0.3830  0.2780  0.1411
  140OSM   C12S15307   5.777   0.111   7.606  0.4517 -0.5341 -0.0517
  140OSM   H12S15308   5.853   0.044   7.652 -0.2861 -0.9012  0.6575
  140OSM   H12T15309   5.688   0.045   7.591 -0.4683  0.0203  2.4272
  140OSM   C13S15310   5.735   0.212   7.718 -0.4882  0.1189  0.0385
  140OSM   H13S15311   5.647   0.272   7.689 -0.3468 -0.0041 -0.6615
  140OSM   H13T15312   5.814   0.288   7.703 -0.4432  0.3788  1.4713
  140OSM   C14S15313   5.737   0.158   7.861 -0.0929 -0.2172  0.1562
  140OSM   H14S15314   5.841   0.138   7.892 -0.6505 -4.9041 -0.2625
  140OSM   H14T15315   5.683   0.062   7.874 -0.6215  0.1333  0.5890
  140OSM   C15S15316   5.680   0.247   7.975  0.1606 -0.2316 -0.4262
  140OSM   H15S15317   5.586   0.297   7.946  0.2497  0.3038  0.1754
  140OSM   H15T15318   5.744   0.334   8.002 -0.2893  0.0155 -0.1503
  140OSM   C16S15319   5.645   0.170   8.107  0.1512 -0.0909 -0.4247
  140OSM   H16S15320   5.742   0.128   8.141  0.8163  0.6798 -1.3309
  140OSM   H16T15321   5.579   0.083   8.089  0.7433 -0.4059 -1.1049
  140OSM   C17S15322   5.590   0.257   8.206 -0.4523 -0.4111 -1.1012
  140OSM   H17S15323   5.485   0.276   8.174 -1.0929  1.2680  1.6531
  140OSM   H17T15324   5.650   0.350   8.211 -0.6468 -0.3406  0.8933
  140OSM   C18S15325   5.605   0.194   8.350  0.0464  0.3438  0.3955
  140OSM   H18S15326   5.710   0.172   8.376 -1.3143 -1.5997  5.4017
  140OSM   H18T15327   5.557   0.094   8.354 -0.6173  0.5902 -0.8539
  140OSM   H18U15328   5.559   0.274   8.413 -1.4081  1.0415 -1.4366
  140OSM    C1F15329   5.784   0.730   6.742 -0.0213 -0.0629 -0.3141
  140OSM     OF15330   5.667   0.774   6.742 -0.1648 -0.4468 -0.0340
  140OSM    C2F15331   5.891   0.812   6.808  0.6197 -0.1995 -0.5737
  140OSM    H2F15332   5.946   0.882   6.742  1.5278 -0.3151  0.0367
  140OSM    H2G15333   5.976   0.746   6.837 -1.8443 -3.0876  0.5745
  140OSM    C3F15334   5.858   0.888   6.941  0.6171 -0.2753 -1.1768
  140OSM    H3F15335   5.766   0.950   6.939 -0.5937 -1.9877 -0.9142
  140OSM    H3G15336   5.942   0.952   6.978 -0.6092 -0.2123  1.8361
  140OSM    C4F15337   5.814   0.782   7.049 -0.4829 -0.1391  0.3174
  140OSM    H4F15338   5.721   0.727   7.024  0.6914 -1.3578 -1.6530
  140OSM    H4G15339   5.793   0.852   7.132 -0.2911  1.4495 -0.9119
  140OSM    C5F15340   5.914   0.672   7.082  0.4538 -0.0550 -0.0880
  140OSM    H5F15341   6.021   0.700   7.077  0.4907  0.2124  1.6284
  140OSM    H5G15342   5.889   0.582   7.021 -0.2532  0.8390 -1.1449
  140OSM    C6F15343   5.891   0.625   7.227  0.2704 -0.2388  1.0063
  140OSM    H6F15344   5.938   0.524   7.228 -0.1596 -0.4590  0.0074
  140OSM    H6G15345   5.784   0.619   7.256 -0.7217  3.1176 -1.3555
  140OSM    C7F15346   5.965   0.711   7.326  0.0006  0.2338  0.3571
  140OSM    H7F15347   5.953   0.818   7.301 -3.0663  0.1715  1.1963
  140OSM    H7G15348   6.071   0.676   7.326 -0.0860 -0.0805  1.5202
  140OSM    C8F15349   5.913   0.686   7.472  0.1091 -0.0736  0.4841
  140OSM    H8F15350   5.804   0.704   7.468  0.1306 -0.0572 -0.0383
  140OSM    H8G15351   5.962   0.761   7.538  0.2273 -0.6413  1.0526
  140OSM    C9F15352   5.925   0.548   7.533  0.1464  0.5076  0.7546
  140OSM    H9F15353   5.884   0.467   7.470  0.4015  1.8302 -1.2051
  140OSM   C10F15354   6.007   0.527   7.640 -0.2312 -0.2381  0.3962
  140OSM   H10F15355   6.002   0.429   7.691  1.9017  0.0447  1.2670
  140OSM   C11F15356   6.083   0.619   7.730 -0.1352 -0.7497  0.5846
  140OSM   H11F15357   6.126   0.711   7.686  1.6667 -1.8523 -0.0351
  140OSM   H11G15358   6.172   0.561   7.762 -0.0504  0.2537  2.3441
  140OSM   C12F15359   6.004   0.656   7.855  0.1082 -0.7840 -0.4287
  140OSM   H12F15360   5.969   0.560   7.900  0.1566 -0.9660 -0.7772
  140OSM   H12G15361   5.909   0.713   7.845 -1.5441 -3.3142 -0.1970
  140OSM   C13F15362   6.094   0.731   7.955  0.6415 -0.1287  0.8091
  140OSM   H13F15363   6.093   0.831   7.906  2.8357  0.8235  2.5516
  140OSM   H13G15364   6.196   0.688   7.960  0.4979 -0.8903 -1.7349
  140OSM   C14F15365   6.023   0.736   8.090  1.0185  0.1778 -0.4549
  140OSM   H14F15366   6.034   0.640   8.144  0.5108  0.0731 -0.5376
  140OSM   H14G15367   5.918   0.759   8.065  0.4601 -0.6149  1.0709
  140OSM   C15F15368   6.070   0.844   8.185  0.6142  0.2167  0.4985
  140OSM   H15F15369   5.993   0.844   8.265  0.4362 -2.5182  0.4059
  140OSM   H15G15370   6.064   0.941   8.131 -2.0904  1.4162  2.7107
  140OSM   C16F15371   6.213   0.819   8.234 -0.5153 -0.2596  0.1412
  140OSM   H16F15372   6.248   0.908   8.290 -1.4436  0.6537 -0.6762
  140OSM   H16G15373   6.282   0.809   8.148  2.2025  1.8604  1.9364
  140OSM   C17F15374   6.219   0.701   8.331  0.6662  0.2291  0.5013
  140OSM   H17F15375   6.325   0.695   8.364  0.9569 -0.2509 -0.4565
  140OSM   H17G15376   6.214   0.604   8.276  0.8722  1.5192 -1.9077
  140OSM   C18F15377   6.136   0.712   8.463 -0.1056  0.1273  0.6145
  140OSM   H18F15378   6.032   0.746   8.446  0.0760  1.1018  1.3645
  140OSM   H18G15379   6.181   0.792   8.526 -1.1531  0.1247  1.3823
  140OSM   H18H15380   6.145   0.615   8.516  1.3311  0.1692  0.4910
  141OSM      N15381   4.204   2.494   5.906 -0.3997  1.2373 -0.3401
  141OSM    C1515382   4.158   2.350   5.904  0.8400 -0.0654 -0.2503
  141OSM   H15A15383   4.140   2.314   5.804 -1.5883  0.6264 -0.1216
  141OSM   H15B15384   4.062   2.340   5.952  0.3070 -2.1305 -1.5972
  141OSM   H15C15385   4.230   2.286   5.953  1.4373  0.3185 -0.6042
  141OSM    C1415386   4.342   2.497   5.845  0.0143 -0.0603  0.7433
  141OSM   H14A15387   4.333   2.468   5.741  0.2851  1.1370  0.3614
  141OSM   H14B15388   4.416   2.434   5.890  0.2945 -1.3421 -1.3679
  141OSM   H14C15389   4.379   2.599   5.840  2.2708 -0.8419  0.2689
  141OSM    C1315390   4.113   2.575   5.817 -0.4572  0.2870 -0.2412
  141OSM   H13A15391   4.110   2.534   5.717  0.7572 -1.4481  0.3904
  141OSM   H13B15392   4.146   2.678   5.819  0.3833  0.0200 -0.3173
  141OSM   H13C15393   4.013   2.573   5.860 -1.2391 -1.1557 -1.9895
  141OSM    C1215394   4.197   2.561   6.043  0.4783 -0.2862  0.7204
  141OSM   H12A15395   4.251   2.655   6.039 -0.3386  0.1565 -1.1823
  141OSM   H12B15396   4.251   2.504   6.117  0.7414 -1.3835 -0.2741
  141OSM    C1115397   4.057   2.593   6.097 -0.8490 -0.4089 -0.5964
  141OSM   H11A15398   3.996   2.664   6.038 -1.0257  0.1420  0.2308
  141OSM   H11B15399   4.080   2.654   6.186  2.5522 -0.6654 -1.1451
  141OSM      P15400   4.004   2.407   6.269 -0.6668  0.6619 -0.1968
  141OSM    O1315401   3.908   2.493   6.343 -0.4986 -0.1562 -0.2336
  141OSM    O1415402   3.986   2.258   6.257  0.4795 -0.1204  0.1651
  141OSM    O1115403   4.154   2.442   6.307 -0.0190  0.1346 -0.1077
  141OSM    O1215404   3.997   2.468   6.121 -0.4445 -0.3743  0.4119
  141OSM    C1S15405   4.204   2.491   6.429 -0.4023 -0.7515 -0.2838
  141OSM    H1S15406   4.126   2.554   6.477 -1.3165 -1.7631 -0.4014
  141OSM    H1T15407   4.291   2.559   6.417 -0.0960 -0.7557  1.6464
  141OSM     NF15408   4.263   2.414   6.655  0.2591  0.1271  0.2198
  141OSM    HNF15409   4.346   2.466   6.677  0.6671  0.6601 -2.2768
  141OSM    C2S15410   4.249   2.378   6.518 -0.2055 -0.6311  1.1661
  141OSM    H2S15411   4.168   2.302   6.512 -2.7142  1.8303  1.7762
  141OSM    C3S15412   4.379   2.323   6.456  0.2059  0.8632 -0.2083
  141OSM    H3S15413   4.460   2.398   6.443 -0.2367  0.8973 -3.7322
  141OSM     O315414   4.371   2.278   6.325  0.0503  0.3080 -0.0568
  141OSM    HO315415   4.282   2.312   6.308  0.6890  2.8976  1.2329
  141OSM    C4S15416   4.418   2.201   6.538 -0.0261 -0.4418 -0.1430
  141OSM    H4S15417   4.363   2.109   6.512 -2.2293  0.5309  0.8122
  141OSM    C5S15418   4.509   2.194   6.629 -0.4419  0.0218 -0.5609
  141OSM    H5S15419   4.569   2.282   6.656 -2.0322  0.8943  0.2867
  141OSM    C6S15420   4.538   2.061   6.691 -0.1826  0.2978 -0.2388
  141OSM    H6S15421   4.482   1.974   6.651  1.7270 -0.3486 -1.6862
  141OSM    H6T15422   4.511   2.073   6.798  2.4263 -0.5553  0.5925
  141OSM    C7S15423   4.687   2.014   6.689 -0.1442  0.3634 -0.1670
  141OSM    H7S15424   4.732   2.075   6.770 -0.2715 -1.0083  0.9799
  141OSM    H7T15425   4.741   2.046   6.597 -1.3763  0.9851 -0.6900
  141OSM    C8S15426   4.704   1.858   6.712 -0.0332 -1.1309  0.2222
  141OSM    H8S15427   4.801   1.824   6.670 -0.3659 -0.8155 -0.8163
  141OSM    H8T15428   4.614   1.807   6.671 -1.4863  0.3042  1.4827
  141OSM    C9S15429   4.716   1.837   6.865 -0.6958  0.1321 -0.6123
  141OSM    H9S15430   4.617   1.856   6.911  1.1726 -0.6956  4.3086
  141OSM    H9T15431   4.783   1.908   6.918  0.1370 -1.0794 -0.0106
  141OSM   C10S15432   4.748   1.688   6.902 -0.1223 -0.3773  0.0544
  141OSM   H10S15433   4.857   1.669   6.899  0.5601  2.9821 -0.2582
  141OSM   H10T15434   4.706   1.625   6.820 -3.9803  1.7296  0.1511
  141OSM   C11S15435   4.698   1.645   7.043  0.8104  0.2757  0.2091
  141OSM   H11S15436   4.711   1.535   7.040  0.1508  0.2046 -0.6630
  141OSM   H11T15437   4.590   1.668   7.056  1.3323  1.7708  2.5551
  141OSM   C12S15438   4.776   1.718   7.153 -0.2922  0.2570 -0.0997
  141OSM   H12S15439   4.719   1.814   7.157 -1.0990 -0.1805 -0.9691
  141OSM   H12T15440   4.881   1.733   7.119 -0.0568 -1.9769 -0.4854
  141OSM   C13S15441   4.747   1.648   7.289  0.5334 -0.4709 -0.5944
  141OSM   H13S15442   4.794   1.549   7.305  0.9312  0.0192  1.5666
  141OSM   H13T15443   4.638   1.627   7.299  0.6154 -0.3531  0.6644
  141OSM   C14S15444   4.777   1.738   7.405  0.1273 -0.1672 -0.0662
  141OSM   H14S15445   4.729   1.837   7.395  0.3939  0.3137  2.7646
  141OSM   H14T15446   4.886   1.757   7.412 -0.1405  0.8031  2.6845
  141OSM   C15S15447   4.737   1.684   7.545  0.9027 -0.1299 -0.5149
  141OSM   H15S15448   4.816   1.612   7.575  0.3204  0.0892  1.7470
  141OSM   H15T15449   4.636   1.642   7.567  0.7688  0.4962  0.1466
  141OSM   C16S15450   4.737   1.807   7.644  0.4069  0.3042  0.2670
  141OSM   H16S15451   4.676   1.886   7.594  0.6712 -0.4088 -1.2319
  141OSM   H16T15452   4.842   1.841   7.656  0.1670  1.7066 -1.1931
  141OSM   C17S15453   4.678   1.767   7.780 -0.6160 -0.3397 -0.2105
  141OSM   H17S15454   4.598   1.690   7.765 -0.0049 -1.0510  0.1185
  141OSM   H17T15455   4.635   1.857   7.829  0.5920  0.1983 -0.1259
  141OSM   C18S15456   4.786   1.697   7.865  0.2322  0.0609  0.5094
  141OSM   H18S15457   4.879   1.757   7.872 -1.0116  2.3399 -1.0807
  141OSM   H18T15458   4.819   1.603   7.816  1.4968  0.3470  0.7737
  141OSM   H18U15459   4.756   1.674   7.970 -1.9467 -0.7723 -0.2364
  141OSM    C1F15460   4.158   2.409   6.735 -0.5104 -0.1510  0.9001
  141OSM     OF15461   4.051   2.357   6.711  0.0631 -0.1011 -0.3508
  141OSM    C2F15462   4.169   2.502   6.854  0.7732  0.0730 -0.4343
  141OSM    H2F15463   4.186   2.600   6.804 -3.8776  0.2755 -2.1634
  141OSM    H2G15464   4.249   2.468   6.923  0.3171  0.1767  0.1535
  141OSM    C3F15465   4.036   2.503   6.932  0.9437  0.2462  0.4859
  141OSM    H3F15466   3.998   2.402   6.960  0.8900 -0.4629 -1.8850
  141OSM    H3G15467   3.951   2.554   6.881  0.6035 -1.6138 -0.9457
  141OSM    C4F15468   4.043   2.591   7.064  0.2141  0.4636 -0.0139
  141OSM    H4F15469   4.092   2.536   7.147  0.1432 -0.1551 -0.3717
  141OSM    H4G15470   3.943   2.624   7.096 -0.2643 -0.9118 -0.0185
  141OSM    C5F15471   4.126   2.721   7.043 -0.2345  0.1452 -0.1283
  141OSM    H5F15472   4.096   2.750   6.940 -2.4433  5.1170  1.6002
  141OSM    H5G15473   4.230   2.686   7.062  0.3742  2.9171  2.6066
  141OSM    C6F15474   4.069   2.826   7.129 -0.5424 -0.5379 -0.0756
  141OSM    H6F15475   4.137   2.904   7.170  0.9630 -1.5400 -0.6288
  141OSM    H6G15476   4.040   2.776   7.224 -0.3419  1.3056  1.0188
  141OSM    C7F15477   3.945   2.898   7.062 -0.0643  0.8057  0.2933
  141OSM    H7F15478   3.870   2.822   7.030  1.5951 -1.2343  0.9543
  141OSM    H7G15479   3.994   2.943   6.973  0.2530 -0.4711 -0.2159
  141OSM    C8F15480   3.875   3.007   7.144  0.1647 -0.1420 -0.6100
  141OSM    H8F15481   3.832   3.089   7.083  2.0201  2.1463  0.9985
  141OSM    H8G15482   3.957   3.057   7.200  0.1903 -3.5758  2.7991
  141OSM    C9F15483   3.764   2.939   7.222  0.3214 -0.5828 -0.6433
  141OSM    H9F15484   3.683   2.890   7.165 -0.7033 -2.0125  1.8856
  141OSM   C10F15485   3.759   2.934   7.355  0.0862  0.2458  0.2731
  141OSM   H10F15486   3.670   2.893   7.406  1.0211 -0.3458  1.5084
  141OSM   C11F15487   3.851   2.999   7.466 -0.6790 -0.6508  0.6246
  141OSM   H11F15488   3.812   3.098   7.498  1.1417  0.4595 -0.3769
  141OSM   H11G15489   3.948   3.040   7.431 -1.5217  2.1055  1.2468
  141OSM   C12F15490   3.869   2.903   7.584  0.9264 -1.1043  0.6120
  141OSM   H12F15491   3.769   2.858   7.605 -0.6670  1.1684 -1.5228
  141OSM   H12G15492   3.891   2.968   7.671  1.0663  0.8230 -0.7821
  141OSM   C13F15493   3.977   2.798   7.555 -0.6232  0.1580  1.0448
  141OSM   H13F15494   4.058   2.855   7.504 -1.0307  0.2035  0.4522
  141OSM   H13G15495   3.949   2.717   7.485  0.4407 -1.8505  2.8298
  141OSM   C14F15496   4.022   2.739   7.687 -0.4924  0.1762  0.2552
  141OSM   H14F15497   4.087   2.652   7.663 -2.5798 -0.8715 -2.1356
  141OSM   H14G15498   3.931   2.710   7.742 -0.0293 -2.2385 -0.1345
  141OSM   C15F15499   4.097   2.839   7.779 -0.1682  0.2584  0.2285
  141OSM   H15F15500   4.042   2.928   7.815 -1.0527  0.4712 -1.5530
  141OSM   H15G15501   4.183   2.875   7.718  1.0699 -2.3749  0.2844
  141OSM   C16F15502   4.154   2.759   7.896 -0.1065 -0.6148  0.0016
  141OSM   H16F15503   4.247   2.802   7.939  0.3057 -0.7273 -0.7700
  141OSM   H16G15504   4.184   2.659   7.858 -0.1490 -0.2125 -1.1291
  141OSM   C17F15505   4.053   2.728   8.010 -0.0261  0.3259 -0.1129
  141OSM   H17F15506   3.973   2.669   7.961 -0.2031  1.8043 -1.6861
  141OSM   H17G15507   4.005   2.824   8.039  1.9904  1.4811 -0.4012
  141OSM   C18F15508   4.109   2.654   8.125 -0.7528 -0.3469  0.1598
  141OSM   H18F15509   4.039   2.656   8.212  1.6941 -0.4321  2.2765
  141OSM   H18G15510   4.207   2.694   8.158 -0.2725 -0.1480 -1.4479
  141OSM   H18H15511   4.115   2.544   8.111 -0.3026 -0.1856 -1.0285
  142OSM      N15512   5.055   5.141   6.041 -0.3300 -0.2568 -0.1276
  142OSM    C1515513   5.085   5.051   5.927 -0.2214 -0.2507  0.6033
  142OSM   H15A15514   5.147   4.968   5.959 -0.0573 -0.1997  0.4236
  142OSM   H15B15515   5.144   5.105   5.854 -1.1858  0.9309  0.6748
  142OSM   H15C15516   4.992   5.014   5.888 -0.3716 -0.9768  1.6336
  142OSM    C1415517   5.184   5.212   6.084  0.6937 -0.3133 -0.1092
  142OSM   H14A15518   5.251   5.223   6.000 -0.5513  0.1195 -1.0870
  142OSM   H14B15519   5.235   5.150   6.156  0.9164 -0.4908 -0.4192
  142OSM   H14C15520   5.166   5.294   6.151 -2.4424  0.0536 -1.2260
  142OSM    C1315521   4.957   5.242   5.995  0.5047 -0.2446  0.7057
  142OSM   H13A15522   4.983   5.298   5.906  1.2004 -0.9212  0.4632
  142OSM   H13B15523   4.951   5.322   6.067 -0.0041  1.8039 -1.4578
  142OSM   H13C15524   4.863   5.194   5.974  1.3507 -1.4648 -0.4798
  142OSM    C1215525   5.000   5.066   6.157 -0.1031 -0.0758  0.5727
  142OSM   H12A15526   5.076   4.998   6.193  1.4903  0.8671 -0.8637
  142OSM   H12B15527   4.905   5.031   6.118 -0.4824  3.5782 -2.3961
  142OSM    C1115528   4.968   5.158   6.275  0.5120 -0.3584  0.0656
  142OSM   H11A15529   5.053   5.225   6.296  0.3109 -0.2678  0.5975
  142OSM   H11B15530   4.951   5.101   6.369 -2.7949  0.0468 -0.1474
  142OSM      P15531   4.709   5.180   6.232  0.1847  0.3468 -0.0425
  142OSM    O1315532   4.630   5.262   6.136 -0.5033 -0.3433  0.0636
  142OSM    O1415533   4.730   5.036   6.196 -0.2436  0.0763 -1.0336
  142OSM    O1115534   4.654   5.200   6.371 -0.1943 -0.8072 -0.3422
  142OSM    O1215535   4.853   5.237   6.243 -0.3036  0.4315  0.0245
  142OSM    C1S15536   4.736   5.188   6.494 -0.3899  0.1768  0.4525
  142OSM    H1S15537   4.821   5.259   6.487  1.4367 -1.9834 -0.5018
  142OSM    H1T15538   4.782   5.089   6.515 -1.2021 -0.4715 -0.7159
  142OSM     NF15539   4.772   5.262   6.722  0.7294 -1.0446  0.5165
  142OSM    HNF15540   4.793   5.185   6.782 -0.0975 -2.5954 -1.0753
  142OSM    C2S15541   4.665   5.237   6.626 -0.3318 -0.4118 -0.4073
  142OSM    H2S15542   4.619   5.335   6.600  0.6392 -0.6601 -3.4383
  142OSM    C3S15543   4.556   5.138   6.672  0.4617  0.1913 -0.4094
  142OSM    H3S15544   4.600   5.042   6.708  1.5764  0.4829 -0.9360
  142OSM     O315545   4.457   5.109   6.576 -0.4159 -0.0778  0.8183
  142OSM    HO315546   4.478   5.157   6.496 -0.9160  1.7663  1.7303
  142OSM    C4S15547   4.472   5.197   6.785 -0.6678  0.3393 -0.2384
  142OSM    H4S15548   4.399   5.273   6.755 -1.7683 -0.6129 -0.0348
  142OSM    C5S15549   4.458   5.146   6.917  0.4001 -0.2937 -0.0582
  142OSM    H5S15550   4.525   5.067   6.954 -0.5495 -1.3175 -0.4499
  142OSM    C6S15551   4.360   5.191   7.013 -0.0824  0.0063  0.1588
  142OSM    H6S15552   4.267   5.131   7.009 -0.3516  0.3409  1.0373
  142OSM    H6T15553   4.329   5.297   7.000  1.7194  0.6456  0.8368
  142OSM    C7S15554   4.406   5.192   7.157 -0.5874  0.2527  0.1044
  142OSM    H7S15555   4.487   5.267   7.167 -1.1941  1.0788 -0.9724
  142OSM    H7T15556   4.447   5.096   7.196 -0.6139  0.1274 -0.1694
  142OSM    C8S15557   4.295   5.240   7.258 -0.6395 -0.2849  0.0816
  142OSM    H8S15558   4.204   5.186   7.226 -1.0027  0.4804 -0.2155
  142OSM    H8T15559   4.267   5.344   7.230 -0.5379 -0.3919 -0.4416
  142OSM    C9S15560   4.331   5.230   7.408 -0.3190 -0.7337 -0.6177
  142OSM    H9S15561   4.325   5.128   7.450 -1.5374  0.4977  2.5040
  142OSM    H9T15562   4.248   5.281   7.462 -0.6513 -2.5443  0.6724
  142OSM   C10S15563   4.450   5.311   7.455 -0.1477 -0.1711  0.6365
  142OSM   H10S15564   4.483   5.392   7.386 -2.4992  1.1909  1.0085
  142OSM   H10T15565   4.536   5.241   7.451  2.1581  2.5088  0.6244
  142OSM   C11S15566   4.449   5.342   7.599 -0.2483  0.0223 -0.2307
  142OSM   H11S15567   4.360   5.406   7.619  0.3422  0.3041  1.7346
  142OSM   H11T15568   4.543   5.394   7.628  0.6251 -1.3058 -0.5625
  142OSM   C12S15569   4.434   5.223   7.688 -0.7842  0.1943  0.2766
  142OSM   H12S15570   4.531   5.169   7.687 -0.2781  1.0722  0.7957
  142OSM   H12T15571   4.342   5.162   7.668 -1.3359  0.8312  0.8520
  142OSM   C13S15572   4.410   5.262   7.833  0.3260 -0.1446 -0.4810
  142OSM   H13S15573   4.311   5.310   7.847  0.7121  0.2935  0.9620
  142OSM   H13T15574   4.493   5.331   7.858  0.2394 -0.1060 -0.2951
  142OSM   C14S15575   4.411   5.156   7.946 -0.0206 -0.0880 -0.7125
  142OSM   H14S15576   4.510   5.116   7.976 -0.8352 -0.5829  1.4748
  142OSM   H14T15577   4.347   5.072   7.911  0.0269  0.0304 -1.0897
  142OSM   C15S15578   4.349   5.214   8.069 -0.4159  0.6711  0.1825
  142OSM   H15S15579   4.251   5.246   8.027  0.0002  0.9080 -0.6379
  142OSM   H15T15580   4.414   5.301   8.095  2.4734 -1.6067  1.1373
  142OSM   C16S15581   4.344   5.121   8.190  0.8147  0.0576  1.1063
  142OSM   H16S15582   4.317   5.018   8.159 -0.1204  0.4871  0.4240
  142OSM   H16T15583   4.263   5.163   8.253 -0.0164  0.3456 -0.1012
  142OSM   C17S15584   4.480   5.121   8.260 -0.2420  0.0941 -0.2759
  142OSM   H17S15585   4.513   5.224   8.283 -0.3690  0.0924 -0.0815
  142OSM   H17T15586   4.552   5.071   8.191  0.2855  0.3883  0.0598
  142OSM   C18S15587   4.482   5.032   8.385 -0.2580  0.4413 -0.6212
  142OSM   H18S15588   4.482   4.923   8.367  1.1898  0.2792  0.2402
  142OSM   H18T15589   4.397   5.054   8.452  0.8921 -0.3479  1.1773
  142OSM   H18U15590   4.580   5.057   8.432 -0.6228 -1.1365  1.0706
  142OSM    C1F15591   4.847   5.373   6.714 -0.1913  0.1388  0.4639
  142OSM     OF15592   4.842   5.455   6.620  0.1270 -0.0220 -0.1057
  142OSM    C2F15593   4.959   5.391   6.815  0.3082  0.6785 -0.2417
  142OSM    H2F15594   5.053   5.407   6.758 -1.4147 -0.2639 -3.5654
  142OSM    H2G15595   4.970   5.296   6.872 -1.9787 -0.6161 -1.8048
  142OSM    C3F15596   4.942   5.517   6.908  0.1345  0.3293  0.8029
  142OSM    H3F15597   4.955   5.612   6.852 -0.7098 -0.4239 -0.7326
  142OSM    H3G15598   5.019   5.527   6.988 -1.0222  0.6028  1.9123
  142OSM    C4F15599   4.800   5.520   6.972 -0.5279 -0.5442  0.2724
  142OSM    H4F15600   4.720   5.497   6.899  0.2485  1.5522 -1.3152
  142OSM    H4G15601   4.785   5.618   7.022  1.9317  0.1895 -0.2932
  142OSM    C5F15602   4.788   5.397   7.065  0.1097  0.6238  0.0482
  142OSM    H5F15603   4.895   5.370   7.077  0.0451  0.6389  0.7111
  142OSM    H5G15604   4.750   5.309   7.007  0.4235  0.5992 -0.1241
  142OSM    C6F15605   4.716   5.415   7.201 -0.3977  0.9174 -0.3282
  142OSM    H6F15606   4.702   5.314   7.245  2.8215  1.3969  2.1275
  142OSM    H6G15607   4.620   5.466   7.179 -0.6702  0.4715 -0.1836
  142OSM    C7F15608   4.796   5.493   7.308  0.0358 -0.0259 -0.1546
  142OSM    H7F15609   4.813   5.597   7.274 -0.7221  0.4809  0.9763
  142OSM    H7G15610   4.894   5.441   7.317  0.6824  1.5134  2.7629
  142OSM    C8F15611   4.739   5.486   7.450 -0.6912  0.0750  0.5782
  142OSM    H8F15612   4.729   5.380   7.481 -0.0531  0.1123  0.9349
  142OSM    H8G15613   4.637   5.529   7.441 -2.0383 -3.1061 -0.7339
  142OSM    C9F15614   4.817   5.578   7.551 -0.3188  0.6945  0.0710
  142OSM    H9F15615   4.848   5.675   7.510  1.1533  0.5943  0.9012
  142OSM   C10F15616   4.849   5.544   7.673  0.2112  0.8974 -0.2441
  142OSM   H10F15617   4.923   5.603   7.729  0.6367  1.3094 -1.2205
  142OSM   C11F15618   4.822   5.404   7.744 -0.0812 -0.9301 -0.2853
  142OSM   H11F15619   4.821   5.316   7.676 -0.2750 -0.7615 -0.5029
  142OSM   H11G15620   4.725   5.401   7.799 -0.2666 -1.1495 -0.6195
  142OSM   C12F15621   4.938   5.398   7.848  0.5413 -0.1740 -0.7047
  142OSM   H12F15622   5.037   5.401   7.797  0.8461 -2.2016 -0.3028
  142OSM   H12G15623   4.929   5.294   7.885 -0.4768 -0.6576 -2.2531
  142OSM   C13F15624   4.908   5.506   7.964 -0.0278  0.1441 -0.6528
  142OSM   H13F15625   4.806   5.500   8.008  1.1703  1.7666  2.6178
  142OSM   H13G15626   4.912   5.605   7.913 -0.0837 -0.7415 -2.4557
  142OSM   C14F15627   5.011   5.507   8.081  0.4355 -0.0394  0.0707
  142OSM   H14F15628   4.979   5.588   8.150  0.7679 -0.3830  0.6384
  142OSM   H14G15629   5.109   5.532   8.037  0.1298  0.8868 -0.1176
  142OSM   C15F15630   5.007   5.383   8.173  0.4574 -0.9311  0.0007
  142OSM   H15F15631   5.092   5.376   8.243 -0.9992 -3.6181  1.6609
  142OSM   H15G15632   5.013   5.292   8.110  0.7499  0.6789 -2.4291
  142OSM   C16F15633   4.881   5.368   8.259  0.9392 -0.2941 -0.5848
  142OSM   H16F15634   4.795   5.346   8.193 -0.1366 -3.4170  1.6597
  142OSM   H16G15635   4.871   5.459   8.322  2.9423 -0.1243 -0.4563
  142OSM   C17F15636   4.897   5.259   8.369  0.0880  0.1586  0.2098
  142OSM   H17F15637   4.837   5.288   8.459  1.5261  1.2098  0.8595
  142OSM   H17G15638   5.005   5.263   8.395  0.2852 -1.3273 -0.2747
  142OSM   C18F15639   4.853   5.124   8.323  0.2574  0.4707  0.5212
  142OSM   H18F15640   4.915   5.075   8.245 -0.1686 -0.8443  0.9738
  142OSM   H18G15641   4.747   5.112   8.291 -0.1713  2.4853  1.0894
  142OSM   H18H15642   4.862   5.057   8.412 -0.1088 -1.3996 -0.7762
  143OSM      N15643   6.353   6.656   6.234  0.1056  0.1367 -0.1284
  143OSM    C1515644   6.312   6.677   6.088  0.0911 -0.6485 -0.6647
  143OSM   H15A15645   6.377   6.748   6.039  0.0326 -0.3247 -0.2743
  143OSM   H15B15646   6.219   6.733   6.080  0.1306 -0.3946  0.5736
  143OSM   H15C15647   6.304   6.581   6.039 -0.4550 -0.7104 -0.4659
  143OSM    C1415648   6.432   6.779   6.279 -0.1724  0.5559  0.0682
  143OSM   H14A15649   6.510   6.809   6.211  0.7957  1.4811  1.5342
  143OSM   H14B15650   6.474   6.743   6.372 -1.9104 -1.5921  0.0988
  143OSM   H14C15651   6.372   6.869   6.287  0.1746  1.1438 -2.8426
  143OSM    C1315652   6.237   6.643   6.322 -0.0021  0.2747 -0.1654
  143OSM   H13A15653   6.262   6.651   6.426  1.7543  0.5291 -0.5754
  143OSM   H13B15654   6.188   6.550   6.299  0.4574 -0.1984  0.7445
  143OSM   H13C15655   6.166   6.724   6.313  0.9543  1.3286  1.3895
  143OSM    C1215656   6.433   6.526   6.239 -1.1033  0.0306 -0.1586
  143OSM   H12A15657   6.457   6.509   6.343 -2.2893 -0.7331  0.0139
  143OSM   H12B15658   6.528   6.550   6.195 -0.8151  0.4882  0.6856
  143OSM    C1115659   6.382   6.391   6.178 -0.3308 -0.4020 -0.5457
  143OSM   H11A15660   6.466   6.329   6.216 -0.2636  0.6838  1.2256
  143OSM   H11B15661   6.383   6.383   6.067 -1.1649 -1.2675 -0.4988
  143OSM      P15662   6.208   6.212   6.261 -0.0325 -0.1360  0.1802
  143OSM    O1315663   6.065   6.213   6.301  0.0867  0.4767 -0.2083
  143OSM    O1415664   6.250   6.115   6.152  0.5424  0.1576  0.5913
  143OSM    O1115665   6.298   6.174   6.386  0.1982  0.8101 -0.0624
  143OSM    O1215666   6.251   6.355   6.215  0.0615  0.2229  0.3101
  143OSM    C1S15667   6.305   6.251   6.505 -0.0464 -0.9396 -0.3465
  143OSM    H1S15668   6.209   6.226   6.555 -0.7652  2.3887  0.1776
  143OSM    H1T15669   6.326   6.360   6.494  2.6797 -1.3504 -0.0998
  143OSM     NF15670   6.433   6.253   6.726  0.5658 -0.2445  0.9521
  143OSM    HNF15671   6.511   6.314   6.735  1.9265 -1.9178  1.0864
  143OSM    C2S15672   6.427   6.198   6.587 -0.1016  0.2582 -0.5765
  143OSM    H2S15673   6.417   6.088   6.599 -2.0072  0.5445  1.0911
  143OSM    C3S15674   6.568   6.219   6.511 -0.3832 -0.0449  0.0496
  143OSM    H3S15675   6.591   6.327   6.499 -0.1598  0.0953  1.5967
  143OSM     O315676   6.562   6.163   6.383 -0.5731 -0.1795 -0.0719
  143OSM    HO315677   6.472   6.144   6.357  0.0200 -0.6519 -1.9553
  143OSM    C4S15678   6.673   6.145   6.587  0.2204 -0.2122 -0.6290
  143OSM    H4S15679   6.671   6.038   6.563  1.6646 -0.5317  0.6085
  143OSM    C5S15680   6.764   6.200   6.671  0.2894  0.2469 -0.2865
  143OSM    H5S15681   6.749   6.307   6.693  0.9760  0.4060 -0.5621
  143OSM    C6S15682   6.878   6.139   6.745  0.3635  0.0020 -0.7713
  143OSM    H6S15683   6.878   6.184   6.847 -0.9287  0.4320 -0.9498
  143OSM    H6T15684   6.973   6.165   6.694  0.3439  0.7379 -0.4465
  143OSM    C7S15685   6.868   5.982   6.758 -0.4000 -0.4149  0.1202
  143OSM    H7S15686   6.849   5.932   6.660 -2.8373 -1.8202  1.2107
  143OSM    H7T15687   6.782   5.953   6.822 -0.2489 -1.0321  0.0518
  143OSM    C8S15688   6.998   5.931   6.815  0.3762 -0.1490  0.2137
  143OSM    H8S15689   7.076   5.959   6.741  0.3368  0.0822  0.2573
  143OSM    H8T15690   7.009   5.822   6.797  0.2314  0.1856 -2.2437
  143OSM    C9S15691   7.036   5.970   6.957  0.2885 -0.7023 -0.3310
  143OSM    H9S15692   6.948   5.958   7.023 -0.2955  2.5036 -0.3952
  143OSM    H9T15693   7.061   6.078   6.951 -1.1994 -0.3588 -0.5636
  143OSM   C10S15694   7.154   5.892   7.016 -0.0516  0.4755  0.2586
  143OSM   H10S15695   7.232   5.920   6.942 -1.0420  2.1707 -0.1966
  143OSM   H10T15696   7.144   5.782   7.011  0.9984  0.4166 -0.8887
  143OSM   C11S15697   7.202   5.933   7.153  0.2533 -0.4120  0.2352
  143OSM   H11S15698   7.194   6.043   7.165 -2.3081 -0.7822  2.8859
  143OSM   H11T15699   7.304   5.890   7.159 -0.1403 -1.7224 -1.4553
  143OSM   C12S15700   7.121   5.867   7.260 -0.4469 -0.5113 -0.2774
  143OSM   H12S15701   7.127   5.757   7.245  0.9723 -0.2836 -1.6057
  143OSM   H12T15702   7.013   5.887   7.246 -0.1749  0.6635 -0.8667
  143OSM   C13S15703   7.179   5.900   7.393 -0.5785 -0.1647  0.2692
  143OSM   H13S15704   7.197   6.009   7.402 -1.2697  0.0806 -1.0734
  143OSM   H13T15705   7.273   5.840   7.403 -1.8115 -1.9723  1.6789
  143OSM   C14S15706   7.078   5.882   7.509  0.0325 -0.4142 -0.0880
  143OSM   H14S15707   7.046   5.775   7.511 -2.6707  0.2709 -1.6344
  143OSM   H14T15708   6.989   5.947   7.496  1.1272  0.6957 -2.8101
  143OSM   C15S15709   7.132   5.923   7.655  0.1106  0.3353  1.2742
  143OSM   H15S15710   7.154   6.031   7.657 -2.7168  1.0537 -0.5822
  143OSM   H15T15711   7.227   5.866   7.654 -0.2296 -0.2551  0.3779
  143OSM   C16S15712   7.044   5.886   7.769 -0.6237  0.5851 -0.3435
  143OSM   H16S15713   7.028   5.777   7.754  0.1249  0.2733  0.9432
  143OSM   H16T15714   6.945   5.935   7.758 -2.3940 -2.7197 -0.5201
  143OSM   C17S15715   7.105   5.899   7.914  0.0122  0.3984 -0.8528
  143OSM   H17S15716   7.191   5.831   7.932  0.7401  1.5227  0.0655
  143OSM   H17T15717   7.019   5.872   7.979 -2.5364  0.3545 -3.9704
  143OSM   C18S15718   7.150   6.036   7.952  0.1732  0.8108 -0.4055
  143OSM   H18S15719   7.183   6.033   8.058 -1.7982  0.1607  0.2260
  143OSM   H18T15720   7.072   6.113   7.936  0.3458  1.2743  0.8718
  143OSM   H18U15721   7.240   6.064   7.892  0.9417 -1.0710 -0.1957
  143OSM    C1F15722   6.340   6.233   6.815  0.2064  0.9425  0.1120
  143OSM     OF15723   6.269   6.133   6.803 -0.0646  0.6430 -0.1453
  143OSM    C2F15724   6.336   6.317   6.936  0.1816 -0.0905 -0.3128
  143OSM    H2F15725   6.281   6.408   6.902  2.2835  0.9354 -1.1634
  143OSM    H2G15726   6.439   6.348   6.965  0.2202  1.8236 -2.2481
  143OSM    C3F15727   6.274   6.247   7.057 -0.5162  0.1190 -0.2585
  143OSM    H3F15728   6.302   6.141   7.066  1.0571  0.6460  1.5460
  143OSM    H3G15729   6.163   6.245   7.046 -0.6077 -3.3958  0.2126
  143OSM    C4F15730   6.305   6.314   7.200 -0.3087  1.0176  0.3694
  143OSM    H4F15731   6.267   6.418   7.196 -0.1530  1.1357  1.6142
  143OSM    H4G15732   6.416   6.306   7.194 -0.2388  1.2668  1.2757
  143OSM    C5F15733   6.236   6.245   7.317 -0.3130  0.1770 -0.1125
  143OSM    H5F15734   6.278   6.144   7.303  1.2408  0.6363  0.9958
  143OSM    H5G15735   6.128   6.242   7.289 -0.3782 -1.0110  0.2328
  143OSM    C6F15736   6.252   6.319   7.454 -0.4326  1.1198  1.0114
  143OSM    H6F15737   6.255   6.426   7.425 -0.9796  0.2604 -2.8335
  143OSM    H6G15738   6.353   6.284   7.484 -0.2808 -0.0395 -0.6711
  143OSM    C7F15739   6.146   6.279   7.554  0.0957  0.7458  0.1136
  143OSM    H7F15740   6.135   6.169   7.558  0.7807  0.6470  4.5941
  143OSM    H7G15741   6.053   6.326   7.517 -0.2576 -0.5910 -0.7615
  143OSM    C8F15742   6.186   6.321   7.698 -0.4578 -0.5114  0.3806
  143OSM    H8F15743   6.094   6.330   7.759 -0.4433 -2.9537  0.8580
  143OSM    H8G15744   6.236   6.420   7.690 -0.4567 -0.5146  0.3502
  143OSM    C9F15745   6.291   6.229   7.757  1.3548  0.4443  0.7312
  143OSM    H9F15746   6.394   6.236   7.718  0.2199  1.6806 -2.3295
  143OSM   C10F15747   6.270   6.134   7.848  0.2641  0.1114  0.2952
  143OSM   H10F15748   6.357   6.074   7.878  0.1273 -1.4710 -2.1940
  143OSM   C11F15749   6.134   6.109   7.907 -0.5107  0.2658 -0.5018
  143OSM   H11F15750   6.119   5.999   7.894  1.9229 -0.5454  2.3862
  143OSM   H11G15751   6.049   6.155   7.852 -1.1510  0.8318  0.9331
  143OSM   C12F15752   6.141   6.166   8.054  0.1602 -0.2105 -0.2680
  143OSM   H12F15753   6.040   6.144   8.095 -1.0184 -1.3533 -3.4752
  143OSM   H12G15754   6.160   6.276   8.057 -0.8597 -0.0360  0.7635
  143OSM   C13F15755   6.251   6.089   8.128 -0.5477  0.0749 -0.0090
  143OSM   H13F15756   6.348   6.094   8.073 -1.0934  1.2964 -0.8886
  143OSM   H13G15757   6.223   5.982   8.121  2.4588 -0.7904 -0.6321
  143OSM   C14F15758   6.268   6.122   8.281 -0.0265  0.7694  0.4797
  143OSM   H14F15759   6.306   6.226   8.289  1.5170  0.2621  0.1444
  143OSM   H14G15760   6.349   6.063   8.330 -0.3843  0.0781  0.2510
  143OSM   C15F15761   6.142   6.111   8.373  0.0786  0.7726 -0.5172
  143OSM   H15F15762   6.107   6.006   8.375 -0.6043  0.9843 -1.1380
  143OSM   H15G15763   6.054   6.170   8.340 -0.9430  0.4023  1.4302
  143OSM   C16F15764   6.178   6.153   8.515  0.0882 -0.4906  0.4988
  143OSM   H16F15765   6.100   6.228   8.540  1.2309  1.1412 -0.5988
  143OSM   H16G15766   6.275   6.206   8.510 -0.3157  0.1312 -2.0135
  143OSM   C17F15767   6.181   6.030   8.612 -0.3416 -0.7827  0.3135
  143OSM   H17F15768   6.270   5.968   8.586 -0.3677 -1.0389  0.8124
  143OSM   H17G15769   6.094   5.963   8.595 -0.8361 -0.5057  1.5898
  143OSM   C18F15770   6.180   6.064   8.761  0.0267  0.7962 -0.4898
  143OSM   H18F15771   6.188   5.967   8.814  0.9394  0.7703 -0.6452
  143OSM   H18G15772   6.084   6.110   8.793 -0.6942 -0.3947 -0.9009
  143OSM   H18H15773   6.260   6.125   8.809 -1.7579  0.6282  2.9997
  144OSM      N15774   0.162   5.131   6.174 -0.2238  0.1818 -0.2739
  144OSM    C1515775   0.140   5.282   6.174  0.2888  0.2905 -0.2330
  144OSM   H15A15776   0.144   5.309   6.070 -2.0359  0.2856 -0.3680
  144OSM   H15B15777   0.216   5.339   6.227 -0.8710  1.6077  0.0547
  144OSM   H15C15778   0.045   5.318   6.209 -0.3966 -0.2488 -1.4785
  144OSM    C1415779   0.301   5.102   6.135  0.4581 -0.6632 -0.8474
  144OSM   H14A15780   0.327   4.998   6.145  0.6729 -0.5503 -0.1386
  144OSM   H14B15781   0.376   5.157   6.191 -0.1988  0.6714 -1.2279
  144OSM   H14C15782   0.316   5.135   6.033  1.3905 -0.1382 -0.5648
  144OSM    C1315783   0.133   5.080   6.313  0.0609  0.0970  0.2995
  144OSM   H13A15784   0.211   5.126   6.371  0.7961 -0.6834 -0.0576
  144OSM   H13B15785   0.145   4.973   6.314 -1.1201 -0.0752 -0.8787
  144OSM   H13C15786   0.039   5.115   6.354  0.7218 -0.2048  2.1297
  144OSM    C1215787   0.068   5.064   6.068  0.5551  0.0440 -0.1067
  144OSM   H12A15788   0.082   4.958   6.081 -0.9964 -0.3559 -1.4091
  144OSM   H12B15789   0.104   5.070   5.966 -4.6825 -0.0789 -2.3056
  144OSM    C1115790  -0.079   5.104   6.069 -0.2553 -0.5998  0.1634
  144OSM   H11A15791  -0.096   5.200   6.016  0.9746  0.0873  0.9798
  144OSM   H11B15792  -0.115   5.123   6.172 -0.5045 -1.6464  0.2842
  144OSM      P15793  -0.176   4.862   6.068  0.0248  0.2020  0.5167
  144OSM    O1315794  -0.293   4.791   6.012  0.2223 -0.1888 -0.0197
  144OSM    O1415795  -0.046   4.786   6.058 -0.0626 -0.2400 -0.6171
  144OSM    O1115796  -0.212   4.890   6.215  0.1195 -0.0378 -0.2343
  144OSM    O1215797  -0.159   5.002   6.006 -0.1647 -0.3518  0.4151
  144OSM    C1S15798  -0.221   4.780   6.304 -0.1992  0.0912  0.4602
  144OSM    H1S15799  -0.172   4.690   6.262  0.8135  1.2570 -0.9210
  144OSM    H1T15800  -0.325   4.749   6.331  0.5615 -1.7691  1.4733
  144OSM     NF15801  -0.120   4.683   6.515  0.4672  0.1537  0.1520
  144OSM    HNF15802  -0.199   4.676   6.575  1.7530 -1.8718  1.7190
  144OSM    C2S15803  -0.135   4.806   6.434 -0.4490 -0.8854  0.5372
  144OSM    H2S15804  -0.034   4.826   6.393 -1.1335  2.1474  0.1484
  144OSM    C3S15805  -0.192   4.929   6.509  0.5679  0.4995  0.6104
  144OSM    H3S15806  -0.288   4.895   6.552  2.7000 -1.1535  4.7129
  144OSM     O315807  -0.199   5.045   6.433 -0.4993 -0.6612 -0.0461
  144OSM    HO315808  -0.231   5.020   6.346 -0.0148 -0.4865 -0.2756
  144OSM    C4S15809  -0.111   4.959   6.628 -0.2976 -0.1182 -0.6795
  144OSM    H4S15810  -0.011   5.000   6.611  0.2749 -0.1638  2.1308
  144OSM    C5S15811  -0.151   4.953   6.754  0.5899 -0.5780  0.3237
  144OSM    H5S15812  -0.254   4.919   6.774  0.1931 -1.0444 -2.2312
  144OSM    C6S15813  -0.070   4.984   6.875  0.2006 -0.1539 -0.2605
  144OSM    H6S15814  -0.121   5.010   6.970  0.4307  1.9841 -0.6781
  144OSM    H6T15815  -0.011   5.072   6.843 -0.3986 -0.2789 -1.8163
  144OSM    C7S15816   0.013   4.866   6.905 -0.5012  0.6021  0.6829
  144OSM    H7S15817   0.110   4.865   6.851 -0.9485 -1.1407 -0.1603
  144OSM    H7T15818  -0.036   4.770   6.880 -0.7965  1.4303 -2.4415
  144OSM    C8S15819   0.058   4.869   7.048  0.4281  0.2295 -0.1277
  144OSM    H8S15820  -0.027   4.874   7.119  1.0726 -0.6592  0.7299
  144OSM    H8T15821   0.132   4.953   7.055  1.2018 -0.4571  0.0974
  144OSM    C9S15822   0.143   4.741   7.087  0.1859 -0.5739  0.5471
  144OSM    H9S15823   0.225   4.724   7.014  0.3397  2.1449 -0.0254
  144OSM    H9T15824   0.074   4.654   7.076 -0.7478  0.2411 -0.1769
  144OSM   C10S15825   0.197   4.738   7.232 -0.4010 -0.5385  0.3905
  144OSM   H10S15826   0.268   4.822   7.249  1.8235 -1.5283 -3.0406
  144OSM   H10T15827   0.255   4.645   7.249  0.0982 -0.0575  1.3814
  144OSM   C11S15828   0.083   4.746   7.339  0.5145 -0.4812  0.3541
  144OSM   H11S15829   0.008   4.670   7.309  0.5003  0.3571 -1.8800
  144OSM   H11T15830   0.040   4.847   7.328  3.0357  0.7458  0.9676
  144OSM   C12S15831   0.129   4.733   7.480  0.4364  0.2987 -0.2170
  144OSM   H12S15832   0.211   4.803   7.502  1.3437 -0.8351  0.1049
  144OSM   H12T15833   0.173   4.635   7.508  0.0022  0.8743  2.8026
  144OSM   C13S15834   0.017   4.755   7.579 -0.2888 -0.2993 -0.6026
  144OSM   H13S15835  -0.077   4.704   7.549 -1.1334  1.5186 -1.1982
  144OSM   H13T15836  -0.012   4.862   7.586 -0.8479 -0.3749 -1.5444
  144OSM   C14S15837   0.062   4.720   7.716 -0.7765  0.9832 -0.5105
  144OSM   H14S15838   0.149   4.784   7.744  1.1081 -2.7094  3.2439
  144OSM   H14T15839   0.093   4.614   7.730  0.0272  1.3754  0.9230
  144OSM   C15S15840  -0.039   4.771   7.823  1.2106 -0.4134 -0.0003
  144OSM   H15S15841  -0.126   4.703   7.835 -1.4421  3.1474  3.0453
  144OSM   H15T15842  -0.080   4.869   7.792 -0.0884 -1.5433 -2.0815
  144OSM   C16S15843   0.030   4.782   7.961  0.4510  0.1268  0.8035
  144OSM   H16S15844   0.091   4.875   7.964  0.3553  0.2718 -0.7815
  144OSM   H16T15845   0.083   4.688   7.990 -1.2033 -1.1127  0.0101
  144OSM   C17S15846  -0.081   4.797   8.074  0.2031  0.1032 -0.3623
  144OSM   H17S15847  -0.112   4.694   8.101 -1.7649  0.6682 -0.3305
  144OSM   H17T15848  -0.169   4.857   8.043  0.8362  1.1784 -0.1445
  144OSM   C18S15849  -0.018   4.862   8.199 -0.0796  0.2837 -0.5085
  144OSM   H18S15850   0.089   4.836   8.210 -0.3335 -0.0514  1.5048
  144OSM   H18T15851  -0.070   4.830   8.291  1.4093  0.0125  0.2631
  144OSM   H18U15852  -0.034   4.972   8.206  0.7851  0.3859 -0.0158
  144OSM    C1F15853  -0.031   4.578   6.486  0.1903  0.5001 -0.0156
  144OSM     OF15854   0.052   4.580   6.388  0.6612  0.2421  0.3415
  144OSM    C2F15855  -0.049   4.447   6.568  0.4053 -0.0774  0.3925
  144OSM    H2F15856  -0.112   4.379   6.507  1.0566 -2.4466  2.2354
  144OSM    H2G15857  -0.112   4.466   6.657  1.4726  1.4074  0.8770
  144OSM    C3F15858   0.082   4.383   6.606  0.3332 -0.2066  0.0306
  144OSM    H3F15859   0.148   4.402   6.519  0.5823  0.6489  0.4056
  144OSM    H3G15860   0.061   4.276   6.629 -2.6393  0.8322  3.1306
  144OSM    C4F15861   0.144   4.436   6.734 -0.8897  0.2352 -0.6200
  144OSM    H4F15862   0.091   4.409   6.827 -1.2247  0.9101 -0.6060
  144OSM    H4G15863   0.144   4.548   6.738  1.1350  0.2450  1.8526
  144OSM    C5F15864   0.287   4.387   6.745  0.6669 -0.0909  0.4330
  144OSM    H5F15865   0.341   4.400   6.648  1.0295  3.4942  0.9975
  144OSM    H5G15866   0.289   4.276   6.755 -0.2173 -0.2684 -0.9500
  144OSM    C6F15867   0.377   4.453   6.852 -0.0347  0.9610 -0.2382
  144OSM    H6F15868   0.341   4.557   6.867  0.2161  0.6589  3.2377
  144OSM    H6G15869   0.483   4.468   6.821 -0.5973  6.2296 -0.5921
  144OSM    C7F15870   0.384   4.375   6.987  0.5152 -0.7913  0.0197
  144OSM    H7F15871   0.422   4.272   6.971  0.6246 -0.6869 -0.4196
  144OSM    H7G15872   0.279   4.367   7.022  0.0594 -0.7068 -1.2813
  144OSM    C8F15873   0.472   4.442   7.096 -0.2195 -0.2928 -0.6526
  144OSM    H8F15874   0.413   4.527   7.135 -0.8875 -0.9618 -0.2043
  144OSM    H8G15875   0.548   4.499   7.038  0.1559  0.1712  0.2781
  144OSM    C9F15876   0.521   4.337   7.191  0.3985  0.0199 -0.0090
  144OSM    H9F15877   0.527   4.233   7.154  0.0190  0.5738 -1.7345
  144OSM   C10F15878   0.551   4.368   7.316  0.2527  0.3457 -0.0446
  144OSM   H10F15879   0.587   4.294   7.389 -2.5060 -1.0474  0.0538
  144OSM   C11F15880   0.552   4.507   7.378 -0.1169 -0.3714 -0.2346
  144OSM   H11F15881   0.530   4.592   7.310 -2.2998  0.7700  1.7377
  144OSM   H11G15882   0.651   4.525   7.423 -0.8524 -0.4368  1.5106
  144OSM   C12F15883   0.446   4.533   7.487 -0.8440 -0.5490 -0.1751
  144OSM   H12F15884   0.348   4.529   7.433 -0.7641  1.1568 -0.5101
  144OSM   H12G15885   0.460   4.638   7.521 -0.9199 -0.7621  0.5361
  144OSM   C13F15886   0.467   4.449   7.615 -0.1843  0.4880  0.1847
  144OSM   H13F15887   0.578   4.450   7.619  0.0293  0.6186 -3.0315
  144OSM   H13G15888   0.425   4.348   7.593  0.8360  0.0297  0.3066
  144OSM   C14F15889   0.419   4.502   7.750  0.8351  0.5124 -0.0091
  144OSM   H14F15890   0.448   4.443   7.839  2.0850  1.0489 -0.0415
  144OSM   H14G15891   0.308   4.501   7.744  0.7130  0.0635  1.8214
  144OSM   C15F15892   0.458   4.652   7.779  0.1492 -0.0887  0.5004
  144OSM   H15F15893   0.418   4.713   7.695  2.3992 -3.1946 -3.1375
  144OSM   H15G15894   0.569   4.660   7.773  0.1169 -0.5404 -3.7060
  144OSM   C16F15895   0.408   4.698   7.920 -0.1459  0.0122  0.3672
  144OSM   H16F15896   0.310   4.659   7.956  0.3359 -0.6831  0.9638
  144OSM   H16G15897   0.400   4.808   7.911  3.3111  0.2595 -1.0866
  144OSM   C17F15898   0.507   4.661   8.030 -0.5084 -0.4636  0.0469
  144OSM   H17F15899   0.610   4.701   8.019 -0.3742  0.9767  4.3367
  144OSM   H17G15900   0.517   4.550   8.030  0.8248 -0.3654  0.4246
  144OSM   C18F15901   0.457   4.707   8.168 -0.3001  0.1296 -0.2416
  144OSM   H18F15902   0.354   4.667   8.178 -0.0689 -0.1064  1.6943
  144OSM   H18G15903   0.470   4.817   8.180  0.8732 -0.2237  2.3305
  144OSM   H18H15904   0.512   4.654   8.249 -1.5104 -0.8718 -0.0499
  145SAPE     N15905   2.360   6.437  10.903 -0.1756  0.1091  0.0178
  145SAPE   HN115906   2.338   6.363  10.973  1.4658  0.9448  1.4920
  145SAPE   HN215907   2.455   6.473  10.925 -0.0458 -0.0678 -0.2477
  145SAPE   HN315908   2.290   6.508  10.933  0.1188 -0.5261  2.4730
  145SAPE   C1215909   2.345   6.393  10.758  0.0845 -0.2430 -0.4889
  145SAPE  H12A15910   2.409   6.458  10.694 -1.9146  0.5397 -1.7812
  145SAPE  H12B15911   2.238   6.407  10.733 -0.3225  0.8004  1.6458
  145SAPE   C1115912   2.375   6.243  10.749 -0.6870  0.7403  0.2502
  145SAPE  H11A15913   2.360   6.199  10.648 -2.6528 -0.3680  0.9681
  145SAPE  H11B15914   2.305   6.184  10.812 -1.6626 -1.1037 -2.3863
  145SAPE     P15915   2.587   6.081  10.745  0.3993 -0.2512  0.3561
  145SAPE   O1315916   2.708   6.047  10.821  0.3610  0.2759  0.2541
  145SAPE   O1415917   2.486   5.969  10.740 -0.2878  0.2055 -0.1399
  145SAPE   O1215918   2.514   6.213  10.788 -0.3449 -0.0828 -0.4709
  145SAPE   O1115919   2.612   6.114  10.590 -0.1578 -0.0891  0.3539
  145SAPE    C115920   2.658   6.242  10.566  0.0233  0.0358 -0.0802
  145SAPE    HA15921   2.599   6.323  10.613  1.3712  1.0073 -0.0229
  145SAPE    HB15922   2.763   6.252  10.599  0.3904 -1.0871 -0.8529
  145SAPE    C215923   2.668   6.269  10.414 -0.0941 -0.7722 -0.0733
  145SAPE    HS15924   2.644   6.376  10.401 -1.2143 -1.3195 -3.1139
  145SAPE   O2115925   2.579   6.188  10.336  0.4339 -0.5577 -0.8569
  145SAPE   C2115926   2.445   6.208  10.365 -0.0331 -0.3356 -0.5909
  145SAPE   O2215927   2.409   6.309  10.425  0.4057  0.6050 -0.6149
  145SAPE   C2215928   2.367   6.090  10.319 -0.6504 -0.1279  0.0045
  145SAPE   H2R15929   2.376   6.081  10.208  1.9981 -4.6660  0.3395
  145SAPE   H2S15930   2.401   5.995  10.366  1.7354  0.3560 -0.6044
  145SAPE    C315931   2.819   6.257  10.363 -0.2601 -0.2474  0.2694
  145SAPE    HX15932   2.850   6.153  10.386 -1.7710 -0.9274 -0.6232
  145SAPE    HY15933   2.882   6.329  10.420  0.8657 -0.4300 -0.7124
  145SAPE   O3115934   2.833   6.285  10.221 -0.1946  0.4158 -0.2489
  145SAPE   C3115935   2.831   6.411  10.183 -0.4676  0.4108 -0.1249
  145SAPE   O3215936   2.827   6.505  10.256  0.5941 -0.5151 -0.1210
  145SAPE   C3215937   2.805   6.426  10.034  0.5763  0.6867  0.2127
  145SAPE   H2X15938   2.701   6.458  10.016  0.4140 -0.6738 -1.4745
  145SAPE   H2Y15939   2.802   6.326   9.985  2.5134  1.7707 -2.2955
  145SAPE   C2315940   2.215   6.101  10.344 -0.6610 -0.4448  0.2254
  145SAPE   H3R15941   2.199   6.138  10.447  2.4844 -0.3227  0.7871
  145SAPE   H3S15942   2.184   5.994  10.337 -0.2717 -0.5308 -0.3053
  145SAPE   C2415943   2.133   6.174  10.240  0.2917  0.1289 -1.0746
  145SAPE   H4R15944   2.027   6.141  10.248  0.2079  0.6839  0.4133
  145SAPE   H4S15945   2.173   6.144  10.141  2.2322 -0.2360 -0.2147
  145SAPE   C2515946   2.145   6.323  10.241  0.6433 -0.1061 -0.5054
  145SAPE   H5R15947   2.114   6.367  10.337  0.1585 -2.3239  0.4264
  145SAPE   C2615948   2.186   6.403  10.134 -0.0460 -0.4370  0.0301
  145SAPE   H6R15949   2.191   6.512  10.149  0.2750 -0.5023  0.3956
  145SAPE   C2715950   2.226   6.357   9.996  0.4045 -0.1223  0.4016
  145SAPE   H7R15951   2.178   6.434   9.931 -3.8268 -0.8438  2.3620
  145SAPE   H7S15952   2.184   6.258   9.967 -1.5763  0.6927  0.3407
  145SAPE   C2815953   2.376   6.368   9.967 -0.5352  0.7679 -0.0878
  145SAPE   H8R15954   2.422   6.455  10.017 -0.5208 -0.2915  1.8801
  145SAPE   C2915955   2.446   6.276   9.891 -0.6030 -0.0344 -0.4885
  145SAPE   H9R15956   2.553   6.291   9.869 -0.6533  0.8644 -0.1389
  145SAPE  C21015957   2.380   6.158   9.833  0.1642 -0.5789  1.1111
  145SAPE  H10R15958   2.285   6.184   9.783  0.2928  1.4830  1.7982
  145SAPE  H10S15959   2.365   6.081   9.912 -0.2478 -1.2760  0.3612
  145SAPE  C21115960   2.465   6.095   9.723  0.0592 -0.3777 -0.1964
  145SAPE  H11R15961   2.529   6.013   9.758 -0.1375  0.1734  1.5239
  145SAPE  C21215962   2.476   6.123   9.589 -0.7123  0.0645 -1.3747
  145SAPE  H12R15963   2.536   6.054   9.528 -0.3197 -1.6627  0.8575
  145SAPE  C21315964   2.402   6.232   9.521  0.6527  0.5408 -0.2439
  145SAPE  H13R15965   2.304   6.245   9.572  0.3383 -0.5884 -0.5106
  145SAPE  H13S15966   2.382   6.203   9.415  0.7911 -1.3659  0.2045
  145SAPE  C21415967   2.487   6.356   9.522  0.4945  1.0101 -0.4368
  145SAPE  H14R15968   2.479   6.420   9.611  2.4289  0.1473  0.4146
  145SAPE  C21515969   2.529   6.420   9.414 -0.4189  0.3781 -0.1884
  145SAPE  H15R15970   2.584   6.515   9.416 -0.0775  0.1972 -0.6709
  145SAPE  C21615971   2.500   6.365   9.271  0.6479  0.2641  0.1870
  145SAPE  H16R15972   2.397   6.393   9.241 -0.0434 -0.1784  2.0248
  145SAPE  H16S15973   2.518   6.256   9.258  0.2150  0.2935 -0.6772
  145SAPE  C21715974   2.587   6.449   9.169  0.6808  0.2867 -0.2621
  145SAPE  H17R15975   2.692   6.420   9.189  0.4458 -2.6959 -2.5495
  145SAPE  H17S15976   2.573   6.555   9.199  0.0236  0.0303  0.3618
  145SAPE  C21815977   2.551   6.424   9.015  0.0322 -0.2613 -0.1041
  145SAPE  H18R15978   2.443   6.447   9.009 -0.4591 -2.0964  1.0500
  145SAPE  H18S15979   2.566   6.317   8.990 -0.0913 -0.3247  0.0904
  145SAPE  C21915980   2.635   6.520   8.924 -0.4035  0.4089  0.0401
  145SAPE  H19R15981   2.742   6.490   8.932 -0.2490  1.1886  0.9504
  145SAPE  H19S15982   2.642   6.621   8.969 -0.9988  0.6133 -0.3189
  145SAPE  C22015983   2.576   6.531   8.785 -0.0232 -0.0559  0.0725
  145SAPE  H20R15984   2.604   6.438   8.733  2.4316  0.6979 -0.0757
  145SAPE  H20S15985   2.609   6.622   8.730  2.1923 -0.8785 -0.0292
  145SAPE  H20T15986   2.466   6.538   8.797 -0.0897 -0.0556 -0.5069
  145SAPE   C3315987   2.912   6.517   9.969  0.2054  0.2204  0.3431
  145SAPE   H3X15988   3.013   6.490  10.007  0.6609  1.2215 -0.1370
  145SAPE   H3Y15989   2.892   6.623   9.994 -0.4756 -0.0408  0.9414
  145SAPE   C3415990   2.903   6.488   9.818  0.0249 -0.0487  0.7997
  145SAPE   H4X15991   2.802   6.533   9.806 -0.9464 -2.4108 -0.4331
  145SAPE   H4Y15992   2.903   6.385   9.778 -1.0703  0.9233 -1.9541
  145SAPE   C3515993   3.008   6.558   9.728 -0.5184 -0.1209 -0.2111
  145SAPE   H5X15994   3.103   6.501   9.730  0.4646  1.4728  1.9719
  145SAPE   H5Y15995   3.023   6.657   9.776 -1.3570 -0.5550  0.9807
  145SAPE   C3615996   2.970   6.575   9.587 -0.1211  0.2637  0.5703
  145SAPE   H6X15997   2.879   6.639   9.592 -0.9050 -0.8251  0.5856
  145SAPE   H6Y15998   2.945   6.476   9.543 -0.0237  0.2642  0.5141
  145SAPE   C3715999   3.084   6.633   9.509 -0.3778 -0.6071 -0.1729
  145SAPE   H7X16000   3.175   6.569   9.517 -0.3660 -0.3900  1.9483
  145SAPE   H7Y16001   3.111   6.724   9.567 -3.8723 -0.2553  1.1363
  145SAPE   C3816002   3.052   6.688   9.372 -0.0687  0.0342  0.5426
  145SAPE   H8X16003   3.145   6.735   9.333  0.2095 -1.5857 -0.8285
  145SAPE   H8Y16004   2.981   6.774   9.370  0.8770  0.8321 -1.0945
  145SAPE   C3916005   2.997   6.580   9.277 -0.2179  0.7845  0.5740
  145SAPE   H9X16006   2.909   6.535   9.326 -0.6028 -0.8572 -1.4662
  145SAPE   H9Y16007   3.073   6.500   9.257 -0.0819  1.4332 -1.9208
  145SAPE  C31016008   2.942   6.641   9.148 -0.3734  0.0708  0.8844
  145SAPE  H10X16009   2.862   6.714   9.172 -1.6881 -1.1696  0.4092
  145SAPE  H10Y16010   2.901   6.547   9.105  2.6958 -0.3231 -1.4803
  145SAPE  C31116011   3.038   6.709   9.053 -0.4019 -0.0382  0.7297
  145SAPE  H11X16012   3.132   6.653   9.037 -0.9656 -0.6981 -0.3638
  145SAPE  H11Y16013   3.066   6.809   9.094 -1.2798 -0.3471  2.1856
  145SAPE  C31216014   2.974   6.733   8.915  0.4912  0.2593  0.5138
  145SAPE  H12X16015   2.877   6.787   8.929  0.8225  1.0652 -0.1892
  145SAPE  H12Y16016   2.954   6.636   8.864  1.9207  0.0352  0.3547
  145SAPE  C31316017   3.058   6.807   8.814 -0.7620 -0.0034 -0.2586
  145SAPE  H13X16018   3.138   6.736   8.784 -2.0300 -1.2615 -0.7286
  145SAPE  H13Y16019   3.108   6.887   8.873  0.5522  0.0066 -1.3263
  145SAPE  C31416020   2.974   6.867   8.700  0.6464 -0.7387  0.3242
  145SAPE  H14X16021   3.044   6.940   8.654  1.2010 -1.8363 -0.6421
  145SAPE  H14Y16022   2.883   6.921   8.732  0.8312 -0.9100  1.1559
  145SAPE  C31516023   2.914   6.764   8.599 -0.1139 -0.9126  0.8379
  145SAPE  H15X16024   2.841   6.703   8.657 -2.5720  2.1930  1.2607
  145SAPE  H15Y16025   2.985   6.690   8.555 -0.6902 -1.0683  0.1565
  145SAPE  C31616026   2.846   6.820   8.470  0.2029  0.3541  0.4483
  145SAPE  H16X16027   2.926   6.875   8.415  1.8524 -1.8264  0.4852
  145SAPE  H16Y16028   2.753   6.873   8.497  0.3270 -0.7563  3.4786
  145SAPE  C31716029   2.813   6.712   8.359 -0.7126 -0.2963 -0.3220
  145SAPE  H17X16030   2.764   6.773   8.280  0.8665  0.7084 -0.5914
  145SAPE  H17Y16031   2.742   6.632   8.388 -0.2010 -0.4780  0.4538
  145SAPE  C31816032   2.926   6.637   8.294 -0.3407 -0.5413  0.3853
  145SAPE  H18X16033   2.984   6.712   8.238 -1.3309  0.5847  0.8233
  145SAPE  H18Y16034   2.875   6.564   8.228 -1.8356  0.1904  0.6863
  145SAPE  H18Z16035   2.998   6.599   8.370 -0.1124  0.6309  0.7676
  146SAPE     N16036   3.463   0.657  10.607  0.2148 -0.0624  0.4207
  146SAPE   HN116037   3.366   0.690  10.594  0.8613  1.4174 -0.9031
  146SAPE   HN216038   3.504   0.692  10.696  0.0436 -0.7087  0.7620
  146SAPE   HN316039   3.515   0.696  10.526  0.8340 -1.3195  0.1883
  146SAPE   C1216040   3.458   0.507  10.610  0.2737 -0.6150 -0.1380
  146SAPE  H12A16041   3.448   0.470  10.505 -0.4788 -0.3013 -0.1854
  146SAPE  H12B16042   3.372   0.476  10.674  1.9768 -2.6932  1.2499
  146SAPE   C1116043   3.582   0.445  10.669  0.5778  0.3422  0.2662
  146SAPE  H11A16044   3.671   0.453  10.603  2.0163 -0.7788  1.9757
  146SAPE  H11B16045   3.564   0.337  10.684 -0.9401  0.7796  1.7898
  146SAPE     P16046   3.751   0.463  10.864  0.1916  0.2315 -0.1681
  146SAPE   O1316047   3.878   0.495  10.788  0.0116  0.3713  0.0513
  146SAPE   O1416048   3.742   0.512  11.005 -0.1118 -0.4594 -0.3380
  146SAPE   O1216049   3.618   0.506  10.795 -0.8285 -0.0039  0.0822
  146SAPE   O1116050   3.735   0.309  10.877  0.1536 -0.3193  0.3981
  146SAPE    C116051   3.851   0.231  10.886 -0.0089  0.9788  0.1846
  146SAPE    HA16052   3.932   0.285  10.940 -0.2840  0.3777  1.2361
  146SAPE    HB16053   3.818   0.140  10.942 -1.2834  1.3469  0.0594
  146SAPE    C216054   3.913   0.191  10.753  0.4039  0.3908 -0.7842
  146SAPE    HS16055   3.939   0.285  10.698 -1.5913  1.7913  0.5298
  146SAPE   O2116056   3.828   0.102  10.684  0.5822 -0.5062 -0.1678
  146SAPE   C2116057   3.778   0.151  10.566 -0.5489 -0.5036 -0.0360
  146SAPE   O2216058   3.818   0.248  10.507  0.0535 -0.3398  0.1712
  146SAPE   C2216059   3.673   0.048  10.521 -0.3004 -0.1625  0.6833
  146SAPE   H2R16060   3.714  -0.053  10.500  0.7936 -0.2726  3.0649
  146SAPE   H2S16061   3.596   0.027  10.598  0.8694 -1.3818  1.5654
  146SAPE    C316062   4.053   0.117  10.768 -0.5093 -0.6250 -0.2276
  146SAPE    HX16063   4.024   0.013  10.793  0.2034 -1.3076 -2.0657
  146SAPE    HY16064   4.103   0.160  10.857 -0.6961  0.7380 -0.7532
  146SAPE   O3116065   4.129   0.120  10.647 -0.1746  0.1052 -0.2573
  146SAPE   C3116066   4.192   0.239  10.625  0.1520  0.1218  0.6438
  146SAPE   O3216067   4.201   0.332  10.702  0.2409  0.0207  0.0799
  146SAPE   C3216068   4.260   0.215  10.482  0.0326  0.2965 -0.7751
  146SAPE   H2X16069   4.308   0.115  10.477  0.6822  0.4850  1.0987
  146SAPE   H2Y16070   4.334   0.294  10.462 -0.5852  0.9676 -0.4579
  146SAPE   C2316071   3.615   0.089  10.386  0.1770 -0.1862  0.8017
  146SAPE   H3R16072   3.563   0.004  10.338  1.2518 -0.4349  0.0390
  146SAPE   H3S16073   3.688   0.097  10.302 -0.9711 -0.1498 -0.2177
  146SAPE   C2416074   3.530   0.217  10.392 -0.4017  0.0120  0.4327
  146SAPE   H4R16075   3.520   0.258  10.289 -0.9856 -0.3443  0.3444
  146SAPE   H4S16076   3.588   0.285  10.458 -1.2066 -0.1413  1.3239
  146SAPE   C2516077   3.396   0.179  10.457 -0.3220 -0.5574  0.1391
  146SAPE   H5R16078   3.397   0.113  10.545 -0.9258 -1.0733 -0.2353
  146SAPE   C2616079   3.279   0.240  10.427  1.0833 -0.1919 -0.8305
  146SAPE   H6R16080   3.194   0.216  10.492  1.5646 -1.8650 -0.7847
  146SAPE   C2716081   3.252   0.353  10.323 -0.0723 -0.3112 -0.3327
  146SAPE   H7R16082   3.344   0.412  10.306 -0.9095  1.3762  0.7791
  146SAPE   H7S16083   3.186   0.430  10.367  1.0575  1.3117 -1.3886
  146SAPE   C2816084   3.215   0.294  10.188 -0.3577  0.5935 -0.3377
  146SAPE   H8R16085   3.199   0.185  10.183 -0.2862  0.4366  1.6814
  146SAPE   C2916086   3.178   0.366  10.086  0.0593  0.5003  0.0519
  146SAPE   H9R16087   3.160   0.322   9.986 -2.1355 -0.1251  0.6556
  146SAPE  C21016088   3.164   0.511  10.089 -0.1126 -0.9220 -0.0978
  146SAPE  H10R16089   3.144   0.546  10.193 -0.2658  0.0769 -0.4514
  146SAPE  H10S16090   3.067   0.540  10.045 -1.1417  1.4711  3.2904
  146SAPE  C21116091   3.262   0.605  10.031 -0.2417  0.3434 -0.1665
  146SAPE  H11R16092   3.309   0.662  10.113 -1.7993  0.0791  0.9424
  146SAPE  C21216093   3.304   0.612   9.899 -0.2647  0.4952 -0.8618
  146SAPE  H12R16094   3.374   0.692   9.873  1.1518 -0.1415  0.7682
  146SAPE  C21316095   3.263   0.530   9.773 -0.2544  0.3036 -0.6665
  146SAPE  H13R16096   3.225   0.596   9.692  0.2865  1.3994 -0.0487
  146SAPE  H13S16097   3.177   0.465   9.801  0.5952 -0.2117  0.8934
  146SAPE  C21416098   3.378   0.442   9.730 -0.4573 -0.5531  0.8862
  146SAPE  H14R16099   3.417   0.361   9.793 -0.3724 -0.4968  0.9048
  146SAPE  C21516100   3.411   0.434   9.597 -0.1126  0.4805  0.4105
  146SAPE  H15R16101   3.493   0.363   9.577  0.6756  1.0771  1.3793
  146SAPE  C21616102   3.369   0.511   9.473  0.2196  0.1084  0.1623
  146SAPE  H16R16103   3.374   0.620   9.494  0.7471 -0.0887  1.1328
  146SAPE  H16S16104   3.270   0.477   9.434  1.9504 -2.9334 -2.0007
  146SAPE  C21716105   3.479   0.485   9.364  0.1120 -0.1022 -0.3054
  146SAPE  H17R16106   3.496   0.378   9.339 -0.7734 -1.2172  3.2384
  146SAPE  H17S16107   3.580   0.520   9.393  0.6069 -1.7110 -0.0107
  146SAPE  C21816108   3.444   0.561   9.229  0.3004  0.4096 -0.6606
  146SAPE  H18R16109   3.440   0.671   9.241  0.8547  0.7038 -2.7096
  146SAPE  H18S16110   3.341   0.532   9.201  0.0785  0.1309  0.3918
  146SAPE  C21916111   3.551   0.540   9.124  0.3123  0.5741 -0.6275
  146SAPE  H19R16112   3.648   0.579   9.161  0.9724  1.8080 -3.3544
  146SAPE  H19S16113   3.525   0.593   9.030 -1.7520  0.5937 -0.0881
  146SAPE  C22016114   3.555   0.395   9.078 -1.0619  0.0476  0.2941
  146SAPE  H20R16115   3.466   0.358   9.022  1.1827 -0.3664 -3.2831
  146SAPE  H20S16116   3.570   0.330   9.167 -2.7347  0.5503  0.9997
  146SAPE  H20T16117   3.632   0.375   9.001  0.2663  1.4929  1.1925
  146SAPE   C3316118   4.152   0.212  10.373 -0.1665  0.0888 -0.3748
  146SAPE   H3X16119   4.071   0.289  10.370 -0.9551 -0.4991  2.6164
  146SAPE   H3Y16120   4.092   0.118  10.379 -1.4085  0.9072  0.4718
  146SAPE   C3416121   4.218   0.223  10.237 -0.6379  0.2501 -0.6214
  146SAPE   H4X16122   4.163   0.159  10.166 -3.1869  0.4946  0.9880
  146SAPE   H4Y16123   4.327   0.200  10.240 -0.0972  2.5297  2.6861
  146SAPE   C3516124   4.216   0.370  10.182  0.1237 -0.6297  0.3108
  146SAPE   H5X16125   4.297   0.436  10.220 -1.3881  1.0395  0.7482
  146SAPE   H5Y16126   4.119   0.416  10.211  0.5183  1.5867 -1.5588
  146SAPE   C3616127   4.212   0.382  10.026 -0.2071  0.2653  0.6903
  146SAPE   H6X16128   4.190   0.488  10.001  1.0969  1.0068  2.4872
  146SAPE   H6Y16129   4.140   0.306   9.989 -0.1419  0.3290  0.4287
  146SAPE   C3716130   4.343   0.346   9.960 -0.4980 -0.3516 -0.5789
  146SAPE   H7X16131   4.394   0.254   9.997  1.5709 -0.2651 -2.9263
  146SAPE   H7Y16132   4.412   0.431   9.977 -0.9429 -0.2178  0.6451
  146SAPE   C3816133   4.335   0.328   9.805 -0.2439  0.4668  0.3405
  146SAPE   H8X16134   4.267   0.398   9.751 -0.4456 -0.4499 -0.6098
  146SAPE   H8Y16135   4.297   0.225   9.791 -1.5990  0.7038  1.8471
  146SAPE   C3916136   4.464   0.329   9.735 -0.0835  0.3101  0.0195
  146SAPE   H9X16137   4.533   0.262   9.790 -1.6113 -0.9489  0.4808
  146SAPE   H9Y16138   4.515   0.427   9.751  0.4408  0.3558 -1.7180
  146SAPE  C31016139   4.457   0.293   9.587  0.0058 -0.4390  0.2935
  146SAPE  H10X16140   4.370   0.344   9.540  0.4365  0.9749  0.9759
  146SAPE  H10Y16141   4.443   0.183   9.572  2.4964 -0.4814 -2.4195
  146SAPE  C31116142   4.580   0.335   9.510 -0.0502  0.3575 -0.3271
  146SAPE  H11X16143   4.671   0.282   9.546 -1.1279 -1.9548 -0.8231
  146SAPE  H11Y16144   4.611   0.440   9.529 -0.2755  0.2235  0.8691
  146SAPE  C31216145   4.566   0.311   9.355 -0.1477  0.2148 -0.1613
  146SAPE  H12X16146   4.480   0.364   9.309  1.7585  1.3206 -2.6787
  146SAPE  H12Y16147   4.537   0.205   9.337 -0.4725 -0.1532  2.1889
  146SAPE  C31316148   4.685   0.366   9.278 -0.3725  0.6401  0.9074
  146SAPE  H13X16149   4.769   0.304   9.316 -1.4193 -0.8512  0.8968
  146SAPE  H13Y16150   4.708   0.473   9.296  0.1368  0.4716  1.2982
  146SAPE  C31416151   4.669   0.335   9.130 -0.1552  0.0912 -0.2893
  146SAPE  H14X16152   4.589   0.398   9.085  0.8274  1.3164 -0.4005
  146SAPE  H14Y16153   4.649   0.229   9.105 -0.1270  0.3764 -1.6428
  146SAPE  C31516154   4.806   0.370   9.069  0.0411  0.2774  0.4093
  146SAPE  H15X16155   4.863   0.289   9.119 -0.8499 -0.1975  0.6798
  146SAPE  H15Y16156   4.839   0.473   9.093 -0.0576  0.3056  0.4227
  146SAPE  C31616157   4.829   0.349   8.921  0.4007 -0.1963  0.1213
  146SAPE  H16X16158   4.789   0.250   8.891  0.3430  0.4862 -2.1955
  146SAPE  H16Y16159   4.939   0.338   8.909  0.9001  0.9661  2.8758
  146SAPE  C31716160   4.760   0.463   8.837 -0.1117 -0.0539 -0.0060
  146SAPE  H17X16161   4.675   0.503   8.896  2.0687  4.0415  0.7284
  146SAPE  H17Y16162   4.714   0.425   8.744 -0.2647 -0.5898  0.2841
  146SAPE  C31816163   4.858   0.580   8.808 -0.4395 -0.5572 -0.5115
  146SAPE  H18X16164   4.800   0.640   8.734 -1.4739  0.5745  1.1295
  146SAPE  H18Y16165   4.960   0.555   8.772  0.5317  0.2385  1.5299
  146SAPE  H18Z16166   4.878   0.645   8.896  2.2484 -3.8718  1.5874
  147SAPE     N16167   3.702   2.720  11.094 -0.0653  0.3935 -0.1765
  147SAPE   HN116168   3.647   2.808  11.110 -3.3084 -1.5127  0.0107
  147SAPE   HN216169   3.661   2.652  11.161 -2.8292  2.7355  0.7537
  147SAPE   HN316170   3.801   2.742  11.116 -0.4337  0.4691  1.6063
  147SAPE   C1216171   3.688   2.679  10.947 -0.2146 -0.5674 -0.5735
  147SAPE  H12A16172   3.771   2.723  10.889  0.5007 -2.2332 -0.8607
  147SAPE  H12B16173   3.598   2.725  10.901  0.9945  0.9098 -1.5512
  147SAPE   C1116174   3.675   2.523  10.931  0.6226  0.0894 -0.3227
  147SAPE  H11A16175   3.770   2.479  10.968  1.0360  1.5944  0.5272
  147SAPE  H11B16176   3.664   2.513  10.821 -0.2037  2.1067 -0.4802
  147SAPE     P16177   3.533   2.311  11.003 -0.2957  0.3098  0.6859
  147SAPE   O1316178   3.644   2.244  11.076  0.3341  0.0742 -0.4458
  147SAPE   O1416179   3.396   2.290  11.058  0.6680  0.0375  0.3684
  147SAPE   O1216180   3.565   2.468  11.005 -0.0195 -0.3565 -0.1932
  147SAPE   O1116181   3.525   2.270  10.853 -0.3663  0.8397  0.5586
  147SAPE    C116182   3.440   2.329  10.754 -0.4852 -0.6306  0.3228
  147SAPE    HA16183   3.339   2.287  10.773 -1.7765  1.8461 -0.5529
  147SAPE    HB16184   3.434   2.439  10.768  0.7871 -0.3847 -0.8593
  147SAPE    C216185   3.478   2.287  10.614  0.7232  0.3774  0.5771
  147SAPE    HS16186   3.405   2.337  10.548 -1.7098 -2.7753  0.6399
  147SAPE   O2116187   3.465   2.141  10.610 -0.7959 -0.1567  0.7162
  147SAPE   C2116188   3.362   2.096  10.533  0.0672  1.0978 -0.2146
  147SAPE   O2216189   3.288   2.167  10.466 -1.0921  0.4005  0.4095
  147SAPE   C2216190   3.356   1.944  10.554  0.3625  0.3542  0.0015
  147SAPE   H2R16191   3.453   1.893  10.537  0.6452  0.3638  1.5074
  147SAPE   H2S16192   3.307   1.921  10.651 -0.5302 -0.6329 -0.6647
  147SAPE    C316193   3.623   2.337  10.590 -0.1721 -0.4093 -0.4023
  147SAPE    HX16194   3.688   2.278  10.660  0.5173  0.7037 -0.0883
  147SAPE    HY16195   3.614   2.441  10.627  1.6556 -1.2338  2.8566
  147SAPE   O3116196   3.659   2.323  10.445 -0.2477  0.3943  0.3759
  147SAPE   C3116197   3.654   2.434  10.374 -0.0752  0.0798  0.2631
  147SAPE   O3216198   3.613   2.542  10.410 -0.6448  0.5398 -0.4472
  147SAPE   C3216199   3.718   2.413  10.236 -0.1687 -0.0850  0.1631
  147SAPE   H2X16200   3.818   2.365  10.241 -0.6327 -1.0693  0.2033
  147SAPE   H2Y16201   3.729   2.511  10.185  2.7525  0.5557  1.7794
  147SAPE   C2316202   3.253   1.878  10.455 -0.0246 -0.3706  0.5675
  147SAPE   H3R16203   3.168   1.949  10.443  0.0932 -0.2962  0.1340
  147SAPE   H3S16204   3.228   1.780  10.500  0.4363 -0.2646  1.0595
  147SAPE   C2416205   3.323   1.856  10.320  0.3510  0.0422  0.2151
  147SAPE   H4R16206   3.259   1.778  10.273  1.0856  0.2546 -1.2252
  147SAPE   H4S16207   3.416   1.796  10.332 -1.4372 -2.9406  0.2922
  147SAPE   C2516208   3.357   1.981  10.239  1.0548  0.6970  0.1015
  147SAPE   H5R16209   3.412   2.061  10.290  1.6555  1.0286 -1.0426
  147SAPE   C2616210   3.320   2.001  10.109 -0.4637  0.1075  0.1981
  147SAPE   H6R16211   3.336   2.097  10.058  1.1542 -0.7406 -0.9771
  147SAPE   C2716212   3.239   1.906  10.026 -0.4888  0.1575  0.3266
  147SAPE   H7R16213   3.131   1.919  10.046 -0.2618 -0.0407  1.7855
  147SAPE   H7S16214   3.267   1.799  10.040  0.4593  0.5035  1.3058
  147SAPE   C2816215   3.252   1.944   9.879 -0.1291 -0.1556 -0.0661
  147SAPE   H8R16216   3.225   2.048   9.855 -0.6103 -0.2142  0.2002
  147SAPE   C2916217   3.281   1.862   9.779 -0.1319 -0.4573 -0.4187
  147SAPE   H9R16218   3.266   1.904   9.678  0.1295  1.2063  0.2006
  147SAPE  C21016219   3.318   1.716   9.785  0.6022  0.5773  0.1697
  147SAPE  H10R16220   3.285   1.664   9.693 -1.5127  2.1095 -0.0152
  147SAPE  H10S16221   3.247   1.668   9.856 -0.3678 -0.3298 -1.3601
  147SAPE  C21116222   3.450   1.671   9.836  0.3145 -0.5870  0.6990
  147SAPE  H11R16223   3.473   1.720   9.932  0.4868  1.7482 -0.4611
  147SAPE  C21216224   3.537   1.604   9.771 -0.2809  0.3294  0.0616
  147SAPE  H12R16225   3.636   1.583   9.814 -1.1530 -0.8373  1.6252
  147SAPE  C21316226   3.507   1.542   9.636 -0.0448 -0.0151 -0.2732
  147SAPE  H13R16227   3.491   1.634   9.575  1.4921  1.1801  1.0184
  147SAPE  H13S16228   3.429   1.465   9.655  0.0109  0.0137  0.0702
  147SAPE  C21416229   3.625   1.456   9.597  0.3799  0.4355  0.4174
  147SAPE  H14R16230   3.673   1.389   9.670  2.4404  0.6155 -0.6903
  147SAPE  C21516231   3.676   1.454   9.471 -0.0459  0.0178 -0.2739
  147SAPE  H15R16232   3.757   1.384   9.445  0.9529  0.9519  0.2398
  147SAPE  C21616233   3.640   1.542   9.348 -0.0054 -0.1673 -0.2947
  147SAPE  H16R16234   3.726   1.609   9.326 -1.8847  2.7588  0.6039
  147SAPE  H16S16235   3.557   1.610   9.378  0.0315 -0.4747  0.5100
  147SAPE  C21716236   3.587   1.455   9.222  0.6096 -0.4952 -0.3134
  147SAPE  H17R16237   3.546   1.526   9.148  1.3083  0.4973  0.2286
  147SAPE  H17S16238   3.503   1.388   9.252 -0.0490  1.6280  3.0860
  147SAPE  C21816239   3.694   1.364   9.153 -0.4083  0.5809  0.6314
  147SAPE  H18R16240   3.779   1.344   9.222 -0.6837 -0.7941  0.6102
  147SAPE  H18S16241   3.726   1.416   9.061 -1.2604  1.0924  0.6177
  147SAPE  C21916242   3.634   1.221   9.121 -0.7487 -1.0254 -0.1073
  147SAPE  H19R16243   3.721   1.175   9.070 -0.5619  0.6384 -1.3657
  147SAPE  H19S16244   3.546   1.233   9.055 -1.1819  1.4372  0.8089
  147SAPE  C22016245   3.605   1.138   9.243  0.2490  0.0957  0.1559
  147SAPE  H20R16246   3.556   1.198   9.323 -3.7163 -1.2282 -1.0041
  147SAPE  H20S16247   3.697   1.081   9.268 -0.4836 -0.3768  2.0081
  147SAPE  H20T16248   3.524   1.069   9.211  0.2708 -0.4379  1.1761
  147SAPE   C3316249   3.634   2.317  10.155 -0.1889  0.1788  0.1859
  147SAPE   H3X16250   3.532   2.359  10.147 -0.9853 -1.5358  0.8383
  147SAPE   H3Y16251   3.622   2.220  10.208 -1.8460  1.3126  2.0028
  147SAPE   C3416252   3.702   2.297  10.018 -0.3597 -0.1393  0.8297
  147SAPE   H4X16253   3.802   2.250  10.031  0.2773  1.3380  1.4706
  147SAPE   H4Y16254   3.722   2.395   9.969 -1.0830 -0.5336 -0.2764
  147SAPE   C3516255   3.605   2.226   9.928 -0.7085  0.2379 -0.5059
  147SAPE   H5X16256   3.509   2.282   9.926 -0.2834  0.9901 -0.3668
  147SAPE   H5Y16257   3.587   2.126   9.973 -1.4960 -0.6424 -2.6507
  147SAPE   C3616258   3.657   2.203   9.785  0.7573 -0.2616  0.3727
  147SAPE   H6X16259   3.759   2.161   9.799  1.4395  1.4243  0.7320
  147SAPE   H6Y16260   3.664   2.297   9.727  0.8760 -1.0446 -0.9359
  147SAPE   C3716261   3.550   2.116   9.709  0.8135  0.2002  0.1403
  147SAPE   H7X16262   3.450   2.136   9.752  0.8939 -1.0877  0.9799
  147SAPE   H7Y16263   3.570   2.009   9.727 -2.3790 -0.6305 -0.6652
  147SAPE   C3816264   3.555   2.142   9.561 -0.2913  0.2968  0.7085
  147SAPE   H8X16265   3.662   2.152   9.532 -0.6885  1.6216 -0.4378
  147SAPE   H8Y16266   3.506   2.241   9.545  2.0541  1.3310 -0.5162
  147SAPE   C3916267   3.481   2.033   9.479  0.3482  0.2361 -0.0618
  147SAPE   H9X16268   3.382   2.012   9.526 -0.0198 -3.7825 -2.2509
  147SAPE   H9Y16269   3.536   1.938   9.495  0.1070  0.1537  0.3054
  147SAPE  C31016270   3.476   2.070   9.326  0.2942  0.2654  0.0822
  147SAPE  H10X16271   3.473   1.971   9.276  0.1110 -0.2020  1.0008
  147SAPE  H10Y16272   3.568   2.126   9.297 -0.8975  1.1105 -2.2681
  147SAPE  C31116273   3.358   2.151   9.281  0.9935 -0.5078  0.0305
  147SAPE  H11X16274   3.333   2.224   9.362 -3.5809 -1.4687 -0.2428
  147SAPE  H11Y16275   3.268   2.087   9.291  0.2923  0.3512 -0.5623
  147SAPE  C31216276   3.355   2.214   9.146  0.1836  0.0915 -0.2250
  147SAPE  H12X16277   3.443   2.281   9.135  0.8237 -1.0483 -2.9073
  147SAPE  H12Y16278   3.262   2.274   9.138  1.0376  1.5323  0.1163
  147SAPE  C31316279   3.350   2.116   9.034 -0.0283  0.2910  0.5661
  147SAPE  H13X16280   3.248   2.071   9.027  1.2978 -2.7510 -0.9549
  147SAPE  H13Y16281   3.422   2.033   9.049  0.9799  1.0670  0.1265
  147SAPE  C31416282   3.386   2.192   8.908 -0.5913  0.6026 -0.5476
  147SAPE  H14X16283   3.491   2.229   8.911 -0.2309 -0.4608  1.0094
  147SAPE  H14Y16284   3.316   2.274   8.880 -0.4443  0.2701 -1.9401
  147SAPE  C31516285   3.387   2.109   8.780 -0.1658  0.5400 -0.4478
  147SAPE  H15X16286   3.288   2.060   8.781  0.4588 -0.7673  0.7405
  147SAPE  H15Y16287   3.465   2.031   8.793 -1.4804 -0.7894 -0.2093
  147SAPE  C31616288   3.420   2.192   8.653 -0.0876  0.3892 -0.0167
  147SAPE  H16X16289   3.368   2.291   8.653  1.7580  1.4081 -0.7117
  147SAPE  H16Y16290   3.370   2.134   8.572 -0.0675 -0.2444  0.4208
  147SAPE  C31716291   3.564   2.221   8.613 -0.4497 -0.2189  0.1445
  147SAPE  H17X16292   3.600   2.298   8.685  1.2610  0.7214 -1.6175
  147SAPE  H17Y16293   3.559   2.278   8.518  1.5090 -0.2789 -0.0310
  147SAPE  C31816294   3.662   2.106   8.587 -0.3000 -0.7473 -0.0288
  147SAPE  H18X16295   3.614   2.035   8.516 -0.5223 -0.7693  0.1417
  147SAPE  H18Y16296   3.687   2.062   8.686  1.8628 -0.7673 -0.5331
  147SAPE  H18Z16297   3.761   2.142   8.553  0.2372 -0.9602  1.2651
  148SAPE     N16298   1.947   5.480  10.519 -0.9360 -0.1799 -0.1738
  148SAPE   HN116299   1.939   5.478  10.622  1.0344  1.3875  0.0695
  148SAPE   HN216300   2.047   5.506  10.515 -0.6049 -0.6244  2.8784
  148SAPE   HN316301   1.894   5.557  10.474 -0.2781  1.7966  2.2646
  148SAPE   C1216302   1.934   5.341  10.473  0.2448  0.6717  0.1440
  148SAPE  H12A16303   1.999   5.285  10.544  0.2296  0.2762 -0.1506
  148SAPE  H12B16304   1.973   5.341  10.370  0.6209 -3.5484  0.1029
  148SAPE   C1116305   1.786   5.286  10.472 -0.0761  0.4318  0.5129
  148SAPE  H11A16306   1.779   5.193  10.413  0.6937  2.0661 -2.3793
  148SAPE  H11B16307   1.724   5.363  10.421  1.2523  1.3269  0.1802
  148SAPE     P16308   1.623   5.174  10.633 -0.2564 -0.0953 -0.3199
  148SAPE   O1316309   1.593   5.086  10.523  0.0900  0.2888 -0.3135
  148SAPE   O1416310   1.640   5.109  10.767  0.0158  0.1436 -0.6754
  148SAPE   O1216311   1.747   5.269  10.605 -0.0077  0.2583  0.0638
  148SAPE   O1116312   1.515   5.284  10.648 -0.3566 -0.2627 -0.5155
  148SAPE    C116313   1.383   5.261  10.598  0.7974  0.2260 -0.9229
  148SAPE    HA16314   1.374   5.155  10.566  0.8840  0.6908 -2.5459
  148SAPE    HB16315   1.314   5.270  10.685  1.1235  0.4648 -0.6828
  148SAPE    C216316   1.346   5.345  10.473  0.3576 -0.4002  0.2693
  148SAPE    HS16317   1.238   5.340  10.448 -0.8558  0.9627  4.4119
  148SAPE   O2116318   1.430   5.315  10.354 -0.1628  0.5022 -0.2353
  148SAPE   C2116319   1.410   5.193  10.298  0.4206 -0.8875  0.9875
  148SAPE   O2216320   1.324   5.115  10.325  0.2385 -0.2717 -0.3948
  148SAPE   C2216321   1.501   5.184  10.171 -0.0515 -0.2875 -0.3852
  148SAPE   H2R16322   1.548   5.284  10.155  1.6294 -1.2905 -1.9760
  148SAPE   H2S16323   1.577   5.106  10.191  1.4096  1.4031  1.0724
  148SAPE    C316324   1.359   5.501  10.501 -0.8876  0.2531  0.4930
  148SAPE    HX16325   1.466   5.520  10.524  0.0381 -3.9511  0.4902
  148SAPE    HY16326   1.298   5.533  10.588 -1.3188  1.2370 -0.1499
  148SAPE   O3116327   1.307   5.579  10.392  0.4606  0.0567  0.2322
  148SAPE   C3116328   1.395   5.658  10.320  0.1558  0.6103 -0.3504
  148SAPE   O3216329   1.511   5.653  10.341 -0.5614  0.6405 -0.2202
  148SAPE   C3216330   1.335   5.739  10.213  0.1467 -0.2766 -0.3511
  148SAPE   H2X16331   1.319   5.838  10.261  2.2641 -0.2208  0.3416
  148SAPE   H2Y16332   1.235   5.694  10.196 -0.0542 -0.1261  0.3781
  148SAPE   C2316333   1.417   5.140  10.044 -0.6902  0.3211 -0.0985
  148SAPE   H3R16334   1.383   5.035  10.061  1.7697 -1.1584 -3.0722
  148SAPE   H3S16335   1.487   5.141   9.957  2.0001  0.1616  1.9402
  148SAPE   C2416336   1.297   5.223  10.010  0.3119 -0.1028  0.0629
  148SAPE   H4R16337   1.226   5.223  10.096 -1.1978  1.6289 -1.0993
  148SAPE   H4S16338   1.234   5.176   9.931 -2.0556  1.7279  0.7651
  148SAPE   C2516339   1.316   5.372   9.973  0.2118 -0.8730  0.2219
  148SAPE   H5R16340   1.334   5.439  10.058  1.5275 -0.8301 -0.0727
  148SAPE   C2616341   1.316   5.420   9.847  0.0093 -0.3003 -0.6035
  148SAPE   H6R16342   1.338   5.527   9.834  1.1600 -0.5319 -0.6799
  148SAPE   C2716343   1.301   5.338   9.719  0.8382  0.2538  0.1646
  148SAPE   H7R16344   1.255   5.398   9.637 -0.8036 -0.7930  0.2826
  148SAPE   H7S16345   1.235   5.250   9.730 -1.4824  1.8634 -0.1966
  148SAPE   C2816346   1.423   5.265   9.676  0.1963 -0.4491  0.2776
  148SAPE   H8R16347   1.433   5.167   9.724  2.5352  0.6987  2.3102
  148SAPE   C2916348   1.512   5.317   9.592  0.5460 -0.3847  0.1076
  148SAPE   H9R16349   1.607   5.266   9.570 -0.9516 -1.9540 -3.5114
  148SAPE  C21016350   1.501   5.454   9.533  0.6132 -0.4417  0.2746
  148SAPE  H10R16351   1.599   5.502   9.508 -0.5391  1.0482 -1.6726
  148SAPE  H10S16352   1.464   5.520   9.614  0.9790 -1.7897  1.5844
  148SAPE  C21116353   1.412   5.459   9.404 -0.4017 -0.7089  0.5629
  148SAPE  H11R16354   1.304   5.467   9.426 -0.9768  0.9376 -2.3290
  148SAPE  C21216355   1.444   5.456   9.270 -0.1460  0.5130  0.6929
  148SAPE  H12R16356   1.361   5.439   9.200 -1.3546 -0.0942  2.1979
  148SAPE  C21316357   1.586   5.446   9.221 -0.1332  0.1423 -0.0621
  148SAPE  H13R16358   1.651   5.402   9.299 -0.8491 -0.9723 -0.0768
  148SAPE  H13S16359   1.607   5.553   9.197 -1.3139  0.2420 -0.7571
  148SAPE  C21416360   1.606   5.360   9.093  0.0756  1.0688 -0.0578
  148SAPE  H14R16361   1.524   5.297   9.057 -0.0851  1.2922 -0.0887
  148SAPE  C21516362   1.716   5.365   9.015  0.0832 -0.1046  0.2188
  148SAPE  H15R16363   1.723   5.294   8.932 -0.6899  1.4194 -1.2067
  148SAPE  C21616364   1.838   5.446   9.047  0.1565  0.2792 -0.1382
  148SAPE  H16R16365   1.912   5.381   9.099 -0.1088  0.6857  0.7785
  148SAPE  H16S16366   1.818   5.533   9.112  0.8196  1.5699 -1.6206
  148SAPE  C21716367   1.901   5.503   8.915 -0.1537  0.7076  0.0499
  148SAPE  H17R16368   1.925   5.423   8.841  0.7548  0.7892  0.2483
  148SAPE  H17S16369   2.001   5.544   8.940 -0.3174  2.4911 -1.9466
  148SAPE  C21816370   1.811   5.616   8.860 -0.5087 -0.2280  0.1687
  148SAPE  H18R16371   1.802   5.699   8.934  1.2854 -0.0527  0.2316
  148SAPE  H18S16372   1.708   5.586   8.831 -0.7146 -0.6276  1.2426
  148SAPE  C21916373   1.882   5.690   8.743 -0.1774 -0.4132  0.3358
  148SAPE  H19R16374   1.804   5.757   8.701 -1.4125 -2.0381 -0.0742
  148SAPE  H19S16375   1.909   5.617   8.663  0.4587  0.0597  0.1118
  148SAPE  C22016376   2.004   5.776   8.771 -0.1359  0.4373 -0.0921
  148SAPE  H20R16377   2.075   5.711   8.826 -1.7400 -1.7694 -0.5169
  148SAPE  H20S16378   1.968   5.848   8.847 -1.3192 -0.7598  0.5308
  148SAPE  H20T16379   2.055   5.825   8.685  0.9472 -0.0015  0.2830
  148SAPE   C3316380   1.423   5.775  10.078  0.0595  0.2199 -0.3646
  148SAPE   H3X16381   1.451   5.680  10.027  0.6217  1.3997 -2.3675
  148SAPE   H3Y16382   1.511   5.825  10.123 -0.8640 -0.1638  1.9967
  148SAPE   C3416383   1.329   5.854   9.985 -0.4756  0.2022 -0.1153
  148SAPE   H4X16384   1.312   5.961  10.009  0.2309  0.4143 -0.5559
  148SAPE   H4Y16385   1.235   5.797   9.968  0.3918 -1.0633 -0.7986
  148SAPE   C3516386   1.381   5.859   9.833 -0.0467  0.2071 -0.2784
  148SAPE   H5X16387   1.416   5.757   9.808 -1.7013 -0.4316 -0.1033
  148SAPE   H5Y16388   1.463   5.934   9.834  0.1312  0.0154  1.1576
  148SAPE   C3616389   1.281   5.920   9.726  0.1828 -0.3952 -0.3625
  148SAPE   H6X16390   1.281   6.030   9.740 -0.5886 -0.2977 -1.0621
  148SAPE   H6Y16391   1.180   5.880   9.750  0.5236 -1.2969 -0.3964
  148SAPE   C3716392   1.322   5.904   9.581 -0.6613  0.6853 -0.2723
  148SAPE   H7X16393   1.253   5.958   9.512 -0.9872  1.0821  0.3556
  148SAPE   H7Y16394   1.309   5.799   9.546  1.5496 -0.2018  1.3493
  148SAPE   C3816395   1.473   5.946   9.554 -0.0641 -0.2091 -0.4109
  148SAPE   H8X16396   1.538   5.914   9.638  1.4203 -0.4830 -1.6368
  148SAPE   H8Y16397   1.468   6.057   9.553  1.3124 -0.0526  2.0129
  148SAPE   C3916398   1.534   5.894   9.423  0.7106 -0.7593 -0.7183
  148SAPE   H9X16399   1.534   5.783   9.421  0.5551 -0.7598 -0.6813
  148SAPE   H9Y16400   1.639   5.931   9.413  0.6275 -0.9938 -2.8939
  148SAPE  C31016401   1.455   5.919   9.299  0.3446  0.6990  0.3222
  148SAPE  H10X16402   1.411   6.019   9.319  1.2415  0.7094  2.4257
  148SAPE  H10Y16403   1.369   5.847   9.296  1.6037 -0.9054  1.1339
  148SAPE  C31116404   1.528   5.917   9.168 -0.0837  0.5831 -0.1418
  148SAPE  H11X16405   1.576   5.818   9.148 -3.2839 -0.9491 -0.8334
  148SAPE  H11Y16406   1.607   5.995   9.172  0.0270  0.4068  1.6251
  148SAPE  C31216407   1.445   5.954   9.046  0.7703  0.6047 -0.5275
  148SAPE  H12X16408   1.378   6.040   9.069 -0.3377  0.3807 -2.6882
  148SAPE  H12Y16409   1.374   5.874   9.018 -0.8500  1.6561  0.3933
  148SAPE  C31316410   1.515   5.995   8.915 -0.2674  0.8453 -0.1949
  148SAPE  H13X16411   1.569   5.907   8.875  0.9709  1.2497  0.5295
  148SAPE  H13Y16412   1.592   6.073   8.934 -0.8043  1.7208 -1.4698
  148SAPE  C31416413   1.425   6.056   8.808 -0.3988 -0.0999 -0.3336
  148SAPE  H14X16414   1.355   6.130   8.851 -1.4468 -0.9785 -0.4926
  148SAPE  H14Y16415   1.356   5.969   8.803 -0.6775 -0.0299  1.4915
  148SAPE  C31516416   1.499   6.084   8.680 -0.1539  0.4347  0.0314
  148SAPE  H15X16417   1.423   6.090   8.599  1.0819  1.8412 -1.0847
  148SAPE  H15Y16418   1.554   5.992   8.651 -0.7774 -1.1060  3.3173
  148SAPE  C31616419   1.582   6.212   8.671  0.3397 -0.2870  0.7684
  148SAPE  H16X16420   1.646   6.225   8.581  0.5595  2.7672  1.2823
  148SAPE  H16Y16421   1.648   6.228   8.759  0.9318 -0.4105  0.3535
  148SAPE  C31716422   1.487   6.334   8.673  0.2410  0.3349  0.2057
  148SAPE  H17X16423   1.535   6.416   8.730 -2.3681  1.7968  0.4889
  148SAPE  H17Y16424   1.389   6.316   8.724  1.4906 -0.8289  2.3340
  148SAPE  C31816425   1.463   6.380   8.532  0.0373 -0.0753 -0.6738
  148SAPE  H18X16426   1.394   6.464   8.553  0.4475 -0.0141  0.5455
  148SAPE  H18Y16427   1.418   6.299   8.471 -0.1239 -0.3935 -0.1395
  148SAPE  H18Z16428   1.548   6.424   8.477 -0.7216 -0.0991 -1.8888
  149SAPE     N16429   3.427   0.863  11.166 -0.3493  0.2921 -0.1880
  149SAPE   HN116430   3.520   0.855  11.211 -0.4534 -0.9762 -0.1507
  149SAPE   HN216431   3.351   0.833  11.231  0.1265 -2.9710 -0.9420
  149SAPE   HN316432   3.428   0.799  11.084  2.4401 -0.0011 -0.0110
  149SAPE   C1216433   3.400   1.007  11.116  0.6517  0.1742  0.4293
  149SAPE  H12A16434   3.488   1.038  11.055  0.2398  1.4278  0.4535
  149SAPE  H12B16435   3.385   1.078  11.201  0.0243  0.3834  0.1492
  149SAPE   C1116436   3.280   1.001  11.026  0.1372 -0.0028 -0.3592
  149SAPE  H11A16437   3.247   1.103  10.995  0.6110  0.3738  0.3605
  149SAPE  H11B16438   3.195   0.956  11.082 -0.2588  1.5054  0.3029
  149SAPE     P16439   3.197   0.901  10.805 -0.0272  0.2101 -1.0857
  149SAPE   O1316440   3.231   0.790  10.709 -0.0162 -0.5574  0.3863
  149SAPE   O1416441   3.073   0.889  10.881 -0.3473  0.3875  0.0641
  149SAPE   O1216442   3.314   0.923  10.909 -0.5373 -0.3637  0.7401
  149SAPE   O1116443   3.212   1.039  10.732  0.2742  0.0556  0.5103
  149SAPE    C116444   3.317   1.043  10.625  0.4915 -0.1222 -0.6134
  149SAPE    HA16445   3.375   1.137  10.633 -0.4080  0.3682  0.2920
  149SAPE    HB16446   3.382   0.953  10.633  0.3361 -0.0412  3.2905
  149SAPE    C216447   3.274   1.032  10.477  0.2407 -0.3847 -0.1052
  149SAPE    HS16448   3.238   0.927  10.472  1.6971 -0.9991  1.4115
  149SAPE   O2116449   3.393   1.063  10.399  0.5069  0.0379 -0.0047
  149SAPE   C2116450   3.395   0.996  10.289 -0.1660  0.4310 -0.4278
  149SAPE   O2216451   3.309   0.917  10.249  0.4579 -0.4589 -0.6307
  149SAPE   C2216452   3.521   1.047  10.209  0.1276  0.6016  0.7823
  149SAPE   H2R16453   3.529   1.158  10.218  0.2537  0.5307  1.6371
  149SAPE   H2S16454   3.608   0.989  10.246  0.7276 -0.1272 -1.6110
  149SAPE    C316455   3.157   1.132  10.443  0.0298  0.6879  0.5162
  149SAPE    HX16456   3.207   1.231  10.441  0.4955  0.4660 -1.7822
  149SAPE    HY16457   3.079   1.129  10.522  1.6706 -1.9827  2.1649
  149SAPE   O3116458   3.113   1.103  10.310  0.5991 -0.0675  0.4846
  149SAPE   C3116459   3.017   1.025  10.294 -0.1690 -0.3266 -0.3352
  149SAPE   O3216460   2.947   0.977  10.384  0.0199  0.1833 -0.1852
  149SAPE   C3216461   2.997   0.996  10.149 -0.3004 -0.0677  0.2225
  149SAPE   H2X16462   3.085   0.973  10.087  0.2754 -0.4029  1.1432
  149SAPE   H2Y16463   2.955   1.093  10.114  1.3705  0.8743  0.7319
  149SAPE   C2316464   3.517   0.994  10.062 -0.0325  0.0591  0.7772
  149SAPE   H3R16465   3.411   1.012  10.031  0.4715 -0.1585 -1.1832
  149SAPE   H3S16466   3.512   0.883  10.060  0.6107  0.0207  1.1969
  149SAPE   C2416467   3.618   1.058   9.964 -0.5200  0.3288 -0.6170
  149SAPE   H4R16468   3.621   1.169   9.962  1.4304  0.3157 -2.7915
  149SAPE   H4S16469   3.601   1.025   9.859  0.2414 -0.4757 -0.5062
  149SAPE   C2516470   3.749   1.008  10.007 -0.0423  0.0846 -0.8773
  149SAPE   H5R16471   3.773   1.040  10.109 -2.2593 -2.2371  0.4751
  149SAPE   C2616472   3.837   0.914   9.959 -0.1961 -0.0060  0.5218
  149SAPE   H6R16473   3.937   0.918  10.004 -0.3882  1.3331  0.8927
  149SAPE   C2716474   3.812   0.831   9.838 -0.3506  0.1488 -0.4627
  149SAPE   H7R16475   3.830   0.902   9.754 -1.5724  1.7466  0.5835
  149SAPE   H7S16476   3.705   0.800   9.837 -0.4287  0.4177 -0.1938
  149SAPE   C2816477   3.891   0.697   9.833  0.2027  0.3927 -0.3601
  149SAPE   H8R16478   3.902   0.655   9.935  1.7307 -0.4932 -0.8609
  149SAPE   C2916479   3.951   0.631   9.742  0.1678 -0.3230  1.3209
  149SAPE   H9R16480   3.998   0.534   9.761 -1.0800 -0.8324  1.8639
  149SAPE  C21016481   3.975   0.688   9.602 -0.1894  0.0207 -0.4260
  149SAPE  H10R16482   4.071   0.639   9.572 -0.1709  0.6742 -1.4793
  149SAPE  H10S16483   3.993   0.797   9.599 -1.7893  0.4127  2.0247
  149SAPE  C21116484   3.874   0.647   9.495 -0.3335  0.3488  0.8383
  149SAPE  H11R16485   3.777   0.611   9.532 -0.8974  0.4605 -0.4797
  149SAPE  C21216486   3.898   0.626   9.361  0.0767  0.6147 -0.3268
  149SAPE  H12R16487   3.808   0.606   9.301 -0.5023  1.6110  0.1790
  149SAPE  C21316488   4.025   0.657   9.286 -0.5770 -0.0332 -0.4786
  149SAPE  H13R16489   4.087   0.736   9.335 -2.8113  2.2556 -1.1207
  149SAPE  H13S16490   3.993   0.711   9.194 -0.6637  0.8897  0.0788
  149SAPE  C21416491   4.115   0.536   9.265  0.8159 -0.4421  0.0544
  149SAPE  H14R16492   4.102   0.464   9.347  0.7436 -0.4260  0.0581
  149SAPE  C21516493   4.195   0.497   9.168 -0.2213  0.0704 -0.2738
  149SAPE  H15R16494   4.237   0.396   9.173  1.8995  0.9127 -0.0376
  149SAPE  C21616495   4.222   0.574   9.045 -0.0588 -0.3321 -0.4393
  149SAPE  H16R16496   4.179   0.677   9.050 -3.6017 -1.6897  3.7095
  149SAPE  H16S16497   4.174   0.512   8.967  0.0117  0.8935 -1.4917
  149SAPE  C21716498   4.369   0.575   9.018  0.6298 -0.0003 -0.2239
  149SAPE  H17R16499   4.385   0.472   8.979 -0.8358  0.6565 -2.8099
  149SAPE  H17S16500   4.423   0.593   9.113  1.1003  1.2666 -0.7128
  149SAPE  C21816501   4.421   0.673   8.917 -0.2372 -0.3676 -0.5839
  149SAPE  H18R16502   4.530   0.677   8.933  0.1475 -1.8251 -2.4586
  149SAPE  H18S16503   4.374   0.773   8.932 -0.2677 -0.6104  1.0642
  149SAPE  C21916504   4.385   0.628   8.775 -0.3979  0.3409  0.2092
  149SAPE  H19R16505   4.281   0.662   8.756 -0.6802 -0.7460 -0.2765
  149SAPE  H19S16506   4.378   0.518   8.765  1.1547  0.4202 -2.9581
  149SAPE  C22016507   4.475   0.702   8.672 -0.0272  0.3082 -0.8118
  149SAPE  H20R16508   4.582   0.710   8.702 -0.9031 -1.1099  3.3652
  149SAPE  H20S16509   4.431   0.803   8.656 -0.2318 -0.0564 -2.7566
  149SAPE  H20T16510   4.458   0.653   8.574 -1.3206  0.6326 -0.7668
  149SAPE   C3316511   2.897   0.877  10.135  0.6651 -0.7119  0.1360
  149SAPE   H3X16512   2.798   0.909  10.176  1.2625  0.0369  1.0366
  149SAPE   H3Y16513   2.926   0.787  10.194 -0.9101 -1.9703 -0.9388
  149SAPE   C3416514   2.886   0.827   9.991 -0.4901  0.3690 -0.2970
  149SAPE   H4X16515   2.992   0.800   9.972 -0.4659  0.2119  0.0635
  149SAPE   H4Y16516   2.876   0.904   9.910 -1.7645 -0.5573 -1.0616
  149SAPE   C3516517   2.796   0.704   9.966  0.4535 -0.4692 -0.0786
  149SAPE   H5X16518   2.687   0.726   9.969  0.6475  0.4274  2.1589
  149SAPE   H5Y16519   2.808   0.651  10.063 -1.1412  1.5315  1.2926
  149SAPE   C3616520   2.839   0.618   9.844  0.6190  0.2557  0.6076
  149SAPE   H6X16521   2.786   0.520   9.851 -2.4689  1.6126 -1.6056
  149SAPE   H6Y16522   2.949   0.601   9.848  0.6916  0.7728  0.8643
  149SAPE   C3716523   2.796   0.680   9.709  0.2433  0.2646 -0.1410
  149SAPE   H7X16524   2.859   0.769   9.689  0.9035  0.2219  1.6126
  149SAPE   H7Y16525   2.689   0.710   9.706  0.3250  0.5048 -2.0472
  149SAPE   C3816526   2.807   0.579   9.596 -0.2103 -0.8919 -0.6208
  149SAPE   H8X16527   2.775   0.630   9.502 -0.0244 -1.6576 -1.1142
  149SAPE   H8Y16528   2.735   0.494   9.603 -1.9179  0.4616 -1.1242
  149SAPE   C3916529   2.948   0.531   9.575 -0.2878  0.2550  0.0616
  149SAPE   H9X16530   3.006   0.531   9.669 -1.3708 -2.1236  0.7978
  149SAPE   H9Y16531   2.998   0.605   9.509 -2.3158  1.0033 -0.7344
  149SAPE  C31016532   2.960   0.401   9.496 -0.4369  0.1277  0.6920
  149SAPE  H10X16533   2.887   0.319   9.514  0.8254 -1.6931 -1.9097
  149SAPE  H10Y16534   3.056   0.357   9.530 -0.4569 -1.0716 -0.7255
  149SAPE  C31116535   2.962   0.425   9.349  0.3092  0.8748  0.4938
  149SAPE  H11X16536   3.033   0.502   9.314 -1.3351  1.3766 -2.0271
  149SAPE  H11Y16537   2.861   0.439   9.305  1.3350  1.0738 -1.9794
  149SAPE  C31216538   2.990   0.291   9.265  0.1760 -0.0055 -0.1594
  149SAPE  H12X16539   2.945   0.208   9.323 -0.7142  0.3570 -0.3127
  149SAPE  H12Y16540   3.099   0.282   9.287  0.3473 -0.3567 -1.1070
  149SAPE  C31316541   2.955   0.307   9.118 -0.1148  0.1327 -0.4259
  149SAPE  H13X16542   2.846   0.326   9.109 -0.5416  0.1491  3.2675
  149SAPE  H13Y16543   2.975   0.209   9.068  1.7373  0.5334 -0.5596
  149SAPE  C31416544   3.035   0.410   9.034 -0.2713  0.2758 -0.1661
  149SAPE  H14X16545   3.144   0.397   9.050 -0.4954 -1.8258 -0.0131
  149SAPE  H14Y16546   3.007   0.513   9.064 -0.3949 -0.3074  1.8389
  149SAPE  C31516547   3.006   0.399   8.885 -0.5797  0.1094 -0.1585
  149SAPE  H15X16548   2.903   0.437   8.873 -1.4928 -1.7073  1.3672
  149SAPE  H15Y16549   3.014   0.290   8.864 -0.8978 -0.1737  1.1070
  149SAPE  C31616550   3.082   0.491   8.792  0.1359 -0.3083  0.1395
  149SAPE  H16X16551   3.086   0.594   8.833  0.7036 -0.3382  0.1628
  149SAPE  H16Y16552   3.025   0.501   8.697  0.2690  2.1782  0.2780
  149SAPE  C31716553   3.230   0.438   8.787  0.8180 -0.0620  0.8016
  149SAPE  H17X16554   3.236   0.339   8.736 -2.9941  0.5164 -1.1682
  149SAPE  H17Y16555   3.263   0.414   8.890 -1.5685 -1.0331  1.4143
  149SAPE  C31816556   3.324   0.531   8.715  0.4588 -0.3340 -0.4064
  149SAPE  H18X16557   3.423   0.481   8.705  1.1161  0.6278  1.0655
  149SAPE  H18Y16558   3.341   0.632   8.757 -1.8426  1.6218 -3.6585
  149SAPE  H18Z16559   3.289   0.539   8.609  0.0510  2.3560 -0.1331
  150SAPE     N16560   2.520   1.826  10.810  0.0684 -1.0133  0.8464
  150SAPE   HN116561   2.495   1.779  10.721  3.0963  0.5066 -1.0043
  150SAPE   HN216562   2.522   1.756  10.886 -0.5762 -1.2972  0.6079
  150SAPE   HN316563   2.457   1.901  10.845  0.2743 -0.6052  0.3579
  150SAPE   C1216564   2.654   1.881  10.779  0.3828 -0.5506 -0.1910
  150SAPE  H12A16565   2.666   1.904  10.671 -2.3472 -1.5712 -0.8070
  150SAPE  H12B16566   2.724   1.800  10.811  0.5716 -0.0944  0.5680
  150SAPE   C1116567   2.706   1.994  10.881 -0.0293 -0.0614  0.7557
  150SAPE  H11A16568   2.809   2.026  10.857 -0.8410  2.3267  0.1818
  150SAPE  H11B16569   2.712   1.939  10.977  1.5371  1.0285  1.3186
  150SAPE     P16570   2.655   2.256  10.837 -0.4352  0.2228  0.4010
  150SAPE   O1316571   2.563   2.341  10.917  0.0784 -0.2643 -0.8233
  150SAPE   O1416572   2.799   2.290  10.835  0.8396  0.2903 -0.3923
  150SAPE   O1216573   2.620   2.106  10.883  0.2163  0.0807 -0.3920
  150SAPE   O1116574   2.596   2.259  10.688 -0.0008 -0.4089 -0.1319
  150SAPE    C116575   2.461   2.214  10.668 -0.0064  0.0706  0.6156
  150SAPE    HA16576   2.455   2.103  10.659 -2.3009  0.1788  0.1580
  150SAPE    HB16577   2.381   2.236  10.741  0.0519 -2.1560  1.4391
  150SAPE    C216578   2.419   2.253  10.523 -0.1455 -0.5328 -0.2240
  150SAPE    HS16579   2.328   2.192  10.507 -1.7370  2.0242 -1.4974
  150SAPE   O2116580   2.525   2.237  10.421 -0.3565  0.1853 -0.2814
  150SAPE   C2116581   2.554   2.122  10.393 -0.1639  0.6915  0.1019
  150SAPE   O2216582   2.490   2.023  10.433 -0.1748 -0.2789 -0.2937
  150SAPE   C2216583   2.675   2.121  10.294 -0.2647  0.1222 -0.1743
  150SAPE   H2R16584   2.693   2.220  10.246  0.1712 -0.1401 -0.5471
  150SAPE   H2S16585   2.758   2.100  10.365 -0.3885  2.2077  0.6620
  150SAPE    C316586   2.369   2.400  10.520  0.4793 -0.7971 -0.0365
  150SAPE    HX16587   2.465   2.456  10.529 -0.2386  0.5304 -0.4250
  150SAPE    HY16588   2.305   2.424  10.608  0.5371 -0.6964 -0.0211
  150SAPE   O3116589   2.293   2.427  10.401 -0.3185 -0.3297  0.2093
  150SAPE   C3116590   2.373   2.474  10.298 -0.0737  0.0289 -0.1614
  150SAPE   O3216591   2.494   2.478  10.300 -0.1826 -0.7071 -0.1493
  150SAPE   C3216592   2.286   2.514  10.176 -0.3049 -0.3244  0.3970
  150SAPE   H2X16593   2.290   2.624  10.160 -0.1476 -0.4879 -0.7443
  150SAPE   H2Y16594   2.180   2.486  10.193 -0.3973 -0.0058  0.3543
  150SAPE   C2316595   2.675   2.014  10.182  0.0193  0.9916  0.6257
  150SAPE   H3R16596   2.677   1.914  10.230  0.5669  1.1148  0.8600
  150SAPE   H3S16597   2.768   2.029  10.123  0.8542 -1.9346  1.0532
  150SAPE   C2416598   2.554   2.012  10.090  0.3250 -0.2626  0.5676
  150SAPE   H4R16599   2.461   2.009  10.150 -0.8577  2.1313 -0.9719
  150SAPE   H4S16600   2.561   1.925  10.021 -0.1141  0.1781 -0.0483
  150SAPE   C2516601   2.554   2.153  10.014 -0.0031  0.7107 -0.5748
  150SAPE   H5R16602   2.532   2.235  10.084 -3.8044 -0.2722 -0.3878
  150SAPE   C2616603   2.582   2.178   9.887  0.4106  0.1030 -0.7435
  150SAPE   H6R16604   2.596   2.285   9.863  1.0960  0.4234  0.9280
  150SAPE   C2716605   2.610   2.075   9.774  0.6191  0.0572  0.5002
  150SAPE   H7R16606   2.659   1.985   9.815 -0.1277 -1.8363 -2.4825
  150SAPE   H7S16607   2.692   2.101   9.704 -0.5134 -0.2305 -0.9867
  150SAPE   C2816608   2.494   2.027   9.694  0.4435 -0.2733  0.0401
  150SAPE   H8R16609   2.426   1.964   9.752  2.2361 -1.8707  0.5103
  150SAPE   C2916610   2.475   2.044   9.558 -0.8928  0.4166 -0.1497
  150SAPE   H9R16611   2.381   2.003   9.517 -0.7556  0.3138 -0.3661
  150SAPE  C21016612   2.554   2.122   9.459 -0.0165  0.2039 -0.0216
  150SAPE  H10R16613   2.606   2.207   9.506  0.1957 -0.3904  0.8303
  150SAPE  H10S16614   2.482   2.159   9.382 -1.3674  0.0611  1.1206
  150SAPE  C21116615   2.651   2.029   9.397 -0.5573 -0.0122  0.2669
  150SAPE  H11R16616   2.709   1.970   9.469  1.4385 -0.2399 -1.4422
  150SAPE  C21216617   2.668   1.988   9.271 -0.5386  0.8955  0.4229
  150SAPE  H12R16618   2.762   1.934   9.255 -0.7572  0.2777  1.1443
  150SAPE  C21316619   2.594   2.043   9.153 -0.2544  0.2714  0.0097
  150SAPE  H13R16620   2.657   2.057   9.063  0.0104 -1.5379 -0.1196
  150SAPE  H13S16621   2.565   2.148   9.177  1.1994  0.5509  0.6857
  150SAPE  C21416622   2.479   1.960   9.099 -0.6363 -0.4318 -0.2864
  150SAPE  H14R16623   2.460   1.872   9.162 -0.4954 -0.5912 -0.4653
  150SAPE  C21516624   2.416   1.980   8.983  0.1860  0.6234 -0.3294
  150SAPE  H15R16625   2.321   1.925   8.974  0.0125  1.0735 -1.4392
  150SAPE  C21616626   2.432   2.097   8.891 -0.1425  0.2603 -0.0620
  150SAPE  H16R16627   2.518   2.167   8.906 -0.6865  1.3876 -1.8625
  150SAPE  H16S16628   2.340   2.157   8.907  0.9071  2.4490 -1.5984
  150SAPE  C21716629   2.432   2.067   8.737  0.3170 -0.2913 -0.2886
  150SAPE  H17R16630   2.325   2.057   8.711 -0.2873 -1.1914  2.2857
  150SAPE  H17S16631   2.486   1.973   8.714  0.0299 -0.3126 -0.8725
  150SAPE  C21816632   2.497   2.186   8.658  0.3107 -0.1542  0.1506
  150SAPE  H18R16633   2.605   2.192   8.683  0.1437  0.9796  0.6379
  150SAPE  H18S16634   2.445   2.281   8.679 -2.1666 -1.0594 -1.3653
  150SAPE  C21916635   2.497   2.172   8.505 -0.2877  0.4550  0.8401
  150SAPE  H19R16636   2.393   2.159   8.469 -0.3640 -0.8441  1.4836
  150SAPE  H19S16637   2.560   2.084   8.479 -1.0429  0.3143 -0.6306
  150SAPE  C22016638   2.558   2.297   8.440  0.0559  0.2608 -0.4356
  150SAPE  H20R16639   2.650   2.323   8.497  0.4491  1.4090 -1.5561
  150SAPE  H20S16640   2.489   2.382   8.455  0.9054  1.4691 -2.8897
  150SAPE  H20T16641   2.589   2.278   8.335  1.9049  0.4919  0.0240
  150SAPE   C3316642   2.335   2.453  10.042 -0.0265  0.0737 -0.2701
  150SAPE   H3X16643   2.345   2.342  10.035  0.8691  0.0684  0.8183
  150SAPE   H3Y16644   2.434   2.501  10.028 -0.7504  1.7398  0.1873
  150SAPE   C3416645   2.248   2.495   9.919 -0.2932 -0.3696 -0.8819
  150SAPE   H4X16646   2.244   2.605   9.924 -1.6939 -0.4620  0.5682
  150SAPE   H4Y16647   2.145   2.455   9.925 -0.7860  0.9021 -0.6308
  150SAPE   C3516648   2.329   2.471   9.794 -0.3829  0.2281  0.1015
  150SAPE   H5X16649   2.355   2.364   9.793 -1.2507 -0.0344 -2.6818
  150SAPE   H5Y16650   2.428   2.521   9.792 -0.3173  0.1088 -2.2842
  150SAPE   C3616651   2.242   2.479   9.670 -0.2944 -0.0777  0.1207
  150SAPE   H6X16652   2.198   2.580   9.658  0.7767  0.4922  0.8215
  150SAPE   H6Y16653   2.159   2.408   9.690 -0.2773 -0.8520 -2.2875
  150SAPE   C3716654   2.299   2.432   9.539 -1.0607  0.0834  0.3711
  150SAPE   H7X16655   2.212   2.403   9.475 -0.9266 -1.3233  0.7961
  150SAPE   H7Y16656   2.358   2.338   9.546  2.3609  2.0821  0.1190
  150SAPE   C3816657   2.401   2.524   9.464  0.1731  0.0387  0.2867
  150SAPE   H8X16658   2.497   2.547   9.516  2.2868 -3.3733 -1.6967
  150SAPE   H8Y16659   2.342   2.617   9.456 -1.4297 -0.5116  3.8962
  150SAPE   C3916660   2.454   2.468   9.333  0.6711  0.6605 -0.2713
  150SAPE   H9X16661   2.508   2.374   9.355 -0.0372  0.3159  0.0345
  150SAPE   H9Y16662   2.528   2.545   9.302  1.5292  0.0298  0.1711
  150SAPE  C31016663   2.344   2.438   9.234 -0.0697  0.2562 -0.1727
  150SAPE  H10X16664   2.274   2.524   9.226  0.6808  0.8259 -0.7311
  150SAPE  H10Y16665   2.285   2.351   9.269  0.5673 -0.2360 -0.3080
  150SAPE  C31116666   2.397   2.411   9.092 -0.0189  0.0049  0.1890
  150SAPE  H11X16667   2.313   2.378   9.027  0.4155 -1.7372  0.4480
  150SAPE  H11Y16668   2.466   2.324   9.104  0.2423 -0.3091 -2.8213
  150SAPE  C31216669   2.482   2.522   9.021  0.4934 -0.4227  0.1330
  150SAPE  H12X16670   2.587   2.527   9.058  0.6140  3.3569 -0.3564
  150SAPE  H12Y16671   2.439   2.622   9.039  1.0063 -0.2556  0.4677
  150SAPE  C31316672   2.490   2.525   8.868 -0.6133 -0.0344 -0.6839
  150SAPE  H13X16673   2.406   2.575   8.816  1.4564  2.0673 -2.1906
  150SAPE  H13Y16674   2.489   2.418   8.838 -0.2813  0.0913 -1.1404
  150SAPE  C31416675   2.625   2.593   8.822 -0.1985  0.2410  0.8122
  150SAPE  H14X16676   2.623   2.578   8.712  0.2099  0.7432  0.7360
  150SAPE  H14Y16677   2.713   2.546   8.871  0.8871  1.9160  0.5719
  150SAPE  C31516678   2.619   2.753   8.839  0.0466  0.3767  1.1112
  150SAPE  H15X16679   2.618   2.776   8.948  0.0487  0.1000  1.1687
  150SAPE  H15Y16680   2.519   2.785   8.804 -0.1890  0.6875  2.0514
  150SAPE  C31616681   2.728   2.816   8.755 -0.6785  0.6588 -0.0774
  150SAPE  H16X16682   2.731   2.770   8.653  1.1561  1.7478 -0.5505
  150SAPE  H16Y16683   2.823   2.794   8.808 -1.6700  0.6578  1.7799
  150SAPE  C31716684   2.719   2.971   8.752  0.4789  0.0643  0.5312
  150SAPE  H17X16685   2.630   3.004   8.694  0.6690 -0.5855 -0.1572
  150SAPE  H17Y16686   2.797   3.013   8.684  0.4125  0.1061  0.4803
  150SAPE  C31816687   2.735   3.032   8.891  0.2222  0.6789 -0.0500
  150SAPE  H18X16688   2.731   3.143   8.897 -0.8116  0.7114 -0.9777
  150SAPE  H18Y16689   2.838   3.009   8.924 -0.3122  0.3576  1.4793
  150SAPE  H18Z16690   2.665   2.988   8.965  0.1066 -1.5860 -1.4422
  151SAPE     N16691   1.381   4.783  10.737  0.3821  0.2012 -0.1296
  151SAPE   HN116692   1.322   4.793  10.822  0.3758  0.1979 -0.1342
  151SAPE   HN216693   1.475   4.823  10.759  1.0501 -1.5511  0.3318
  151SAPE   HN316694   1.343   4.836  10.656 -1.8651  2.0803  1.9979
  151SAPE   C1216695   1.382   4.632  10.700 -0.4707  0.3079  0.1424
  151SAPE  H12A16696   1.411   4.622  10.593 -0.5010 -0.7316  0.2186
  151SAPE  H12B16697   1.277   4.595  10.700 -0.5002  0.3884 -0.2021
  151SAPE   C1116698   1.464   4.528  10.793  0.1771  0.4573  0.3055
  151SAPE  H11A16699   1.453   4.424  10.757 -1.6400  0.5972  0.3577
  151SAPE  H11B16700   1.414   4.514  10.891  2.1990 -2.1032  1.0756
  151SAPE     P16701   1.709   4.546  10.689 -0.0888 -0.1850  0.3519
  151SAPE   O1316702   1.706   4.674  10.617 -0.7224  0.0738  0.3498
  151SAPE   O1416703   1.836   4.506  10.756  0.1745  0.0370 -0.3262
  151SAPE   O1216704   1.604   4.571  10.800  0.0000  0.2460 -0.1855
  151SAPE   O1116705   1.643   4.421  10.621  0.7610  0.5319 -0.3688
  151SAPE    C116706   1.721   4.323  10.557 -0.7021 -0.3546 -0.1867
  151SAPE    HA16707   1.831   4.338  10.565 -0.4322  0.0240 -3.3572
  151SAPE    HB16708   1.696   4.230  10.612  0.8637 -0.5626  0.2373
  151SAPE    C216709   1.681   4.319  10.407 -0.6288  0.1597 -0.0538
  151SAPE    HS16710   1.732   4.230  10.364 -1.6323 -0.6773  0.4350
  151SAPE   O2116711   1.706   4.438  10.339  0.0259 -0.6162 -0.3873
  151SAPE   C2116712   1.833   4.478  10.329 -0.3683 -0.1603 -0.0026
  151SAPE   O2216713   1.933   4.418  10.370  0.3458  0.2867  0.2132
  151SAPE   C2216714   1.831   4.608  10.246  0.3518  0.3611 -0.0201
  151SAPE   H2R16715   1.755   4.596  10.166  1.3701 -0.4286 -0.9035
  151SAPE   H2S16716   1.800   4.683  10.322 -3.4045  1.9042 -2.7449
  151SAPE    C316717   1.529   4.301  10.397 -0.5280  0.2076 -0.3150
  151SAPE    HX16718   1.486   4.400  10.421  0.4123  1.2804 -2.7946
  151SAPE    HY16719   1.484   4.227  10.468 -1.2444  3.4777  2.9507
  151SAPE   O3116720   1.505   4.272  10.253 -0.3824  0.5024 -0.8746
  151SAPE   C3116721   1.386   4.235  10.228  0.1531  0.2924 -0.1008
  151SAPE   O3216722   1.292   4.254  10.304  0.5342  0.2248  0.0914
  151SAPE   C3216723   1.369   4.191  10.078  0.2902 -0.4223  0.0715
  151SAPE   H2X16724   1.440   4.106  10.069  0.5657 -0.2141  0.2586
  151SAPE   H2Y16725   1.412   4.277  10.022  1.4487 -0.3163  1.0700
  151SAPE   C2316726   1.962   4.640  10.171  0.0870  0.5760 -0.0521
  151SAPE   H3R16727   2.050   4.642  10.239 -0.5726 -1.4621  0.9229
  151SAPE   H3S16728   1.956   4.741  10.124 -0.7909  1.3967  1.7467
  151SAPE   C2416729   1.998   4.534  10.065  0.0886 -0.6478 -0.4558
  151SAPE   H4R16730   1.919   4.556   9.990 -0.3070  1.1045  0.4033
  151SAPE   H4S16731   1.975   4.432  10.101 -2.5196  0.0113  0.0124
  151SAPE   C2516732   2.124   4.566   9.983  0.7882  0.4524 -0.4976
  151SAPE   H5R16733   2.209   4.573  10.053  0.1085  3.8627  0.1397
  151SAPE   C2616734   2.144   4.585   9.852  0.0941 -0.8818 -0.1996
  151SAPE   H6R16735   2.248   4.605   9.821  0.3137  1.0411  1.5778
  151SAPE   C2716736   2.039   4.560   9.748 -0.1444  0.4698  0.3770
  151SAPE   H7R16737   1.943   4.545   9.801 -0.5886 -0.7796 -0.7324
  151SAPE   H7S16738   2.049   4.455   9.714  0.6212  0.0438  1.8454
  151SAPE   C2816739   2.033   4.663   9.637  0.4080 -0.4269 -0.2227
  151SAPE   H8R16740   1.975   4.744   9.682 -3.2352 -3.1682  0.5146
  151SAPE   C2916741   2.096   4.664   9.516 -0.0865  0.2042  0.4696
  151SAPE   H9R16742   2.087   4.741   9.439 -0.0531 -0.1429  0.1124
  151SAPE  C21016743   2.189   4.557   9.471 -0.1023  0.3046  0.6488
  151SAPE  H10R16744   2.148   4.485   9.397  1.6654 -1.0589  0.9291
  151SAPE  H10S16745   2.224   4.501   9.560  3.0090  0.4704 -0.3456
  151SAPE  C21116746   2.309   4.628   9.414  0.1771 -0.4560 -0.1748
  151SAPE  H11R16747   2.325   4.730   9.454 -1.2551 -0.0214 -0.6458
  151SAPE  C21216748   2.394   4.584   9.316  0.3230  0.0540 -0.5272
  151SAPE  H12R16749   2.475   4.651   9.282 -1.1516  1.6427 -1.0633
  151SAPE  C21316750   2.379   4.455   9.246  0.5138  0.1763 -0.6389
  151SAPE  H13R16751   2.313   4.468   9.157 -0.8917  0.3314  0.3814
  151SAPE  H13S16752   2.330   4.378   9.310  0.5748 -1.3116 -2.2773
  151SAPE  C21416753   2.509   4.398   9.204  0.3745 -0.3420 -0.2487
  151SAPE  H14R16754   2.568   4.358   9.288 -2.2911 -1.7370  1.0879
  151SAPE  C21516755   2.562   4.393   9.080  0.5220 -0.0521  0.1646
  151SAPE  H15R16756   2.661   4.346   9.066  0.2624 -0.1104 -1.6916
  151SAPE  C21616757   2.499   4.429   8.952  0.0582  0.5929 -0.6203
  151SAPE  H16R16758   2.563   4.487   8.882  1.1803 -0.0870 -0.1813
  151SAPE  H16S16759   2.409   4.489   8.975 -0.2285 -0.8485  2.4947
  151SAPE  C21716760   2.450   4.316   8.874  0.2405 -0.1361  0.7771
  151SAPE  H17R16761   2.372   4.271   8.939 -1.7362  3.7020  1.3494
  151SAPE  H17S16762   2.535   4.248   8.850 -1.0768 -1.1911 -1.2274
  151SAPE  C21816763   2.380   4.365   8.747  0.1811  0.5736  0.1934
  151SAPE  H18R16764   2.296   4.429   8.781  0.8512  0.4517  2.2080
  151SAPE  H18S16765   2.345   4.278   8.688  1.7676 -0.0641  0.1313
  151SAPE  C21916766   2.473   4.440   8.637  0.1019  0.1121  0.3596
  151SAPE  H19R16767   2.557   4.376   8.604  2.5155  1.7832  2.8272
  151SAPE  H19S16768   2.513   4.533   8.682 -1.3229  0.9888 -0.0921
  151SAPE  C22016769   2.392   4.479   8.511 -0.0729 -0.3961 -0.1980
  151SAPE  H20R16770   2.354   4.396   8.447  2.0649 -0.1684 -1.8731
  151SAPE  H20S16771   2.467   4.525   8.443  0.1951 -1.2089 -0.4616
  151SAPE  H20T16772   2.313   4.557   8.523  0.6107  0.1542  0.8386
  151SAPE   C3316773   1.227   4.167  10.025 -0.4316 -0.7476 -0.1191
  151SAPE   H3X16774   1.171   4.263  10.024 -0.8066 -0.8557  2.5138
  151SAPE   H3Y16775   1.165   4.102  10.091 -2.6374  1.5655  0.2333
  151SAPE   C3416776   1.215   4.110   9.887  0.2682  0.0239  0.2102
  151SAPE   H4X16777   1.109   4.101   9.855  0.8228  1.7420 -2.4455
  151SAPE   H4Y16778   1.256   4.007   9.891 -0.1017 -0.0893  1.8529
  151SAPE   C3516779   1.285   4.195   9.781  0.8512 -0.1552 -0.1339
  151SAPE   H5X16780   1.392   4.212   9.803  0.5880  1.9952 -0.2995
  151SAPE   H5Y16781   1.243   4.296   9.760 -1.0674 -0.8953 -0.1004
  151SAPE   C3616782   1.268   4.121   9.645 -0.7249  0.1512  0.0840
  151SAPE   H6X16783   1.160   4.112   9.623 -0.5468  1.1690 -1.3182
  151SAPE   H6Y16784   1.314   4.020   9.654 -2.4526 -0.7279 -0.5055
  151SAPE   C3716785   1.324   4.185   9.514 -1.0017  0.2141  0.4079
  151SAPE   H7X16786   1.433   4.164   9.507 -1.4524 -1.7734 -1.9863
  151SAPE   H7Y16787   1.305   4.295   9.513 -0.4055  0.3263 -0.7834
  151SAPE   C3816788   1.262   4.125   9.387 -0.6958  0.4338  0.1131
  151SAPE   H8X16789   1.151   4.134   9.386 -0.9656 -1.7904  1.5541
  151SAPE   H8Y16790   1.260   4.017   9.411 -2.3094  0.5229  0.5363
  151SAPE   C3916791   1.332   4.170   9.251 -0.0603  0.4793  0.4039
  151SAPE   H9X16792   1.290   4.117   9.162 -2.0187  2.0037  0.3474
  151SAPE   H9Y16793   1.439   4.141   9.249  0.0564  0.6627  2.2195
  151SAPE  C31016794   1.326   4.317   9.221 -0.0860 -0.4045 -0.7009
  151SAPE  H10X16795   1.413   4.328   9.154 -1.4596 -2.4525 -2.9906
  151SAPE  H10Y16796   1.348   4.378   9.311 -1.5589  1.8459 -1.7831
  151SAPE  C31116797   1.192   4.348   9.140 -0.0866  0.7285  0.0583
  151SAPE  H11X16798   1.113   4.343   9.219  0.0735  2.4477  0.3709
  151SAPE  H11Y16799   1.178   4.275   9.058  0.2479  0.6420  0.0754
  151SAPE  C31216800   1.178   4.479   9.070 -0.7258 -0.1258 -0.2784
  151SAPE  H12X16801   1.273   4.495   9.014  0.3424 -0.1315  1.4836
  151SAPE  H12Y16802   1.183   4.560   9.146 -0.7006  1.2242 -1.6578
  151SAPE  C31316803   1.038   4.484   9.000 -0.4906  0.2456 -0.3350
  151SAPE  H13X16804   0.958   4.497   9.076  0.6784  1.0648  0.7977
  151SAPE  H13Y16805   1.027   4.383   8.956 -2.4263  0.1380  0.2848
  151SAPE  C31416806   1.030   4.599   8.901  0.6910 -0.1504  0.3144
  151SAPE  H14X16807   1.111   4.586   8.827  1.3959 -3.3920  1.4425
  151SAPE  H14Y16808   1.047   4.693   8.958 -1.2291 -0.3238  1.2406
  151SAPE  C31516809   0.901   4.612   8.823 -0.1407 -0.2569 -0.8643
  151SAPE  H15X16810   0.820   4.638   8.895 -0.3842 -2.7452 -0.1207
  151SAPE  H15Y16811   0.876   4.511   8.784  0.8735 -0.9671  0.2483
  151SAPE  C31616812   0.904   4.699   8.697  0.2294 -0.2693 -0.1897
  151SAPE  H16X16813   0.977   4.667   8.620 -1.6902 -1.0069 -1.8029
  151SAPE  H16Y16814   0.928   4.803   8.729 -1.4164  0.3295 -0.7841
  151SAPE  C31716815   0.763   4.694   8.633  0.0120 -0.1742  0.3947
  151SAPE  H17X16816   0.699   4.753   8.703 -1.0524  0.3753 -1.0061
  151SAPE  H17Y16817   0.726   4.590   8.623  1.0841 -0.6167  0.8433
  151SAPE  C31816818   0.750   4.762   8.497  0.1136  0.2052  0.7085
  151SAPE  H18X16819   0.643   4.775   8.472  0.9940  1.3015 -3.1195
  151SAPE  H18Y16820   0.797   4.700   8.418 -0.1473  2.1440 -1.0604
  151SAPE  H18Z16821   0.805   4.858   8.491 -1.1151  0.8598 -0.3291
  152SAPE     N16822   0.095   2.601  10.904  0.1593  0.1282 -0.4312
  152SAPE   HN116823   0.031   2.549  10.841 -1.5800 -0.2264  1.4910
  152SAPE   HN216824   0.185   2.600  10.851 -0.2390  2.0625 -1.2221
  152SAPE   HN316825   0.103   2.539  10.987 -1.7577  0.6115  0.1689
  152SAPE   C1216826   0.042   2.740  10.934  0.6912  0.4168 -0.3047
  152SAPE  H12A16827   0.129   2.802  10.964  0.6311  0.3152  0.0924
  152SAPE  H12B16828  -0.021   2.733  11.026 -2.1807  0.6123 -2.1045
  152SAPE   C1116829  -0.042   2.793  10.810 -0.2897  0.6015 -0.3440
  152SAPE  H11A16830   0.022   2.766  10.723  0.8101 -0.9711  0.8890
  152SAPE  H11B16831  -0.045   2.904  10.807  0.5343  0.6626 -4.2173
  152SAPE     P16832  -0.267   2.741  10.679 -0.5303  0.0889 -0.0211
  152SAPE   O1316833  -0.338   2.613  10.656  0.3269  0.7905 -0.2776
  152SAPE   O1416834  -0.356   2.860  10.692  0.7389  0.2207 -0.1196
  152SAPE   O1216835  -0.176   2.726  10.803  0.4424 -0.2411  0.0332
  152SAPE   O1116836  -0.169   2.763  10.557  0.1587  0.5103 -0.3820
  152SAPE    C116837  -0.135   2.657  10.465 -0.6625  0.4992  0.2403
  152SAPE    HA16838  -0.028   2.627  10.475 -0.6673  0.8441  1.5598
  152SAPE    HB16839  -0.202   2.570  10.478  0.1408 -0.0564  0.7482
  152SAPE    C216840  -0.150   2.698  10.322  0.0542 -0.3427  0.1303
  152SAPE    HS16841  -0.171   2.603  10.270  0.1866 -1.0846  1.3974
  152SAPE   O2116842  -0.029   2.752  10.278  1.0618  0.4791 -0.1454
  152SAPE   C2116843   0.056   2.668  10.225 -0.2440  0.2745  0.1574
  152SAPE   O2216844   0.043   2.549  10.233 -0.0689  0.2294  0.2733
  152SAPE   C2216845   0.173   2.744  10.156  0.2121 -0.3571 -0.2943
  152SAPE   H2R16846   0.150   2.853  10.165  0.0474 -0.3061 -1.2547
  152SAPE   H2S16847   0.265   2.731  10.217 -1.3584  3.5522  3.4663
  152SAPE    C316848  -0.261   2.800  10.297 -0.5060  0.1661  0.3536
  152SAPE    HX16849  -0.226   2.898  10.336  0.8787  0.8616 -2.3557
  152SAPE    HY16850  -0.354   2.764  10.344 -0.3831 -1.2797 -0.4671
  152SAPE   O3116851  -0.300   2.816  10.155 -0.0383  0.2008  0.3033
  152SAPE   C3116852  -0.237   2.912  10.091  0.8546  0.0133 -0.4358
  152SAPE   O3216853  -0.139   2.975  10.123  0.0465  0.6901 -0.9071
  152SAPE   C3216854  -0.306   2.940   9.954  0.3735 -0.0012  0.8434
  152SAPE   H2X16855  -0.388   3.008   9.986 -0.2938  0.0069 -0.7852
  152SAPE   H2Y16856  -0.354   2.844   9.922 -1.9060  1.7406 -1.3553
  152SAPE   C2316857   0.192   2.690  10.009 -0.4128 -0.3966 -0.2523
  152SAPE   H3R16858   0.114   2.727   9.938  0.1156  0.0627 -0.6034
  152SAPE   H3S16859   0.178   2.580  10.012  0.6315 -0.5817 -1.3779
  152SAPE   C2416860   0.334   2.732   9.951 -0.4724 -0.3141 -0.9545
  152SAPE   H4R16861   0.330   2.733   9.840  2.7291  0.6632 -1.1683
  152SAPE   H4S16862   0.398   2.646   9.980  1.0771  1.0148 -0.2938
  152SAPE   C2516863   0.391   2.868   9.997 -0.0630  0.3079 -0.0231
  152SAPE   H5R16864   0.394   2.890  10.105 -2.4136 -0.3024  0.1999
  152SAPE   C2616865   0.415   2.977   9.924  0.7109 -0.1159 -0.2443
  152SAPE   H6R16866   0.454   3.067   9.974 -1.5613 -0.4144  2.2948
  152SAPE   C2716867   0.386   2.989   9.777 -0.0644  0.1238 -0.4592
  152SAPE   H7R16868   0.416   2.897   9.722 -2.7546 -0.2054 -1.5396
  152SAPE   H7S16869   0.448   3.075   9.745 -1.7596  0.9516 -1.6338
  152SAPE   C2816870   0.240   3.017   9.746 -0.0732 -0.9601 -0.0734
  152SAPE   H8R16871   0.166   3.040   9.824 -1.9524  0.0172 -2.0449
  152SAPE   C2916872   0.185   3.009   9.626  0.5383  0.7211  0.1676
  152SAPE   H9R16873   0.075   3.013   9.619  0.3065 -0.0914  2.5330
  152SAPE  C21016874   0.264   2.968   9.504 -0.0363 -0.3302  0.4642
  152SAPE  H10R16875   0.358   2.913   9.520  0.1429 -0.7432 -1.7288
  152SAPE  H10S16876   0.285   3.058   9.442 -1.6323 -0.0683  0.2471
  152SAPE  C21116877   0.183   2.879   9.405  0.3440 -0.2177 -0.3375
  152SAPE  H11R16878   0.156   2.783   9.450 -0.4494  0.2952  0.3034
  152SAPE  C21216879   0.162   2.905   9.276  0.3406 -0.4500 -0.1351
  152SAPE  H12R16880   0.117   2.830   9.208 -3.1357  1.9997 -0.7900
  152SAPE  C21316881   0.196   3.030   9.200  0.5365 -0.2489  0.2552
  152SAPE  H13R16882   0.172   3.125   9.252 -1.4153 -0.4943 -0.1391
  152SAPE  H13S16883   0.134   3.028   9.108 -1.0404 -0.5159  1.3060
  152SAPE  C21416884   0.347   3.035   9.162 -0.4616 -0.5314  0.2893
  152SAPE  H14R16885   0.419   3.039   9.246 -2.2748 -0.9996  1.9582
  152SAPE  C21516886   0.390   3.015   9.037  0.0090 -0.6873 -1.0303
  152SAPE  H15R16887   0.497   3.030   9.017  0.4508 -1.3983  0.6804
  152SAPE  C21616888   0.294   2.995   8.926 -0.4633  0.7429  0.5005
  152SAPE  H16R16889   0.208   3.066   8.930 -1.9313 -0.9970  1.6273
  152SAPE  H16S16890   0.241   2.899   8.944 -0.8226  0.4169 -1.9431
  152SAPE  C21716891   0.352   3.001   8.783 -0.0042 -0.5952 -0.3182
  152SAPE  H17R16892   0.423   3.086   8.784  0.5479 -1.0495 -0.2833
  152SAPE  H17S16893   0.279   3.030   8.704  1.1335  1.2976 -0.7098
  152SAPE  C21816894   0.407   2.873   8.732  0.0890 -0.2503  0.9408
  152SAPE  H18R16895   0.320   2.808   8.713  0.2066  0.1430 -1.2210
  152SAPE  H18S16896   0.476   2.817   8.800  0.6774 -4.0976 -2.4277
  152SAPE  C21916897   0.480   2.896   8.600 -0.2792  0.1654  1.0213
  152SAPE  H19R16898   0.549   2.982   8.616  0.3182 -0.3230  1.0836
  152SAPE  H19S16899   0.398   2.920   8.529  0.5906 -1.2149 -0.5275
  152SAPE  C22016900   0.548   2.765   8.564 -0.5396 -0.3694  1.0249
  152SAPE  H20R16901   0.473   2.683   8.567 -2.2213  1.1165  0.8736
  152SAPE  H20S16902   0.640   2.750   8.624 -0.0075  3.0835  1.2386
  152SAPE  H20T16903   0.565   2.782   8.455  0.5903  0.3196  1.2949
  152SAPE   C3316904  -0.209   3.015   9.865 -0.0746 -0.3591  1.1038
  152SAPE   H3X16905  -0.119   2.951   9.851  0.6195  0.8773 -0.3940
  152SAPE   H3Y16906  -0.168   3.110   9.904  2.4130 -0.2333 -1.4601
  152SAPE   C3416907  -0.270   3.042   9.728  0.9741  0.7662 -0.4102
  152SAPE   H4X16908  -0.355   3.113   9.740 -0.4258 -0.6907 -1.3024
  152SAPE   H4Y16909  -0.320   2.947   9.701  0.5251 -0.3055  3.5348
  152SAPE   C3516910  -0.176   3.089   9.624 -0.7528  0.1951  0.0220
  152SAPE   H5X16911  -0.141   2.996   9.574 -3.3194  1.0180 -3.7892
  152SAPE   H5Y16912  -0.084   3.139   9.661  0.2782 -0.9728 -0.8768
  152SAPE   C3616913  -0.230   3.165   9.506 -0.1584  0.2407  0.0994
  152SAPE   H6X16914  -0.251   3.269   9.538  3.2689  0.6975  1.3739
  152SAPE   H6Y16915  -0.322   3.111   9.475  0.1339  0.4747 -1.2349
  152SAPE   C3716916  -0.138   3.168   9.386 -0.3144 -0.0896 -1.1974
  152SAPE   H7X16917  -0.103   3.065   9.362  1.7789  0.4528 -0.7299
  152SAPE   H7Y16918  -0.044   3.221   9.415 -0.8105  0.1667 -0.0114
  152SAPE   C3816919  -0.194   3.226   9.256  0.2888 -0.0197  0.0381
  152SAPE   H8X16920  -0.204   3.336   9.269  1.0330  0.2039 -1.1512
  152SAPE   H8Y16921  -0.293   3.179   9.235 -0.0668  0.2552  1.0333
  152SAPE   C3916922  -0.110   3.207   9.127  0.4098 -0.3020 -0.4444
  152SAPE   H9X16923  -0.074   3.102   9.125  0.4091 -0.3144 -2.3614
  152SAPE   H9Y16924  -0.017   3.267   9.136 -0.1936  0.2783  4.2363
  152SAPE  C31016925  -0.183   3.250   9.003  0.3642 -0.4095  0.4645
  152SAPE  H10X16926  -0.112   3.303   8.937  0.9928  0.5399  1.8577
  152SAPE  H10Y16927  -0.258   3.328   9.029  2.2129  1.1628  1.2570
  152SAPE  C31116928  -0.245   3.130   8.930 -0.2147 -0.2448  0.4058
  152SAPE  H11X16929  -0.327   3.082   8.987 -2.3284 -0.6736 -2.7146
  152SAPE  H11Y16930  -0.165   3.053   8.919 -0.3769 -0.1935 -1.4512
  152SAPE  C31216931  -0.292   3.167   8.790  0.8683 -0.8912  0.1323
  152SAPE  H12X16932  -0.221   3.228   8.729  0.6723  0.0726  0.8441
  152SAPE  H12Y16933  -0.387   3.223   8.796  1.1791 -0.5159  2.1103
  152SAPE  C31316934  -0.322   3.050   8.699 -0.1798  0.2083 -0.3655
  152SAPE  H13X16935  -0.382   2.972   8.751 -0.4973 -0.2548 -1.4181
  152SAPE  H13Y16936  -0.231   2.995   8.668  0.1018  0.1723  0.4891
  152SAPE  C31416937  -0.397   3.078   8.572  0.2012  0.0329  0.5916
  152SAPE  H14X16938  -0.485   3.143   8.595 -1.2111 -1.1561 -1.1897
  152SAPE  H14Y16939  -0.437   2.990   8.518  0.6458  0.4572 -0.4506
  152SAPE  C31516940  -0.315   3.171   8.487  0.2354 -0.3562  0.7609
  152SAPE  H15X16941  -0.226   3.115   8.451 -1.8205 -2.3403 -1.6086
  152SAPE  H15Y16942  -0.281   3.263   8.538 -0.4626  0.1936  0.2606
  152SAPE  C31616943  -0.386   3.221   8.355 -0.9493 -0.4732  0.4731
  152SAPE  H16X16944  -0.479   3.278   8.374 -0.8390  0.4070 -1.4545
  152SAPE  H16Y16945  -0.421   3.124   8.313  3.0228 -1.4937 -0.9680
  152SAPE  C31716946  -0.295   3.287   8.248  0.0044 -0.2303 -0.7140
  152SAPE  H17X16947  -0.208   3.219   8.234  0.8427  0.2202  1.8424
  152SAPE  H17Y16948  -0.257   3.385   8.283  0.1152 -0.2881 -0.6721
  152SAPE  C31816949  -0.353   3.312   8.113 -0.3622 -0.4544  0.0363
  152SAPE  H18X16950  -0.441   3.379   8.127 -0.5956 -0.1261 -2.5038
  152SAPE  H18Y16951  -0.394   3.226   8.057  2.6253 -2.1567  0.2404
  152SAPE  H18Z16952  -0.279   3.372   8.056 -1.4438 -0.2779 -1.2338
  153SAPE     N16953   0.400   4.891  10.841 -0.0737 -0.5740  0.4382
  153SAPE   HN116954   0.386   4.803  10.895 -2.1629  0.2773  1.4140
  153SAPE   HN216955   0.487   4.886  10.785 -1.7476 -0.1360 -2.4053
  153SAPE   HN316956   0.397   4.967  10.912 -1.4646  0.0307 -0.2271
  153SAPE   C1216957   0.297   4.934  10.741 -0.0450  0.4311 -0.3164
  153SAPE  H12A16958   0.345   5.016  10.684  2.9283 -1.9060 -1.4314
  153SAPE  H12B16959   0.207   4.960  10.802 -0.7470 -1.6195 -0.4149
  153SAPE   C1116960   0.256   4.811  10.653 -0.6298  0.1720 -0.1512
  153SAPE  H11A16961   0.332   4.771  10.583  0.5646  0.0247  1.1787
  153SAPE  H11B16962   0.181   4.850  10.582 -0.7058 -0.5263 -0.4555
  153SAPE     P16963   0.200   4.568  10.703  0.0505  0.1897 -0.0673
  153SAPE   O1316964   0.334   4.514  10.680 -0.4806 -0.2361  0.2975
  153SAPE   O1416965   0.117   4.489  10.798  1.1484 -0.8082 -0.3360
  153SAPE   O1216966   0.202   4.720  10.748 -0.1615 -0.1987  0.3994
  153SAPE   O1116967   0.123   4.574  10.571 -0.1016 -0.0922  0.0390
  153SAPE    C116968  -0.012   4.639  10.559  0.3554 -0.5848 -0.8947
  153SAPE    HA16969  -0.084   4.559  10.588  1.1506 -1.2209 -0.6262
  153SAPE    HB16970  -0.023   4.718  10.636 -1.5680  0.7362 -2.4343
  153SAPE    C216971  -0.052   4.695  10.417  0.1837  0.1212  0.0200
  153SAPE    HS16972  -0.149   4.747  10.436  0.6343  0.6786  0.8473
  153SAPE   O2116973  -0.059   4.592  10.322 -0.2767 -0.4614 -0.1743
  153SAPE   C2116974  -0.138   4.491  10.331  0.3954  0.7560 -0.7618
  153SAPE   O2216975  -0.240   4.476  10.400  0.4362  0.1583 -0.1411
  153SAPE   C2216976  -0.101   4.390  10.215 -0.5686 -0.5778 -0.6807
  153SAPE   H2R16977  -0.180   4.394  10.137 -2.6814  0.6599  1.3978
  153SAPE   H2S16978   0.003   4.411  10.181 -0.4802 -0.2583 -0.2268
  153SAPE    C316979   0.040   4.796  10.358  1.0547 -0.6654  0.7510
  153SAPE    HX16980   0.129   4.737  10.327  0.2707 -1.1545 -0.6641
  153SAPE    HY16981   0.068   4.872  10.434 -2.3276 -1.4905  3.0761
  153SAPE   O3116982  -0.018   4.872  10.244 -0.2370  1.1461  0.0076
  153SAPE   C3116983   0.078   4.921  10.162 -0.1218  0.3714 -0.3724
  153SAPE   O3216984   0.194   4.906  10.187 -0.2177 -0.0845 -0.3484
  153SAPE   C3216985   0.027   5.000  10.042  0.3818  0.8540  0.6971
  153SAPE   H2X16986   0.089   4.960   9.959  1.4749  3.5070  0.1207
  153SAPE   H2Y16987   0.066   5.103  10.058  0.6349  1.0188 -0.8684
  153SAPE   C2316988  -0.108   4.252  10.275 -0.0581  0.8216 -0.8692
  153SAPE   H3R16989  -0.202   4.254  10.335 -0.1518  2.0655 -1.0324
  153SAPE   H3S16990  -0.026   4.227  10.346  1.4214  2.0693 -2.0781
  153SAPE   C2416991  -0.133   4.148  10.162  0.0188  0.2524 -0.3609
  153SAPE   H4R16992  -0.212   4.191  10.097 -0.4412  1.1371  0.7552
  153SAPE   H4S16993  -0.177   4.065  10.221 -0.3167  2.4036  2.6339
  153SAPE   C2516994  -0.005   4.110  10.090  0.3640 -0.7200  0.1489
  153SAPE   H5R16995   0.079   4.092  10.160  1.0035 -0.9326 -0.6619
  153SAPE   C2616996   0.017   4.120   9.959  0.2041 -0.4520 -0.7907
  153SAPE   H6R16997   0.120   4.105   9.922  0.4037  0.8369 -0.7878
  153SAPE   C2716998  -0.086   4.160   9.856 -0.2940  0.5991 -0.0338
  153SAPE   H7R16999  -0.040   4.235   9.788 -2.1035 -0.2952 -2.3886
  153SAPE   H7S17000  -0.172   4.214   9.901 -0.4673  0.6557 -0.4327
  153SAPE   C2817001  -0.124   4.033   9.777  0.5570 -0.3332  0.2225
  153SAPE   H8R17002  -0.200   3.975   9.831  0.7522 -1.2656 -0.4853
  153SAPE   C2917003  -0.080   3.996   9.657  0.4551  0.3269 -0.4777
  153SAPE   H9R17004  -0.128   3.911   9.605 -1.7344  0.6764  0.8739
  153SAPE  C21017005   0.023   4.071   9.574  0.1543 -0.2613 -0.6574
  153SAPE  H10R17006   0.063   4.158   9.630 -2.8438  0.0146  1.3346
  153SAPE  H10S17007  -0.018   4.118   9.482  1.7629  2.0703 -0.2526
  153SAPE  C21117008   0.149   3.997   9.538  0.0307  0.2275  1.2600
  153SAPE  H11R17009   0.225   3.977   9.615  0.5823 -3.4410 -0.0600
  153SAPE  C21217010   0.181   3.947   9.420  0.1763  0.6464  0.2343
  153SAPE  H12R17011   0.285   3.910   9.420 -0.8916 -2.9433  2.9192
  153SAPE  C21317012   0.109   3.951   9.285  0.0696  0.5183 -0.1111
  153SAPE  H13R17013   0.012   4.004   9.298  1.4600  3.5733 -1.1910
  153SAPE  H13S17014   0.072   3.848   9.268 -0.6233  0.3746  1.9703
  153SAPE  C21417015   0.190   4.012   9.172  0.4287 -0.2576  0.1908
  153SAPE  H14R17016   0.229   4.111   9.202  2.3778 -0.8392 -0.2770
  153SAPE  C21517017   0.213   3.969   9.043  0.4824  1.0672  0.5473
  153SAPE  H15R17018   0.292   4.012   8.979  1.8695 -1.2907  0.5691
  153SAPE  C21617019   0.159   3.844   8.975  0.1923  0.4277  0.3262
  153SAPE  H16R17020   0.099   3.785   9.048 -1.3009  2.0008  0.4325
  153SAPE  H16S17021   0.248   3.781   8.954 -0.8575 -1.7099  1.8317
  153SAPE  C21717022   0.074   3.873   8.857  0.6018  0.2152  0.1153
  153SAPE  H17R17023  -0.002   3.952   8.872 -0.4021 -0.2486 -2.0248
  153SAPE  H17S17024   0.023   3.780   8.824 -2.1622  0.3603  3.4423
  153SAPE  C21817025   0.161   3.937   8.739 -0.2469 -0.3743 -0.1333
  153SAPE  H18R17026   0.267   3.906   8.748 -0.4950 -0.6109  3.4947
  153SAPE  H18S17027   0.169   4.047   8.753 -0.4913 -0.5312  1.4408
  153SAPE  C21917028   0.108   3.892   8.601 -0.5486  0.4863  0.3933
  153SAPE  H19R17029   0.124   3.984   8.540  0.2293  1.4926  2.0237
  153SAPE  H19S17030   0.001   3.867   8.613 -0.6852  0.0287 -1.5061
  153SAPE  C22017031   0.182   3.769   8.556 -0.4503  0.7030 -0.4564
  153SAPE  H20R17032   0.292   3.783   8.552  0.0533 -2.2361  0.7247
  153SAPE  H20S17033   0.141   3.734   8.459 -1.2801  1.2993 -0.3232
  153SAPE  H20T17034   0.166   3.678   8.617 -0.1065  0.5804 -0.5431
  153SAPE   C3317035  -0.117   4.995  10.003 -0.7002 -0.4154 -0.1140
  153SAPE   H3X17036  -0.170   5.023  10.096  0.9163  2.2719  0.1171
  153SAPE   H3Y17037  -0.148   4.893   9.973 -0.2868 -0.6911  0.4078
  153SAPE   C3417038  -0.155   5.095   9.895  0.5129 -0.9027  0.3657
  153SAPE   H4X17039  -0.092   5.065   9.808  0.8345  1.5422 -0.3346
  153SAPE   H4Y17040  -0.119   5.198   9.917 -0.9372 -0.0972 -0.8497
  153SAPE   C3517041  -0.301   5.099   9.862  1.5136  0.3944 -0.8305
  153SAPE   H5X17042  -0.331   5.163   9.776 -1.3332 -1.0772 -1.0506
  153SAPE   H5Y17043  -0.359   5.148   9.943  1.3133  0.3683 -0.9565
  153SAPE   C3617044  -0.366   4.958   9.828  0.2206  0.5537  0.2259
  153SAPE   H6X17045  -0.477   4.955   9.821  0.1551 -1.7285  1.2384
  153SAPE   H6Y17046  -0.344   4.898   9.920 -0.5017  1.4045  0.9785
  153SAPE   C3717047  -0.306   4.901   9.694  0.0912  0.0659 -0.3073
  153SAPE   H7X17048  -0.343   4.802   9.660 -1.0239  0.0487  0.8895
  153SAPE   H7Y17049  -0.197   4.887   9.712  0.3580  1.1816 -1.0026
  153SAPE   C3817050  -0.329   4.999   9.574 -0.4121 -0.3248  0.4967
  153SAPE   H8X17051  -0.250   5.075   9.588  2.7684 -2.9782 -1.6492
  153SAPE   H8Y17052  -0.425   5.055   9.584  1.2488  2.8417 -0.0587
  153SAPE   C3917053  -0.317   4.939   9.433  0.4518  0.8483 -0.0029
  153SAPE   H9X17054  -0.350   5.013   9.357  1.4929  2.2063  0.8148
  153SAPE   H9Y17055  -0.386   4.852   9.434  1.7105 -0.2109  2.3983
  153SAPE  C31017056  -0.174   4.882   9.411  0.1524  0.2198  0.1110
  153SAPE  H10X17057  -0.138   4.803   9.479 -0.1828 -1.1800 -1.2818
  153SAPE  H10Y17058  -0.107   4.965   9.442 -0.0413 -0.3182  2.1057
  153SAPE  C31117059  -0.157   4.863   9.260 -0.2202  1.0790 -0.2837
  153SAPE  H11X17060  -0.171   4.953   9.196 -2.7332  1.1295  0.2277
  153SAPE  H11Y17061  -0.234   4.788   9.234 -1.5414  2.7712 -1.5359
  153SAPE  C31217062  -0.009   4.808   9.228  1.0419 -0.5225  0.1646
  153SAPE  H12X17063  -0.001   4.710   9.281  1.1101 -2.3140 -2.9016
  153SAPE  H12Y17064   0.078   4.866   9.263  1.8548 -3.0251  2.6518
  153SAPE  C31317065   0.028   4.763   9.083 -0.5755  0.2932  0.2638
  153SAPE  H13X17066  -0.044   4.685   9.050 -1.2248  0.9452  0.1054
  153SAPE  H13Y17067   0.132   4.727   9.069  0.0545  1.8960  0.5262
  153SAPE  C31417068   0.015   4.879   8.979 -0.1912 -0.1298  0.0079
  153SAPE  H14X17069   0.096   4.953   8.995  0.1842 -0.2011 -1.4179
  153SAPE  H14Y17070  -0.086   4.920   9.000  0.1103 -0.7092  3.1098
  153SAPE  C31517071   0.038   4.842   8.831  0.4508  0.0561 -0.0768
  153SAPE  H15X17072   0.030   4.927   8.759 -0.8356 -0.7246 -0.9064
  153SAPE  H15Y17073  -0.045   4.772   8.808  1.3852 -0.9847 -0.3577
  153SAPE  C31617074   0.172   4.768   8.798 -0.7673 -0.3046  0.6804
  153SAPE  H16X17075   0.178   4.678   8.862 -0.9037 -0.0169  1.1048
  153SAPE  H16Y17076   0.251   4.836   8.834 -1.8327  0.5965  1.3935
  153SAPE  C31717077   0.186   4.726   8.654 -0.8970 -0.3602  0.1278
  153SAPE  H17X17078   0.266   4.649   8.650  1.0154  1.4104  1.7552
  153SAPE  H17Y17079   0.232   4.809   8.596  1.1136 -2.6808 -1.7893
  153SAPE  C31817080   0.058   4.669   8.591 -0.1157 -0.2085 -0.7836
  153SAPE  H18X17081  -0.013   4.754   8.601  1.9688  1.3446  3.2060
  153SAPE  H18Y17082   0.025   4.579   8.648 -0.7449  1.8323  2.3557
  153SAPE  H18Z17083   0.074   4.660   8.482  1.8233  3.8877 -1.0306
  154SAPE     N17084   6.317   5.483  10.737  0.7140 -0.1134 -0.6711
  154SAPE   HN117085   6.247   5.436  10.676  0.1639 -2.7735  1.8019
  154SAPE   HN217086   6.395   5.420  10.764  2.8756  2.7529  0.2875
  154SAPE   HN317087   6.258   5.492  10.823  2.0182 -2.4501  0.5483
  154SAPE   C1217088   6.366   5.617  10.671 -0.5750 -0.2985  0.2771
  154SAPE  H12A17089   6.272   5.677  10.672 -0.4169 -0.0655  1.2831
  154SAPE  H12B17090   6.391   5.595  10.565 -0.9680 -0.5462  0.2328
  154SAPE   C1117091   6.478   5.695  10.735 -0.8582 -0.2061 -0.1817
  154SAPE  H11A17092   6.502   5.778  10.666  0.1924  0.6719  1.1716
  154SAPE  H11B17093   6.568   5.631  10.746  1.6518  3.4269  2.7134
  154SAPE     P17094   6.391   5.873  10.897 -0.0420 -0.5384 -0.1724
  154SAPE   O1317095   6.272   5.870  10.985 -0.8513  0.1268  0.2971
  154SAPE   O1417096   6.512   5.951  10.935 -0.5489 -0.0369  0.1818
  154SAPE   O1217097   6.445   5.730  10.870  0.3986 -0.4806  0.5109
  154SAPE   O1117098   6.353   5.933  10.755 -0.0623 -0.3103 -0.1738
  154SAPE    C117099   6.219   5.950  10.721  0.2306 -0.3447 -0.5352
  154SAPE    HA17100   6.173   5.857  10.682 -0.3577 -1.5374  2.6792
  154SAPE    HB17101   6.158   5.975  10.810  0.3472 -0.5379 -0.3987
  154SAPE    C217102   6.201   6.074  10.633  0.0011 -0.2515  0.0561
  154SAPE    HS17103   6.128   6.138  10.688  1.2576 -0.7857  2.4803
  154SAPE   O2117104   6.157   6.027  10.499  0.3617 -0.0270  0.1409
  154SAPE   C2117105   6.034   5.979  10.503 -0.3396 -0.0274  0.5862
  154SAPE   O2217106   5.961   5.989  10.600  0.3137  0.0247  1.0773
  154SAPE   C2217107   5.982   5.903  10.377 -0.1517  0.3231 -0.6659
  154SAPE   H2R17108   6.058   5.823  10.364 -0.5707 -0.2685  0.3532
  154SAPE   H2S17109   5.891   5.851  10.413  0.8744  0.1347  1.9089
  154SAPE    C317110   6.326   6.164  10.629  0.1182 -0.0039 -0.5848
  154SAPE    HX17111   6.411   6.098  10.601 -0.3603 -1.1938  0.6502
  154SAPE    HY17112   6.326   6.199  10.735 -0.9897 -0.4385 -0.4300
  154SAPE   O3117113   6.305   6.279  10.546 -0.5842 -0.3899 -0.0765
  154SAPE   C3117114   6.404   6.307  10.458  0.3103 -0.0672  0.5198
  154SAPE   O3217115   6.520   6.271  10.473  0.3566  0.2559 -0.8221
  154SAPE   C3217116   6.352   6.407  10.354 -0.3650  0.1808 -0.2011
  154SAPE   H2X17117   6.337   6.497  10.418 -0.8168 -1.3097  1.9000
  154SAPE   H2Y17118   6.254   6.367  10.321 -0.3566 -1.8012  1.9423
  154SAPE   C2317119   5.937   5.976  10.250 -0.6353  0.2747 -0.4699
  154SAPE   H3R17120   6.015   6.044  10.209  0.3730 -0.0781  0.8203
  154SAPE   H3S17121   5.857   6.043  10.288 -0.6982 -0.6133  1.0394
  154SAPE   C2417122   5.884   5.879  10.145 -0.0684  0.4920 -0.3572
  154SAPE   H4R17123   5.821   5.949  10.085  0.8078  1.3133 -0.3533
  154SAPE   H4S17124   5.825   5.806  10.204  0.9577  0.8127  1.1435
  154SAPE   C2517125   5.997   5.813  10.070  0.0128 -0.3283 -0.0479
  154SAPE   H5R17126   6.081   5.787  10.135  1.0486  0.4154 -1.0578
  154SAPE   C2617127   6.004   5.802   9.936 -0.4661  0.2061  0.3485
  154SAPE   H6R17128   6.085   5.740   9.895 -1.8975 -1.1047 -0.6209
  154SAPE   C2717129   5.887   5.844   9.855  0.0544 -0.3074  0.2331
  154SAPE   H7R17130   5.898   5.954   9.845  1.7446 -0.5528 -1.1913
  154SAPE   H7S17131   5.789   5.837   9.906 -0.7016  2.3088 -0.7202
  154SAPE   C2817132   5.865   5.786   9.715  0.1044  0.2044  0.0320
  154SAPE   H8R17133   5.782   5.717   9.693  1.7312 -2.4671  1.8164
  154SAPE   C2917134   5.940   5.823   9.610  0.6074 -0.0314 -0.3013
  154SAPE   H9R17135   5.915   5.778   9.513  0.5654  1.6002 -1.0862
  154SAPE  C21017136   6.063   5.910   9.615  0.0138  0.0276 -0.2842
  154SAPE  H10R17137   6.144   5.841   9.581  0.3266 -0.1968  0.8650
  154SAPE  H10S17138   6.110   5.935   9.712  0.0970  0.2039 -0.3692
  154SAPE  C21117139   6.068   6.033   9.521  0.1446 -0.0963  0.5219
  154SAPE  H11R17140   6.042   6.126   9.573  0.2997  0.2300  0.0207
  154SAPE  C21217141   6.116   6.038   9.394  0.7650  1.5671  0.1939
  154SAPE  H12R17142   6.135   6.131   9.339 -0.0440  0.1358 -2.6982
  154SAPE  C21317143   6.159   5.911   9.320  0.1615 -0.1274 -0.3106
  154SAPE  H13R17144   6.112   5.823   9.367  1.8942  0.6894  3.2587
  154SAPE  H13S17145   6.267   5.891   9.336  0.5344  2.0480  0.2805
  154SAPE  C21417146   6.138   5.936   9.177  1.2115  0.2391  0.1769
  154SAPE  H14R17147   6.187   6.025   9.136  0.0380  1.3641  1.1185
  154SAPE  C21517148   6.064   5.850   9.094 -0.1296  0.2401  0.3896
  154SAPE  H15R17149   6.041   5.878   8.990  1.8264  3.2192  0.6334
  154SAPE  C21617150   5.998   5.713   9.128  0.6865 -0.3345  0.1606
  154SAPE  H16R17151   5.891   5.728   9.151  0.0658 -1.8400 -1.5263
  154SAPE  H16S17152   6.037   5.663   9.220 -2.2443 -3.9174 -0.3040
  154SAPE  C21717153   6.002   5.605   9.006  0.3522 -0.5671 -0.1689
  154SAPE  H17R17154   5.925   5.531   9.036 -0.7236  0.9586  0.9685
  154SAPE  H17S17155   6.104   5.562   8.991  1.5907  2.7854 -2.7034
  154SAPE  C21817156   5.945   5.658   8.877 -0.0720 -0.0730 -0.1022
  154SAPE  H18R17157   6.020   5.722   8.826  1.6046 -0.8326  1.3160
  154SAPE  H18S17158   5.853   5.719   8.893 -1.0280 -1.8002  1.3543
  154SAPE  C21917159   5.919   5.546   8.776 -0.5789 -0.1596  0.9036
  154SAPE  H19R17160   5.834   5.569   8.709 -0.7220 -0.4385  0.9856
  154SAPE  H19S17161   5.883   5.453   8.826  0.0895 -0.8681  0.1129
  154SAPE  C22017162   6.042   5.508   8.698 -0.5219  0.4961 -0.6036
  154SAPE  H20R17163   6.016   5.442   8.612 -1.1270  0.2670 -0.2552
  154SAPE  H20S17164   6.119   5.453   8.756 -1.8198 -0.9864 -0.2259
  154SAPE  H20T17165   6.083   5.606   8.665  1.2731  0.2435  0.7518
  154SAPE   C3317166   6.456   6.446  10.246  0.4881 -0.2749  0.1322
  154SAPE   H3X17167   6.482   6.355  10.188 -1.9248 -0.9773  0.0251
  154SAPE   H3Y17168   6.550   6.491  10.285  1.3834  1.1154 -3.1961
  154SAPE   C3417169   6.403   6.542  10.145 -0.1755  0.2695  0.6177
  154SAPE   H4X17170   6.406   6.646  10.183 -0.0986  0.8610 -0.9400
  154SAPE   H4Y17171   6.293   6.530  10.133 -0.0800  0.5535 -0.6556
  154SAPE   C3517172   6.472   6.541  10.001  0.3446  0.3749 -0.5092
  154SAPE   H5X17173   6.442   6.444   9.955  2.2889 -1.1213  1.1844
  154SAPE   H5Y17174   6.581   6.522  10.011 -0.1853 -3.1030  0.0877
  154SAPE   C3617175   6.445   6.664   9.917  0.0599  0.4017  0.1865
  154SAPE   H6X17176   6.479   6.638   9.814  3.7058  1.5979  0.9521
  154SAPE   H6Y17177   6.505   6.752   9.947  2.4413 -1.2801  0.6069
  154SAPE   C3717178   6.299   6.709   9.910  0.3898  0.3003  0.3961
  154SAPE   H7X17179   6.264   6.730  10.013  3.2120  2.8238  0.9740
  154SAPE   H7Y17180   6.236   6.633   9.859  1.1116  0.4785 -0.8085
  154SAPE   C3817181   6.269   6.846   9.833  0.0495  0.0429  0.1092
  154SAPE   H8X17182   6.315   6.841   9.732 -0.4381  0.5240 -0.1449
  154SAPE   H8Y17183   6.310   6.932   9.889 -0.6580  0.2550  0.3228
  154SAPE   C3917184   6.116   6.846   9.789  0.1306 -0.3120  0.1138
  154SAPE   H9X17185   6.059   6.858   9.884 -1.2096 -2.1283 -0.3899
  154SAPE   H9Y17186   6.088   6.752   9.735 -0.9959  0.4521 -0.6769
  154SAPE  C31017187   6.082   6.972   9.701 -0.1824  0.0976  0.3944
  154SAPE  H10X17188   6.121   7.062   9.752 -1.3217  1.0727 -0.3975
  154SAPE  H10Y17189   5.972   6.986   9.713 -0.2124  1.5538 -1.2935
  154SAPE  C31117190   6.118   6.971   9.550  0.6156  0.1744 -0.2917
  154SAPE  H11X17191   6.078   6.888   9.488 -0.5446  1.3741 -1.2116
  154SAPE  H11Y17192   6.228   6.970   9.543  0.4995 -0.5386 -2.6817
  154SAPE  C31217193   6.063   7.091   9.472 -0.5432 -0.1418  0.2839
  154SAPE  H12X17194   6.110   7.184   9.512 -0.3984  0.1895 -0.6207
  154SAPE  H12Y17195   5.953   7.105   9.473 -0.3980  1.7254 -1.7128
  154SAPE  C31317196   6.107   7.092   9.321  0.0918  0.6877 -0.9122
  154SAPE  H13X17197   6.064   7.004   9.267  1.4741 -0.2780 -0.4860
  154SAPE  H13Y17198   6.218   7.092   9.323  0.1375 -1.6945  1.8457
  154SAPE  C31417199   6.054   7.219   9.251 -0.0877  0.0587  0.0307
  154SAPE  H14X17200   6.105   7.304   9.301  1.9873 -1.8798  1.4283
  154SAPE  H14Y17201   5.944   7.237   9.256  0.1629  1.9692 -0.3637
  154SAPE  C31517202   6.080   7.216   9.100 -0.3370  0.7006  0.4653
  154SAPE  H15X17203   6.018   7.134   9.057  0.7437 -0.7477  1.5525
  154SAPE  H15Y17204   6.187   7.199   9.076 -1.5673 -2.0793 -4.2069
  154SAPE  C31617205   6.055   7.356   9.025  0.1610  1.0619 -0.3110
  154SAPE  H16X17206   6.112   7.429   9.086 -1.2422  1.5478  0.4476
  154SAPE  H16Y17207   5.945   7.374   9.028 -0.2604 -1.2955  0.8115
  154SAPE  C31717208   6.117   7.359   8.887  0.1755 -0.4797  0.0652
  154SAPE  H17X17209   6.090   7.276   8.819 -0.1925 -0.7947  0.5913
  154SAPE  H17Y17210   6.228   7.370   8.892  0.3107 -1.6761 -0.1576
  154SAPE  C31817211   6.070   7.485   8.816 -0.1212 -0.0551  0.4621
  154SAPE  H18X17212   5.961   7.502   8.824 -0.2157  0.9726 -2.0370
  154SAPE  H18Y17213   6.083   7.486   8.706 -3.9110 -0.3359 -0.1150
  154SAPE  H18Z17214   6.116   7.578   8.857  1.3869 -0.6145  0.1322
  155SAPE     N17215   2.644   4.144  10.698 -0.3955  0.1867  0.1513
  155SAPE   HN117216   2.647   4.094  10.789  0.0100  1.0325  0.6169
  155SAPE   HN217217   2.603   4.065  10.644  0.9671 -0.6126  0.2442
  155SAPE   HN317218   2.741   4.156  10.662  0.0652 -0.0827  1.2853
  155SAPE   C1217219   2.563   4.270  10.697  0.3732  0.1445  0.8898
  155SAPE  H12A17220   2.459   4.236  10.679  1.1057 -1.2830 -0.9100
  155SAPE  H12B17221   2.585   4.346  10.619  0.1181  1.2849  1.9014
  155SAPE   C1117222   2.560   4.333  10.834  0.5585 -0.0096 -0.0981
  155SAPE  H11A17223   2.658   4.376  10.864 -0.5103  1.3723  1.5586
  155SAPE  H11B17224   2.524   4.256  10.905 -0.1674  0.6874  0.3012
  155SAPE     P17225   2.485   4.581  10.798  0.0055  0.1410  0.0593
  155SAPE   O1317226   2.542   4.652  10.915  0.7913 -0.7859 -0.0365
  155SAPE   O1417227   2.554   4.590  10.669 -0.0113  0.5808  0.2704
  155SAPE   O1217228   2.455   4.429  10.832 -0.5549 -0.0561  0.7810
  155SAPE   O1117229   2.341   4.635  10.768 -0.2073  0.0374  0.4965
  155SAPE    C117230   2.244   4.544  10.707  0.1198 -0.0581  0.1962
  155SAPE    HA17231   2.293   4.451  10.671 -0.6958 -1.2625  2.0543
  155SAPE    HB17232   2.174   4.511  10.787  0.7773  0.7452  1.1380
  155SAPE    C217233   2.175   4.615  10.582  0.9193 -0.3432  0.7152
  155SAPE    HS17234   2.109   4.540  10.533 -0.1534 -0.3354  2.1036
  155SAPE   O2117235   2.282   4.659  10.500  0.6828  0.6331 -0.1842
  155SAPE   C2117236   2.324   4.575  10.409 -0.2857  0.5143 -0.3447
  155SAPE   O2217237   2.292   4.459  10.390 -0.0736  0.2822  0.0331
  155SAPE   C2217238   2.432   4.649  10.324  0.3475 -0.1858 -0.3964
  155SAPE   H2R17239   2.383   4.735  10.272  0.1325  0.3999  0.7434
  155SAPE   H2S17240   2.518   4.679  10.387 -0.1667  0.5694 -0.0294
  155SAPE    C317241   2.078   4.735  10.616  0.6023  0.7228 -0.3294
  155SAPE    HX17242   2.138   4.813  10.667 -0.9951  2.3881 -0.9036
  155SAPE    HY17243   2.001   4.692  10.683  0.6503  0.3127 -0.5307
  155SAPE   O3117244   2.016   4.793  10.499 -0.7260 -0.0277 -0.5589
  155SAPE   C3117245   1.952   4.907  10.512 -0.1675 -0.1508  0.2103
  155SAPE   O3217246   1.903   4.948  10.614  0.3271 -0.4310  0.0720
  155SAPE   C3217247   1.935   4.966  10.367 -1.0340 -0.1087  0.9218
  155SAPE   H2X17248   1.838   5.017  10.351 -0.5812  0.6191  0.4353
  155SAPE   H2Y17249   1.925   4.881  10.295 -1.5214  1.2302 -0.6538
  155SAPE   C2317250   2.492   4.545  10.222  0.3917 -0.2069 -0.5350
  155SAPE   H3R17251   2.417   4.480  10.172  0.7786  0.1511 -1.6168
  155SAPE   H3S17252   2.548   4.476  10.288 -1.4073 -1.2459 -0.0411
  155SAPE   C2417253   2.573   4.595  10.105 -0.0418  0.0117  0.3775
  155SAPE   H4R17254   2.510   4.649  10.032 -1.0153 -2.1804 -0.4938
  155SAPE   H4S17255   2.599   4.507  10.043 -2.1673  0.0674 -0.6479
  155SAPE   C2517256   2.706   4.653  10.144  0.4393 -0.1455 -0.7918
  155SAPE   H5R17257   2.710   4.681  10.250  0.6901 -1.0080 -0.5622
  155SAPE   C2617258   2.808   4.680  10.063 -0.5497  0.1219 -0.6821
  155SAPE   H6R17259   2.905   4.705  10.109 -0.3708 -2.2537  0.3602
  155SAPE   C2717260   2.803   4.658   9.914 -0.0603  0.0055 -0.7153
  155SAPE   H7R17261   2.836   4.749   9.858 -0.4770 -0.2993 -1.4634
  155SAPE   H7S17262   2.707   4.616   9.880  1.4569 -3.4565 -1.0845
  155SAPE   C2817263   2.894   4.544   9.872  0.9070 -0.0442 -0.0676
  155SAPE   H8R17264   2.916   4.473   9.953 -0.9861  0.0161  0.5658
  155SAPE   C2917265   2.946   4.533   9.744  0.3209 -0.4725  0.2919
  155SAPE   H9R17266   3.022   4.454   9.736 -0.0461 -0.8218  0.2328
  155SAPE  C21017267   2.931   4.623   9.624  0.0968  0.4530  0.7264
  155SAPE  H10R17268   2.986   4.563   9.549 -2.4113 -0.1522 -0.7439
  155SAPE  H10S17269   2.979   4.723   9.638  0.0946  0.3832  1.2610
  155SAPE  C21117270   2.788   4.624   9.575  0.0135  0.2970  0.1842
  155SAPE  H11R17271   2.711   4.637   9.652 -0.3841 -0.7282 -0.0157
  155SAPE  C21217272   2.742   4.607   9.447  0.1000 -0.4006 -0.5437
  155SAPE  H12R17273   2.637   4.638   9.440  0.5132  1.1106 -0.5007
  155SAPE  C21317274   2.818   4.594   9.319  0.4855 -0.6003 -0.5562
  155SAPE  H13R17275   2.756   4.607   9.228  0.3148  1.4458 -0.1955
  155SAPE  H13S17276   2.866   4.494   9.323  0.3372 -0.7154 -1.5065
  155SAPE  C21417277   2.945   4.685   9.304 -0.1935  0.4289 -0.4664
  155SAPE  H14R17278   3.011   4.685   9.392 -0.9689 -3.3818  0.2820
  155SAPE  C21517279   2.978   4.753   9.192 -0.1931 -0.2980  0.6093
  155SAPE  H15R17280   3.074   4.806   9.194 -0.3835  0.0980 -0.2279
  155SAPE  C21617281   2.919   4.753   9.052 -0.9396 -0.6393  0.7403
  155SAPE  H16R17282   2.891   4.856   9.021  2.4405  0.1546 -0.0094
  155SAPE  H16S17283   2.836   4.681   9.037 -2.2979  1.1851 -1.2382
  155SAPE  C21717284   3.026   4.709   8.942  0.1287 -0.1688 -0.1074
  155SAPE  H17R17285   3.059   4.605   8.961  1.4621  0.3674  0.6180
  155SAPE  H17S17286   3.109   4.783   8.938 -0.9421  1.0773 -0.0030
  155SAPE  C21817287   2.973   4.720   8.795 -0.4958 -1.0141  0.9292
  155SAPE  H18R17288   3.056   4.732   8.722  0.2426  2.3145  2.0979
  155SAPE  H18S17289   2.928   4.822   8.788  1.8417 -0.0185 -0.9077
  155SAPE  C21917290   2.880   4.609   8.756 -0.6052 -0.0851 -0.0247
  155SAPE  H19R17291   2.786   4.623   8.814 -0.1665  0.4793  0.5780
  155SAPE  H19S17292   2.925   4.516   8.797 -1.7648 -0.3414  0.7270
  155SAPE  C22017293   2.851   4.594   8.605 -0.1192 -0.2528  0.2094
  155SAPE  H20R17294   2.948   4.570   8.557 -0.2211 -0.0663 -0.0894
  155SAPE  H20S17295   2.806   4.683   8.556  1.4819 -0.2707 -1.4215
  155SAPE  H20T17296   2.785   4.505   8.597 -2.5376  1.3672  1.0696
  155SAPE   C3317297   2.059   5.039  10.314  0.1423 -0.0729 -0.2276
  155SAPE   H3X17298   2.149   4.975  10.305 -0.3394 -1.4974  3.4048
  155SAPE   H3Y17299   2.096   5.121  10.379  4.7707 -1.3219 -0.9608
  155SAPE   C3417300   2.036   5.100  10.178  0.3201  0.3613  0.2330
  155SAPE   H4X17301   2.120   5.166  10.145 -0.4551  1.3909  0.2514
  155SAPE   H4Y17302   1.952   5.172  10.187 -0.4715 -0.2896 -1.5843
  155SAPE   C3517303   2.010   4.994  10.071  0.6311 -0.7241 -0.4368
  155SAPE   H5X17304   1.917   4.940  10.098  1.0675 -0.8000  1.0018
  155SAPE   H5Y17305   2.095   4.922  10.064  1.4850  0.3330 -1.2704
  155SAPE   C3617306   2.001   5.057   9.918 -0.1135  0.0381  0.1841
  155SAPE   H6X17307   2.024   4.975   9.846  1.6283  0.9873 -0.3793
  155SAPE   H6Y17308   2.087   5.125   9.905 -0.0115  0.1879  1.4888
  155SAPE   C3717309   1.864   5.118   9.881 -0.4141 -0.2498  0.2935
  155SAPE   H7X17310   1.831   5.183   9.965 -0.4798  1.4990 -1.0281
  155SAPE   H7Y17311   1.786   5.041   9.866  1.3519 -1.8539 -1.1739
  155SAPE   C3817312   1.875   5.208   9.755 -0.3374  0.4602  0.2127
  155SAPE   H8X17313   1.959   5.279   9.768 -1.4961  1.8218  0.4892
  155SAPE   H8Y17314   1.778   5.262   9.749 -0.3375  0.4006 -0.3186
  155SAPE   C3917315   1.902   5.127   9.627 -0.9051 -0.0497 -0.0884
  155SAPE   H9X17316   1.826   5.047   9.619 -0.5255 -0.6203  1.6011
  155SAPE   H9Y17317   1.994   5.068   9.644 -0.8959  0.1335  0.5095
  155SAPE  C31017318   1.907   5.209   9.496 -0.0747 -0.2709  0.4053
  155SAPE  H10X17319   1.992   5.281   9.489 -1.5112  1.3147 -2.0033
  155SAPE  H10Y17320   1.817   5.273   9.505 -0.1617 -0.5372  1.8118
  155SAPE  C31117321   1.911   5.112   9.373 -0.2593  0.0726  0.2894
  155SAPE  H11X17322   1.908   5.168   9.277 -0.1535 -0.5127 -0.0582
  155SAPE  H11Y17323   1.819   5.051   9.374  0.0456 -0.4954 -1.8485
  155SAPE  C31217324   2.038   5.023   9.363 -0.6016 -0.3053  0.3146
  155SAPE  H12X17325   2.048   4.965   9.457  0.4919 -1.6575 -0.5876
  155SAPE  H12Y17326   2.130   5.086   9.365 -0.9238  0.2650 -1.2898
  155SAPE  C31317327   2.044   4.945   9.233 -0.4496 -0.4744 -0.0009
  155SAPE  H13X17328   1.956   4.882   9.209  0.1718 -0.7480 -1.6829
  155SAPE  H13Y17329   2.138   4.885   9.237  0.2112  0.1515 -3.1847
  155SAPE  C31417330   2.088   5.026   9.108  0.0076 -0.3970 -0.5909
  155SAPE  H14X17331   2.180   5.083   9.130 -0.4432 -0.2597  1.0110
  155SAPE  H14Y17332   2.006   5.100   9.093 -0.0664 -0.8386 -2.6896
  155SAPE  C31517333   2.103   4.948   8.984  0.3130  0.0099 -0.6236
  155SAPE  H15X17334   2.039   4.858   8.990  0.5347 -0.0525  1.1659
  155SAPE  H15Y17335   2.210   4.919   8.976  1.1751  0.9813  4.4469
  155SAPE  C31617336   2.057   5.026   8.856 -0.1218 -0.7242 -0.2470
  155SAPE  H16X17337   2.150   5.078   8.826 -0.8805  1.6332  1.1347
  155SAPE  H16Y17338   1.972   5.094   8.882  0.3137 -1.2785  3.1514
  155SAPE  C31717339   2.013   4.920   8.755 -0.0628  0.4226  0.2835
  155SAPE  H17X17340   2.078   4.831   8.763 -0.3709  0.2514  0.9143
  155SAPE  H17Y17341   2.035   4.973   8.660 -0.8746  0.5616  0.1701
  155SAPE  C31817342   1.866   4.888   8.760  0.2236  0.4834  0.4156
  155SAPE  H18X17343   1.814   4.985   8.766  0.0582  0.4237 -0.0128
  155SAPE  H18Y17344   1.842   4.824   8.848 -0.8623 -0.5158 -0.5671
  155SAPE  H18Z17345   1.854   4.819   8.673  2.5780 -1.4118  1.4599
  156SAPE     N17346   6.452   1.869  10.754 -0.3260  0.2753 -0.3252
  156SAPE   HN117347   6.536   1.820  10.791  0.1275  1.1140 -0.2228
  156SAPE   HN217348   6.405   1.809  10.684 -0.9789 -0.0917  0.4145
  156SAPE   HN317349   6.487   1.955  10.706  4.0382 -0.5464  0.9186
  156SAPE   C1217350   6.342   1.889  10.851 -0.7478  0.4110 -0.0037
  156SAPE  H12A17351   6.387   1.953  10.930 -1.4313  0.7893  0.0926
  156SAPE  H12B17352   6.316   1.786  10.883  0.7198  0.0903  0.1912
  156SAPE   C1117353   6.223   1.951  10.788 -1.1424 -0.1037  0.2439
  156SAPE  H11A17354   6.151   1.961  10.873  1.0565 -1.0855  2.3309
  156SAPE  H11B17355   6.171   1.888  10.713  0.2372 -0.1405 -0.7259
  156SAPE     P17356   6.180   2.203  10.709  0.1799  0.2387  0.4229
  156SAPE   O1317357   6.107   2.221  10.837  0.1359  0.2575 -0.1355
  156SAPE   O1417358   6.261   2.320  10.661 -0.3230  0.2254  0.3773
  156SAPE   O1217359   6.274   2.076  10.739 -0.1215 -0.2411  0.1246
  156SAPE   O1117360   6.096   2.153  10.585  0.1618  0.5597  0.2262
  156SAPE    C117361   6.166   2.093  10.476  0.1174 -0.1814  0.1445
  156SAPE    HA17362   6.268   2.061  10.503  0.5117  1.2626  0.4468
  156SAPE    HB17363   6.108   2.008  10.434  0.2678 -0.3078  0.1933
  156SAPE    C217364   6.193   2.190  10.355 -0.2904  0.4321  0.3288
  156SAPE    HS17365   6.259   2.271  10.393  1.3495 -0.9077  0.4052
  156SAPE   O2117366   6.073   2.242  10.306  0.1043 -0.2999  0.0449
  156SAPE   C2117367   6.053   2.371  10.327  0.3671  0.6050 -0.7178
  156SAPE   O2217368   6.143   2.447  10.354  0.4317 -0.4342 -0.3238
  156SAPE   C2217369   5.908   2.417  10.307 -0.2457  0.5621  0.4418
  156SAPE   H2R17370   5.839   2.331  10.322 -0.9678  1.3937  2.1658
  156SAPE   H2S17371   5.900   2.485  10.395  1.8627  1.7054 -0.1877
  156SAPE    C317372   6.261   2.109  10.239  0.1872 -0.3938  0.2691
  156SAPE    HX17373   6.203   2.015  10.225 -0.8689  0.5111 -1.7436
  156SAPE    HY17374   6.367   2.086  10.265 -0.2876 -2.4033  0.6201
  156SAPE   O3117375   6.266   2.182  10.113  0.7223  0.6099  0.3732
  156SAPE   C3117376   6.348   2.284  10.116  0.0173  0.2841  0.3104
  156SAPE   O3217377   6.424   2.317  10.202  0.1552 -0.8250 -0.3776
  156SAPE   C3217378   6.314   2.360   9.988  0.7446 -0.3619 -0.5463
  156SAPE   H2X17379   6.227   2.427  10.007  0.9283 -0.3133  0.1546
  156SAPE   H2Y17380   6.286   2.291   9.905 -1.0356 -1.1392  0.6425
  156SAPE   C2317381   5.859   2.492  10.179  0.1556  0.6999  0.3336
  156SAPE   H3R17382   5.750   2.485  10.200  0.1057  0.0919 -0.0934
  156SAPE   H3S17383   5.873   2.448  10.078  0.5653 -0.8069  1.0219
  156SAPE   C2417384   5.911   2.634  10.169  0.2198  0.1446 -0.0587
  156SAPE   H4R17385   5.904   2.677  10.271 -0.8019 -1.3996  0.5524
  156SAPE   H4S17386   5.848   2.703  10.109  1.3954  1.5305  0.2470
  156SAPE   C2517387   6.055   2.641  10.115 -0.4723 -0.2176  0.3170
  156SAPE   H5R17388   6.138   2.594  10.169  2.7361  2.0072 -2.2188
  156SAPE   C2617389   6.097   2.707  10.003  0.1094 -0.7802  0.4087
  156SAPE   H6R17390   6.202   2.699   9.971 -0.9674 -2.6966 -3.2530
  156SAPE   C2717391   6.006   2.785   9.902 -0.3182  0.2861 -0.4651
  156SAPE   H7R17392   5.992   2.891   9.932  1.6364  0.7454 -0.9847
  156SAPE   H7S17393   5.902   2.746   9.903 -1.0911  1.9557 -3.5904
  156SAPE   C2817394   6.061   2.771   9.761 -0.6031 -0.2219  0.3587
  156SAPE   H8R17395   6.120   2.678   9.753 -2.8368 -1.7325  0.6873
  156SAPE   C2917396   6.056   2.860   9.658 -0.3094 -0.1886 -0.5974
  156SAPE   H9R17397   6.118   2.845   9.568  1.0325  2.3074 -0.1875
  156SAPE  C21017398   5.992   3.000   9.665 -0.3234  0.7094  0.0941
  156SAPE  H10R17399   6.067   3.080   9.682  2.6649 -1.9078  0.2811
  156SAPE  H10S17400   5.927   3.008   9.754 -0.9840  0.8522 -0.3952
  156SAPE  C21117401   5.912   3.038   9.540  0.1790 -0.2128  0.1111
  156SAPE  H11R17402   5.806   3.011   9.554  0.2716 -0.3406  0.5979
  156SAPE  C21217403   5.957   3.085   9.425 -0.4772 -0.1927 -0.4068
  156SAPE  H12R17404   5.883   3.090   9.343  0.5034  1.5490 -1.2381
  156SAPE  C21317405   6.096   3.117   9.380 -0.1655 -0.0354  0.1975
  156SAPE  H13R17406   6.171   3.095   9.460 -1.2314  1.1616  1.5881
  156SAPE  H13S17407   6.100   3.223   9.346  1.2720 -0.1507 -0.0509
  156SAPE  C21417408   6.138   3.031   9.266  0.1919 -0.3449  0.0989
  156SAPE  H14R17409   6.112   2.926   9.284  0.6360 -0.2496  1.4216
  156SAPE  C21517410   6.179   3.062   9.143  1.0981 -0.7575  0.4417
  156SAPE  H15R17411   6.204   2.987   9.066  2.0114  0.0519 -0.0636
  156SAPE  C21617412   6.207   3.203   9.094 -0.0387  0.6367 -0.0532
  156SAPE  H16R17413   6.299   3.219   9.034  0.3110  1.3821  0.6531
  156SAPE  H16S17414   6.222   3.264   9.186  3.0844 -2.1406  1.4633
  156SAPE  C21717415   6.091   3.259   9.005 -0.3228  0.0237  0.4830
  156SAPE  H17R17416   6.003   3.252   9.073 -1.1194 -0.6795 -0.5999
  156SAPE  H17S17417   6.075   3.184   8.925  0.1310  0.1654  0.2552
  156SAPE  C21817418   6.128   3.393   8.943  0.4724 -0.7967 -0.5758
  156SAPE  H18R17419   6.107   3.383   8.834 -0.6203 -0.4850 -0.4060
  156SAPE  H18S17420   6.235   3.426   8.938 -0.1701  1.8788  1.1703
  156SAPE  C21917421   6.041   3.504   9.005 -0.3130  0.7231  0.2029
  156SAPE  H19R17422   6.079   3.516   9.109  1.2434 -2.1649  0.0765
  156SAPE  H19S17423   5.937   3.473   8.982 -0.1629 -0.9231  1.5330
  156SAPE  C22017424   6.066   3.642   8.941 -0.1870 -0.2150  0.5450
  156SAPE  H20R17425   6.168   3.678   8.964 -0.0285  0.6589 -1.2870
  156SAPE  H20S17426   5.996   3.724   8.971  3.7096  3.1551  1.2862
  156SAPE  H20T17427   6.072   3.629   8.830 -1.8377  0.2845  0.3713
  156SAPE   C3317428   6.438   2.450   9.953  0.4608  1.1984 -0.2810
  156SAPE   H3X17429   6.523   2.379   9.943  0.1843  0.4782  1.8664
  156SAPE   H3Y17430   6.474   2.513  10.037  0.7028  0.9611 -0.2044
  156SAPE   C3417431   6.421   2.528   9.820 -0.4480  0.2719 -0.3584
  156SAPE   H4X17432   6.343   2.604   9.841 -1.6841 -1.3855  1.4231
  156SAPE   H4Y17433   6.376   2.449   9.755  1.2768  0.8399 -2.3437
  156SAPE   C3517434   6.550   2.573   9.755  0.1810  0.3480  0.3334
  156SAPE   H5X17435   6.623   2.494   9.726  1.6256  1.0140  1.9955
  156SAPE   H5Y17436   6.615   2.632   9.822  0.9273 -0.2629  0.1601
  156SAPE   C3617437   6.525   2.670   9.627  0.3156 -0.4751 -0.1727
  156SAPE   H6X17438   6.614   2.734   9.615 -0.7524  1.0515 -0.2623
  156SAPE   H6Y17439   6.446   2.743   9.657 -1.4641 -1.9629 -1.0367
  156SAPE   C3717440   6.502   2.608   9.497 -0.0019 -0.5046 -0.4905
  156SAPE   H7X17441   6.395   2.579   9.483 -0.3193  0.9367 -1.1826
  156SAPE   H7Y17442   6.570   2.520   9.502  0.9614  0.3192  2.9332
  156SAPE   C3817443   6.533   2.711   9.378  0.1789  0.1314 -0.5450
  156SAPE   H8X17444   6.640   2.737   9.394  0.5170 -0.7699 -1.2370
  156SAPE   H8Y17445   6.475   2.802   9.405 -0.1493  0.5515 -2.5271
  156SAPE   C3917446   6.519   2.669   9.232 -0.3426  0.4499 -0.1688
  156SAPE   H9X17447   6.418   2.626   9.213  0.6629 -1.1001 -2.4508
  156SAPE   H9Y17448   6.608   2.602   9.223 -0.1960  0.7185 -0.7770
  156SAPE  C31017449   6.547   2.797   9.143 -0.2832 -0.6390  0.3798
  156SAPE  H10X17450   6.643   2.845   9.172 -0.4078  0.2681 -0.6721
  156SAPE  H10Y17451   6.460   2.861   9.172 -0.2926 -0.9052  0.9518
  156SAPE  C31117452   6.538   2.765   8.992  0.0136 -0.5460 -0.1343
  156SAPE  H11X17453   6.520   2.855   8.930  1.1697 -0.3320 -0.1775
  156SAPE  H11Y17454   6.451   2.697   8.978 -0.1381 -0.1459 -1.2022
  156SAPE  C31217455   6.670   2.692   8.958  0.1908 -0.1546 -0.1160
  156SAPE  H12X17456   6.683   2.592   9.006  2.3111 -0.8297 -1.9524
  156SAPE  H12Y17457   6.745   2.761   9.001 -1.2851  2.2819 -1.2768
  156SAPE  C31317458   6.682   2.677   8.805  0.2209 -0.0291 -0.3956
  156SAPE  H13X17459   6.690   2.783   8.772 -2.7846  0.4721  0.2027
  156SAPE  H13Y17460   6.589   2.633   8.763 -1.4822 -0.7192  3.6003
  156SAPE  C31417461   6.804   2.592   8.764 -0.2589 -0.8996 -0.4480
  156SAPE  H14X17462   6.776   2.486   8.786  1.8386 -1.5123 -0.5320
  156SAPE  H14Y17463   6.896   2.605   8.825  0.6001 -2.0938 -1.4361
  156SAPE  C31517464   6.843   2.611   8.613  0.2642 -0.3982 -0.6762
  156SAPE  H15X17465   6.874   2.717   8.610  1.6208 -0.5884  2.4198
  156SAPE  H15Y17466   6.756   2.584   8.549 -1.5012  0.5515  1.2037
  156SAPE  C31617467   6.967   2.529   8.577 -0.1873  0.0539 -0.2131
  156SAPE  H16X17468   6.945   2.428   8.618 -0.8803  0.4973  0.5290
  156SAPE  H16Y17469   7.054   2.567   8.634  0.5674 -1.2765 -0.4276
  156SAPE  C31717470   6.997   2.520   8.423  0.4192  0.3359 -0.2844
  156SAPE  H17X17471   7.097   2.567   8.408  0.0875  0.8690 -0.8431
  156SAPE  H17Y17472   6.917   2.572   8.367 -0.1319  0.9568  1.0153
  156SAPE  C31817473   6.996   2.386   8.352  0.2178 -0.2952 -0.0822
  156SAPE  H18X17474   7.016   2.394   8.243 -1.3643  0.4688 -0.3388
  156SAPE  H18Y17475   6.896   2.341   8.371  0.1131  0.6012  1.8618
  156SAPE  H18Z17476   7.070   2.321   8.404 -0.0920 -0.5061  0.1002
  157SAPE     N17477   6.178   2.567  10.623  0.2294 -0.2277 -0.2730
  157SAPE   HN117478   6.274   2.608  10.626 -0.1981  0.8767 -1.0104
  157SAPE   HN217479   6.193   2.467  10.645 -1.7963 -0.2772  1.1124
  157SAPE   HN317480   6.152   2.585  10.524 -0.7522 -0.1882 -0.0165
  157SAPE   C1217481   6.079   2.632  10.717  0.7551 -0.0921 -0.2327
  157SAPE  H12A17482   6.081   2.743  10.712 -4.1661  0.1818 -0.8831
  157SAPE  H12B17483   6.109   2.608  10.821  2.6521 -0.2692 -0.7811
  157SAPE   C1117484   5.923   2.601  10.701  0.1220  0.3853 -0.0230
  157SAPE  H11A17485   5.888   2.646  10.605  2.3834  0.8165 -0.7016
  157SAPE  H11B17486   5.865   2.656  10.777  0.3156 -0.2023  0.5600
  157SAPE     P17487   5.765   2.401  10.751 -0.1176 -0.2264  0.2060
  157SAPE   O1317488   5.764   2.256  10.735  0.4644 -0.0515  0.0598
  157SAPE   O1417489   5.734   2.453  10.885  0.0216 -0.5193  0.0747
  157SAPE   O1217490   5.906   2.461  10.697  0.4355 -0.7091 -0.1272
  157SAPE   O1117491   5.669   2.463  10.648  0.0297  0.0367 -0.0457
  157SAPE    C117492   5.609   2.390  10.539 -0.2841 -0.5880 -0.2393
  157SAPE    HA17493   5.687   2.352  10.470  0.1874  0.1173 -0.1040
  157SAPE    HB17494   5.551   2.305  10.582  0.7335 -1.6325 -0.8896
  157SAPE    C217495   5.520   2.484  10.458  0.1872 -0.2067  0.2949
  157SAPE    HS17496   5.427   2.511  10.513  0.9951  0.7943  1.1997
  157SAPE   O2117497   5.497   2.419  10.330  0.4029  0.1019 -0.4690
  157SAPE   C2117498   5.396   2.334  10.330  0.8898 -0.1304 -1.1964
  157SAPE   O2217499   5.319   2.318  10.427 -0.2587  0.0149  0.3782
  157SAPE   C2217500   5.383   2.269  10.195 -0.5864  0.5570 -0.1197
  157SAPE   H2R17501   5.468   2.202  10.169  1.2817  2.8412 -0.2361
  157SAPE   H2S17502   5.290   2.209  10.190 -0.7586  0.8493 -0.4290
  157SAPE    C317503   5.576   2.623  10.424 -0.5457  0.9065  0.2220
  157SAPE    HX17504   5.676   2.607  10.379 -1.4568 -0.6251 -1.3543
  157SAPE    HY17505   5.593   2.684  10.516  3.1616  0.8944 -0.3235
  157SAPE   O3117506   5.495   2.693  10.328  0.2705 -0.2379 -0.4083
  157SAPE   C3117507   5.540   2.816  10.295 -0.4590 -0.4419 -0.3453
  157SAPE   O3217508   5.637   2.868  10.346 -0.2742 -1.0889  0.1590
  157SAPE   C3217509   5.452   2.882  10.196  0.1431  0.2448  0.3824
  157SAPE   H2X17510   5.428   2.988  10.221 -0.1204  0.4656 -0.7244
  157SAPE   H2Y17511   5.356   2.826  10.189 -0.0652  0.6917 -0.6746
  157SAPE   C2317512   5.365   2.372  10.084 -0.6533 -0.5877  0.6652
  157SAPE   H3R17513   5.463   2.411  10.049 -2.1698  3.1131  0.1012
  157SAPE   H3S17514   5.308   2.464  10.109  1.0946  0.8071 -0.3133
  157SAPE   C2417515   5.296   2.306   9.963 -0.3713  1.1622 -0.7588
  157SAPE   H4R17516   5.342   2.205   9.957 -3.7476 -0.5214 -0.6103
  157SAPE   H4S17517   5.328   2.379   9.886  1.0967  1.8848  0.4753
  157SAPE   C2517518   5.151   2.268   9.963 -0.3164 -0.0325  0.3116
  157SAPE   H5R17519   5.119   2.234  10.063 -0.5864 -0.6452  0.0200
  157SAPE   C2617520   5.057   2.292   9.866 -0.3593  0.4490  0.3678
  157SAPE   H6R17521   4.954   2.255   9.872 -1.0405  1.7124 -2.1516
  157SAPE   C2717522   5.087   2.363   9.731 -0.2229  0.3302 -0.7456
  157SAPE   H7R17523   5.194   2.372   9.705 -0.1289  0.8745 -0.1966
  157SAPE   H7S17524   5.030   2.457   9.748 -1.5236 -0.7099  1.1196
  157SAPE   C2817525   5.026   2.283   9.618  0.2403 -0.2737 -0.5931
  157SAPE   H8R17526   5.058   2.180   9.597 -0.7795 -0.2910 -2.2369
  157SAPE   C2917527   4.930   2.319   9.541  0.2259 -0.1583  0.7684
  157SAPE   H9R17528   4.912   2.263   9.448  0.4978  0.5496  0.2797
  157SAPE  C21017529   4.852   2.449   9.532  0.1517 -0.2926 -1.1525
  157SAPE  H10R17530   4.915   2.517   9.471  2.1746  0.8314  1.9519
  157SAPE  H10S17531   4.836   2.505   9.627  0.7417 -2.1645  0.1252
  157SAPE  C21117532   4.715   2.424   9.470 -0.5651 -0.1310  0.0047
  157SAPE  H11R17533   4.664   2.333   9.503 -0.4019 -0.2138  0.0322
  157SAPE  C21217534   4.651   2.512   9.385  0.0185  0.6806  0.1139
  157SAPE  H12R17535   4.549   2.487   9.352  0.4602  0.5972 -1.2308
  157SAPE  C21317536   4.715   2.644   9.357  0.2031 -0.4031  0.3864
  157SAPE  H13R17537   4.786   2.653   9.272  0.5206  2.1664  0.8231
  157SAPE  H13S17538   4.776   2.685   9.441  0.4297  0.5169 -0.2125
  157SAPE  C21417539   4.606   2.741   9.348  0.4902  0.0905  0.2231
  157SAPE  H14R17540   4.576   2.806   9.432  0.8828  0.9805 -0.3016
  157SAPE  C21517541   4.542   2.773   9.234 -0.2016 -1.0091 -0.2423
  157SAPE  H15R17542   4.459   2.844   9.236  1.3905  0.9328 -0.0770
  157SAPE  C21617543   4.560   2.714   9.094 -0.0382 -0.0853 -0.4567
  157SAPE  H16R17544   4.463   2.723   9.042  0.1373  1.2623 -0.5839
  157SAPE  H16S17545   4.581   2.605   9.099  1.5359  0.1968 -0.2648
  157SAPE  C21717546   4.668   2.788   9.011 -0.3904  0.5461 -0.3981
  157SAPE  H17R17547   4.757   2.794   9.076 -0.8039  3.2558  0.0335
  157SAPE  H17S17548   4.637   2.889   8.976 -1.0991  0.4852  0.0362
  157SAPE  C21817549   4.710   2.715   8.879 -0.3519  0.5494  0.3062
  157SAPE  H18R17550   4.752   2.615   8.904  2.4115  1.3499 -0.7634
  157SAPE  H18S17551   4.802   2.765   8.840  0.4200 -1.2268 -0.2537
  157SAPE  C21917552   4.605   2.727   8.761 -0.5098 -0.0437  0.3394
  157SAPE  H19R17553   4.589   2.833   8.732 -2.4913 -0.6472 -0.9451
  157SAPE  H19S17554   4.507   2.707   8.810  0.4035  0.4788  2.5393
  157SAPE  C22017555   4.644   2.654   8.628  0.1012  0.4234 -0.7300
  157SAPE  H20R17556   4.740   2.686   8.581  0.1622  0.6168 -0.4772
  157SAPE  H20S17557   4.563   2.658   8.551  0.3693 -0.7464 -1.0862
  157SAPE  H20T17558   4.660   2.547   8.651  1.3054  0.5478 -0.9492
  157SAPE   C3317559   5.523   2.867  10.055  0.7601 -0.1215  0.5256
  157SAPE   H3X17560   5.629   2.900  10.052  0.6844  0.1324  0.5949
  157SAPE   H3Y17561   5.473   2.945   9.994  0.9361  1.3480  2.1751
  157SAPE   C3417562   5.500   2.734   9.982  0.0302  0.5901  0.2038
  157SAPE   H4X17563   5.393   2.723   9.953  0.2074  0.7683 -0.5395
  157SAPE   H4Y17564   5.524   2.647  10.048  0.8493  1.9933  1.8417
  157SAPE   C3517565   5.569   2.734   9.846  0.4543  0.4201  0.0037
  157SAPE   H5X17566   5.678   2.736   9.865  0.1808  3.0544  1.9191
  157SAPE   H5Y17567   5.545   2.829   9.793 -1.8522 -1.1484 -2.0084
  157SAPE   C3617568   5.534   2.604   9.760  0.1876 -0.5184 -0.1407
  157SAPE   H6X17569   5.426   2.604   9.735  0.1630 -0.5106 -0.0343
  157SAPE   H6Y17570   5.565   2.509   9.809  1.3027  0.2660  0.7290
  157SAPE   C3717571   5.613   2.608   9.632 -0.3907  0.1954  0.1270
  157SAPE   H7X17572   5.723   2.608   9.653 -0.2000  1.1907 -0.8027
  157SAPE   H7Y17573   5.594   2.698   9.570  0.4959  1.0552  1.0684
  157SAPE   C3817574   5.592   2.492   9.539  0.5316  0.4372  0.3789
  157SAPE   H8X17575   5.484   2.481   9.515  0.7047 -0.1893 -0.1747
  157SAPE   H8Y17576   5.613   2.396   9.593 -0.7657 -0.4591 -0.6339
  157SAPE   C3917577   5.673   2.501   9.399 -1.0676  0.6867 -0.8651
  157SAPE   H9X17578   5.780   2.496   9.427 -1.1456  2.1764 -0.2089
  157SAPE   H9Y17579   5.658   2.602   9.355  0.0145  1.7942  1.1643
  157SAPE  C31017580   5.641   2.389   9.305  0.4795 -0.4546  0.2565
  157SAPE  H10X17581   5.530   2.386   9.302  0.3512 -0.4961  2.9364
  157SAPE  H10Y17582   5.667   2.294   9.356 -0.5057  0.5560  2.8256
  157SAPE  C31117583   5.709   2.404   9.170  0.2470  0.4044  0.5449
  157SAPE  H11X17584   5.819   2.405   9.185  0.3436 -0.8352  0.0499
  157SAPE  H11Y17585   5.679   2.500   9.123 -0.4464  1.6713  3.3519
  157SAPE  C31217586   5.681   2.288   9.073  0.2252 -0.4909  0.2622
  157SAPE  H12X17587   5.709   2.189   9.117  0.9113 -0.1967  0.5041
  157SAPE  H12Y17588   5.756   2.303   8.992  0.0693  0.1688  0.2379
  157SAPE  C31317589   5.547   2.276   9.008  0.5258  0.1193 -0.7156
  157SAPE  H13X17590   5.489   2.370   9.003 -1.4282 -0.9047  1.3039
  157SAPE  H13Y17591   5.491   2.208   9.076  0.1510  1.2181  0.1033
  157SAPE  C31417592   5.543   2.215   8.867 -0.1793  0.3298 -0.5454
  157SAPE  H14X17593   5.606   2.124   8.853  1.1861  1.2737 -0.8200
  157SAPE  H14Y17594   5.591   2.282   8.792 -1.8598  1.3736 -0.7341
  157SAPE  C31517595   5.399   2.189   8.830 -0.6272  0.7193  0.6628
  157SAPE  H15X17596   5.346   2.279   8.794 -2.1841 -0.8497 -1.1807
  157SAPE  H15Y17597   5.350   2.156   8.924  0.2823 -0.8127  0.6491
  157SAPE  C31617598   5.391   2.066   8.737 -0.0260 -0.8701  0.1263
  157SAPE  H16X17599   5.282   2.046   8.741 -0.3509  0.9680  1.5489
  157SAPE  H16Y17600   5.455   1.986   8.781  2.0450  1.6176  1.9331
  157SAPE  C31717601   5.436   2.089   8.592  0.1114 -0.8193 -0.7066
  157SAPE  H17X17602   5.546   2.102   8.581  0.2642 -2.4041 -1.4117
  157SAPE  H17Y17603   5.379   2.176   8.555 -1.2547 -0.3848  2.1654
  157SAPE  C31817604   5.410   1.967   8.508  0.6125 -0.6161  0.3652
  157SAPE  H18X17605   5.301   1.953   8.489  0.9580  0.6482 -3.4428
  157SAPE  H18Y17606   5.448   1.873   8.553 -0.1780 -1.7322 -1.1857
  157SAPE  H18Z17607   5.464   1.967   8.411  2.6496 -1.1983  1.4569
  158SAPE     N17608   6.134   1.483  10.947  0.5025 -0.7313 -0.1520
  158SAPE   HN117609   6.224   1.524  10.913 -0.3998  0.2132 -1.4997
  158SAPE   HN217610   6.099   1.517  11.039 -0.7270  3.1516 -1.8286
  158SAPE   HN317611   6.140   1.379  10.950 -0.8680 -0.8085  0.5795
  158SAPE   C1217612   6.040   1.506  10.832  0.6587 -0.2129  0.5211
  158SAPE  H12A17613   5.993   1.606  10.840  0.0521 -0.0770 -2.9523
  158SAPE  H12B17614   5.965   1.425  10.825 -1.2774  1.3982  1.6992
  158SAPE   C1117615   6.107   1.495  10.698 -0.4835  0.0773  0.6818
  158SAPE  H11A17616   6.035   1.508  10.614  1.1828 -0.3053 -0.8644
  158SAPE  H11B17617   6.141   1.390  10.690 -2.4922 -0.6426  0.9949
  158SAPE     P17618   6.311   1.582  10.550 -0.3250  0.4417 -0.0539
  158SAPE   O1317619   6.393   1.701  10.561 -0.6298 -0.2962  0.1156
  158SAPE   O1417620   6.376   1.448  10.540  0.9432  0.3276 -0.0014
  158SAPE   O1217621   6.220   1.580  10.682  0.0544  0.3453 -0.0488
  158SAPE   O1117622   6.217   1.593  10.425 -0.6187 -0.6400 -1.0553
  158SAPE    C117623   6.133   1.712  10.417  0.0929  0.4286 -0.5914
  158SAPE    HA17624   6.096   1.744  10.517 -0.4770  0.5545 -0.8426
  158SAPE    HB17625   6.190   1.796  10.372 -0.9516  1.2287 -0.4335
  158SAPE    C217626   6.008   1.684  10.330 -0.3394  0.2640  0.7800
  158SAPE    HS17627   5.955   1.598  10.376 -1.1695 -0.2158 -0.9977
  158SAPE   O2117628   6.059   1.644  10.201  0.8670  0.8128  0.0081
  158SAPE   C2117629   5.963   1.579  10.131  0.2773 -0.6387 -0.3081
  158SAPE   O2217630   5.850   1.552  10.169 -0.7907 -0.2548  0.3295
  158SAPE   C2217631   6.018   1.531  10.000  0.0109 -0.1787  0.6896
  158SAPE   H2R17632   6.120   1.486  10.000 -0.4196 -1.2499 -1.1278
  158SAPE   H2S17633   5.957   1.445   9.965  0.4154 -1.2307  2.4303
  158SAPE    C317634   5.906   1.802  10.321 -0.3079  0.0551 -0.3138
  158SAPE    HX17635   5.902   1.838  10.426  1.9940 -1.1152  0.2478
  158SAPE    HY17636   5.805   1.769  10.288 -0.8204  2.1975 -1.0501
  158SAPE   O3117637   5.952   1.912  10.234  0.1276 -0.0384 -0.1526
  158SAPE   C3117638   5.858   1.978  10.173 -0.0658  0.4256  0.6057
  158SAPE   O3217639   5.741   1.988  10.208 -0.8916 -0.0820  0.6694
  158SAPE   C3217640   5.922   2.059  10.063 -0.2356 -0.4765  0.2988
  158SAPE   H2X17641   6.032   2.066  10.078 -0.0183 -0.9558 -1.0237
  158SAPE   H2Y17642   5.893   2.165  10.082 -2.4126 -0.8696 -0.5311
  158SAPE   C2317643   6.023   1.654   9.908 -0.8875  0.4975 -0.0599
  158SAPE   H3R17644   6.070   1.739   9.962 -0.3340  0.6785 -0.8176
  158SAPE   H3S17645   5.916   1.675   9.890 -0.5114  0.6672 -2.4077
  158SAPE   C2417646   6.101   1.629   9.774 -0.0590  0.3093  0.4573
  158SAPE   H4R17647   6.054   1.553   9.708  0.8100  0.1961 -0.0418
  158SAPE   H4S17648   6.200   1.592   9.806 -0.7975 -1.6863  0.5904
  158SAPE   C2517649   6.083   1.764   9.711  0.1249  0.7264 -0.2275
  158SAPE   H5R17650   6.141   1.844   9.760  0.6820  0.2049 -0.0360
  158SAPE   C2617651   6.035   1.791   9.589 -0.1990 -0.3663 -0.5383
  158SAPE   H6R17652   6.054   1.893   9.551 -1.5364  0.5060  1.0132
  158SAPE   C2717653   5.975   1.696   9.490 -0.1587  0.2160  0.7011
  158SAPE   H7R17654   5.953   1.592   9.522 -0.6401 -0.4679 -1.6062
  158SAPE   H7S17655   6.061   1.678   9.422  0.1208  0.1905  1.0616
  158SAPE   C2817656   5.854   1.749   9.414 -1.0011 -0.0478  0.0824
  158SAPE   H8R17657   5.764   1.691   9.439  0.2991 -1.5400  1.5696
  158SAPE   C2917658   5.848   1.857   9.328 -0.5439  0.2578 -0.1979
  158SAPE   H9R17659   5.754   1.891   9.284 -0.4548 -0.7910 -1.2676
  158SAPE  C21017660   5.966   1.945   9.298 -0.8520  0.1107  0.2202
  158SAPE  H10R17661   6.060   1.887   9.293 -1.6216 -1.1320 -0.1948
  158SAPE  H10S17662   5.981   2.019   9.379 -2.0243 -0.5421  1.0740
  158SAPE  C21117663   5.963   2.024   9.172  0.0791 -0.4612 -0.3620
  158SAPE  H11R17664   5.980   2.131   9.191  0.3265 -0.4392 -0.7133
  158SAPE  C21217665   5.965   1.993   9.039 -0.2573  0.1123  0.3660
  158SAPE  H12R17666   5.945   2.068   8.961  0.9557  0.9617  0.8294
  158SAPE  C21317667   5.965   1.857   8.986 -0.0344 -0.5488  0.0409
  158SAPE  H13R17668   6.006   1.782   9.057 -0.1343 -1.3575 -0.7430
  158SAPE  H13S17669   6.028   1.845   8.895 -3.0295 -3.2868 -1.9261
  158SAPE  C21417670   5.824   1.821   8.945 -0.6327 -0.4792 -0.0440
  158SAPE  H14R17671   5.772   1.772   9.028 -2.9669  0.1989 -1.0188
  158SAPE  C21517672   5.756   1.837   8.830  0.3099  0.1408 -0.1301
  158SAPE  H15R17673   5.649   1.813   8.833  0.3011  0.2725  0.9794
  158SAPE  C21617674   5.801   1.904   8.697  0.8382  0.3197 -0.1915
  158SAPE  H16R17675   5.906   1.940   8.704  0.2294  2.0670  0.2953
  158SAPE  H16S17676   5.743   1.997   8.677 -0.2655 -0.2118  0.4452
  158SAPE  C21717677   5.781   1.805   8.577 -0.9068  0.2899 -0.5404
  158SAPE  H17R17678   5.678   1.771   8.550 -0.0777 -1.3164 -1.8772
  158SAPE  H17S17679   5.833   1.711   8.605 -1.7311 -0.1978 -0.5976
  158SAPE  C21817680   5.847   1.867   8.456 -0.2215 -0.4415  0.5587
  158SAPE  H18R17681   5.824   1.975   8.450 -1.8901 -0.6952  1.7579
  158SAPE  H18S17682   5.811   1.824   8.359 -0.3498 -0.2101  0.5047
  158SAPE  C21917683   6.001   1.855   8.456 -0.1890  0.3909 -0.3196
  158SAPE  H19R17684   6.026   1.747   8.456 -0.3287  0.3205 -2.2045
  158SAPE  H19S17685   6.032   1.892   8.556  0.4467 -1.9721  0.4299
  158SAPE  C22017686   6.079   1.912   8.341 -0.4009 -1.0200  1.1312
  158SAPE  H20R17687   6.021   1.907   8.246  0.7430 -1.5150  0.4301
  158SAPE  H20S17688   6.173   1.853   8.336  1.8457  2.2568  1.5363
  158SAPE  H20T17689   6.103   2.019   8.354 -0.8238  0.0604 -4.3420
  158SAPE   C3317690   5.866   2.036   9.920  0.0868  0.7679 -0.4944
  158SAPE   H3X17691   5.761   2.072   9.926 -0.0621  0.0994  2.1450
  158SAPE   H3Y17692   5.864   1.930   9.886  1.6100  1.4913 -3.0926
  158SAPE   C3417693   5.934   2.114   9.815 -0.5250  0.1922  0.7366
  158SAPE   H4X17694   5.900   2.068   9.720 -0.2110 -0.2204  0.8246
  158SAPE   H4Y17695   6.039   2.081   9.827 -1.2041 -1.8910  1.2554
  158SAPE   C3517696   5.926   2.270   9.805 -0.0568  0.2157  0.5075
  158SAPE   H5X17697   5.982   2.320   9.887 -0.4025  1.9630 -0.2611
  158SAPE   H5Y17698   5.818   2.287   9.822 -0.3324 -0.7675 -0.1844
  158SAPE   C3617699   5.970   2.331   9.673 -0.0191 -0.2488  0.3843
  158SAPE   H6X17700   5.969   2.441   9.692  0.6378 -0.1477 -0.1209
  158SAPE   H6Y17701   5.901   2.313   9.588 -0.8590 -1.0137  1.2122
  158SAPE   C3717702   6.121   2.299   9.646  0.0577 -0.5810  0.4173
  158SAPE   H7X17703   6.121   2.194   9.609 -0.1269 -0.0479 -1.1728
  158SAPE   H7Y17704   6.182   2.297   9.740 -2.9180 -4.0469  2.5342
  158SAPE   C3817705   6.182   2.399   9.554  0.2246  0.5349 -0.7002
  158SAPE   H8X17706   6.289   2.380   9.534  0.2805  1.8243 -1.8011
  158SAPE   H8Y17707   6.171   2.499   9.601  0.3278 -0.5743  1.8462
  158SAPE   C3917708   6.114   2.407   9.414  0.4699  0.6932  0.3128
  158SAPE   H9X17709   6.009   2.439   9.424 -0.3784 -1.5201 -0.8148
  158SAPE   H9Y17710   6.115   2.308   9.362 -1.6630  0.5867  0.3953
  158SAPE  C31017711   6.188   2.498   9.312 -0.1043  0.6340  0.3264
  158SAPE  H10X17712   6.287   2.461   9.280 -1.0947  0.5479 -3.0432
  158SAPE  H10Y17713   6.195   2.593   9.369  0.9941  1.8167 -1.6649
  158SAPE  C31117714   6.102   2.526   9.186  0.6299 -0.3780 -0.3061
  158SAPE  H11X17715   5.999   2.541   9.224  0.4440  1.3817 -1.3827
  158SAPE  H11Y17716   6.103   2.428   9.135 -0.6441  1.0295 -3.2907
  158SAPE  C31217717   6.143   2.644   9.099  0.1492  0.3122 -0.7057
  158SAPE  H12X17718   6.239   2.611   9.055 -1.3475  0.1699 -4.1675
  158SAPE  H12Y17719   6.158   2.735   9.161  0.2399  1.3415 -2.1963
  158SAPE  C31317720   6.054   2.677   8.977 -0.6719 -0.1517 -0.6722
  158SAPE  H13X17721   6.112   2.717   8.890 -1.4131 -2.0146 -2.0895
  158SAPE  H13Y17722   5.980   2.752   9.011 -1.1318  0.0719 -2.0946
  158SAPE  C31417723   5.987   2.555   8.917  0.1450 -0.1004 -0.6120
  158SAPE  H14X17724   5.909   2.503   8.976 -2.2315  2.4475 -1.3026
  158SAPE  H14Y17725   6.062   2.476   8.898  1.3417  0.8904 -0.1094
  158SAPE  C31517726   5.919   2.583   8.774 -0.4166  0.4607 -0.8886
  158SAPE  H15X17727   5.995   2.615   8.700  2.0781 -1.3897  0.6969
  158SAPE  H15Y17728   5.832   2.652   8.780 -0.9324 -0.2959  1.8147
  158SAPE  C31617729   5.872   2.448   8.710 -0.2438  0.5918  0.6403
  158SAPE  H16X17730   5.826   2.462   8.609 -2.3556 -1.5454  1.1937
  158SAPE  H16Y17731   5.792   2.401   8.771 -0.9099 -1.1960 -1.4696
  158SAPE  C31717732   5.988   2.352   8.689  0.3145  0.4446 -0.3817
  158SAPE  H17X17733   6.036   2.326   8.786 -2.2608  1.3170  1.2164
  158SAPE  H17Y17734   6.053   2.398   8.611 -1.5938  0.3003 -2.1372
  158SAPE  C31817735   5.946   2.211   8.633 -0.0002  0.9490 -0.1483
  158SAPE  H18X17736   5.903   2.154   8.718  0.4979  0.5938 -0.1351
  158SAPE  H18Y17737   6.048   2.172   8.612  0.1719  0.8557  0.7889
  158SAPE  H18Z17738   5.878   2.214   8.545 -0.6354  0.1407  0.3061
  159SAPE     N17739   0.612   6.656   6.263  0.2308  0.4514 -0.1377
  159SAPE   HN117740   0.612   6.570   6.322 -0.7000  1.1694  0.9465
  159SAPE   HN217741   0.525   6.661   6.207  1.1121 -0.3869 -1.6401
  159SAPE   HN317742   0.687   6.654   6.192 -0.4414 -2.2064 -0.9090
  159SAPE   C1217743   0.629   6.781   6.343  0.6554  0.0128  0.4294
  159SAPE  H12A17744   0.543   6.804   6.409  0.3967  0.5674 -0.0964
  159SAPE  H12B17745   0.637   6.866   6.272 -0.6914  0.3528  0.6722
  159SAPE   C1117746   0.762   6.776   6.423 -0.4753 -0.2335 -0.0797
  159SAPE  H11A17747   0.766   6.680   6.478 -1.1578 -0.7356 -0.8728
  159SAPE  H11B17748   0.756   6.852   6.504 -0.1623 -1.7340  1.3955
  159SAPE     P17749   0.997   6.685   6.344 -0.0315 -0.1861  0.1346
  159SAPE   O1317750   0.954   6.557   6.279  0.2349  0.0309 -0.4847
  159SAPE   O1417751   1.113   6.760   6.291  0.2598  0.1487  0.0291
  159SAPE   O1217752   0.877   6.786   6.336 -0.2961 -0.0692  0.2200
  159SAPE   O1117753   1.007   6.663   6.499  1.0300  0.5945 -0.4278
  159SAPE    C117754   1.061   6.749   6.602  0.2344 -0.2659 -0.0368
  159SAPE    HA17755   1.158   6.787   6.562  1.0474 -1.4646  0.7579
  159SAPE    HB17756   0.991   6.833   6.619 -1.0569 -1.3976  0.4329
  159SAPE    C217757   1.084   6.671   6.733  0.1743  0.4180  0.3375
  159SAPE    HS17758   1.124   6.743   6.808  0.2926 -1.3962  2.1295
  159SAPE   O2117759   1.171   6.558   6.720 -0.0006  0.4927  0.0011
  159SAPE   C2117760   1.297   6.579   6.690 -0.2508 -0.0522  0.0508
  159SAPE   O2217761   1.341   6.697   6.683 -0.0707 -0.4442 -0.6907
  159SAPE   C2217762   1.368   6.456   6.675 -0.3232 -0.5795  0.1818
  159SAPE   H2R17763   1.341   6.379   6.750 -1.2461 -0.2966  0.1519
  159SAPE   H2S17764   1.346   6.406   6.578  0.2298 -1.9555  0.7402
  159SAPE    C317765   0.944   6.631   6.789  0.2014  0.3249  0.4082
  159SAPE    HX17766   0.907   6.562   6.710 -2.3621  1.0706  0.8683
  159SAPE    HY17767   0.883   6.724   6.788  0.7862  0.7185  0.5906
  159SAPE   O3117768   0.957   6.574   6.915  0.5908 -0.8451  0.0280
  159SAPE   C3117769   0.847   6.516   6.956  0.3303  0.3902  0.4479
  159SAPE   O3217770   0.740   6.510   6.898  0.2211  1.2559  0.3199
  159SAPE   C3217771   0.874   6.458   7.099  0.0733 -1.0632 -0.4650
  159SAPE   H2X17772   0.928   6.534   7.159  0.9673 -0.1031 -2.3974
  159SAPE   H2Y17773   0.951   6.379   7.088  2.0119  0.8003 -0.8123
  159SAPE   C2317774   1.532   6.471   6.669  0.4920 -1.0119 -0.5389
  159SAPE   H3R17775   1.547   6.578   6.645 -0.7829 -0.9753 -1.3174
  159SAPE   H3S17776   1.561   6.414   6.578 -0.0446 -0.3307 -1.1592
  159SAPE   C2417777   1.607   6.436   6.793 -0.0602  0.2325 -0.0019
  159SAPE   H4R17778   1.708   6.396   6.770 -0.4690 -1.1307  0.4461
  159SAPE   H4S17779   1.560   6.348   6.843  1.3719 -0.1133  0.7971
  159SAPE   C2517780   1.621   6.544   6.897 -0.0930  0.0223  0.6297
  159SAPE   H5R17781   1.538   6.617   6.895  0.2246  0.3770 -1.0318
  159SAPE   C2617782   1.712   6.547   6.992  0.6591 -0.3807  0.4431
  159SAPE   H6R17783   1.699   6.632   7.061  2.1391 -0.0947  0.4111
  159SAPE   C2717784   1.817   6.445   7.013 -0.3167 -0.1421  0.5190
  159SAPE   H7R17785   1.901   6.513   7.040  0.3345 -0.9408  0.5255
  159SAPE   H7S17786   1.849   6.390   6.922  2.6387 -1.1183  2.0106
  159SAPE   C2817787   1.775   6.350   7.117  0.1252  0.1805 -0.6862
  159SAPE   H8R17788   1.669   6.319   7.109 -0.2885  1.7579 -1.7499
  159SAPE   C2917789   1.839   6.286   7.220  0.5997 -0.2145  0.0609
  159SAPE   H9R17790   1.786   6.215   7.284 -0.0750 -0.1514 -0.4157
  159SAPE  C21017791   1.986   6.299   7.242 -0.7708 -0.2449 -0.3438
  159SAPE  H10R17792   2.029   6.398   7.218  0.4728 -0.7922 -0.4464
  159SAPE  H10S17793   2.035   6.235   7.166 -0.8765  0.6068 -1.1391
  159SAPE  C21117794   2.034   6.279   7.381  0.1921  0.3724 -1.1371
  159SAPE  H11R17795   1.958   6.317   7.451  1.8569 -0.6485  1.3693
  159SAPE  C21217796   2.144   6.219   7.441 -0.6327  0.4297  0.0206
  159SAPE  H12R17797   2.153   6.227   7.550  2.0662  1.8914 -0.2290
  159SAPE  C21317798   2.266   6.158   7.375 -0.1406  0.5258 -0.1522
  159SAPE  H13R17799   2.259   6.166   7.265 -0.3205  1.9257 -0.0579
  159SAPE  H13S17800   2.262   6.050   7.403 -0.7499  0.4922 -0.3557
  159SAPE  C21417801   2.407   6.200   7.408  0.6250 -0.1961 -0.5041
  159SAPE  H14R17802   2.461   6.233   7.318  0.0898  0.9601 -0.4247
  159SAPE  C21517803   2.474   6.176   7.515 -0.2647 -0.4929 -0.0023
  159SAPE  H15R17804   2.579   6.202   7.533 -0.2296 -0.4131 -0.3205
  159SAPE  C21617805   2.421   6.099   7.631  0.1976 -0.2609  0.5436
  159SAPE  H16R17806   2.492   6.015   7.649  1.3486  0.8806  1.5259
  159SAPE  H16S17807   2.321   6.053   7.616  0.4555 -0.7060  0.1780
  159SAPE  C21717808   2.423   6.172   7.765 -0.0166 -0.3525 -0.2058
  159SAPE  H17R17809   2.347   6.253   7.769  1.5384  1.1041  1.2626
  159SAPE  H17S17810   2.513   6.236   7.779  1.3121 -2.5231  1.8174
  159SAPE  C21817811   2.417   6.077   7.887  0.4125 -0.0456 -0.1872
  159SAPE  H18R17812   2.487   5.991   7.878 -2.4307 -2.4828 -0.3243
  159SAPE  H18S17813   2.317   6.029   7.884 -0.0503  0.8807 -0.1914
  159SAPE  C21917814   2.422   6.149   8.025 -0.1253  0.2432 -0.1685
  159SAPE  H19R17815   2.339   6.221   8.044 -0.8342 -0.6785  0.2970
  159SAPE  H19S17816   2.504   6.224   8.018 -0.2076  0.4684  0.9662
  159SAPE  C22017817   2.437   6.054   8.139  0.4968 -0.1555  0.8337
  159SAPE  H20R17818   2.361   5.974   8.131  0.0174  0.3324  0.4171
  159SAPE  H20S17819   2.432   6.103   8.239 -2.9109 -0.9107  1.1491
  159SAPE  H20T17820   2.527   5.994   8.115  0.6484  1.2874 -2.7480
  159SAPE   C3317821   0.748   6.399   7.166 -0.1398 -0.0813 -0.8219
  159SAPE   H3X17822   0.707   6.317   7.102  3.8929 -2.5004 -0.6363
  159SAPE   H3Y17823   0.666   6.473   7.175 -0.9576 -0.9713 -0.6655
  159SAPE   C3417824   0.774   6.368   7.309  0.1706 -0.9076  0.2287
  159SAPE   H4X17825   0.841   6.441   7.360 -1.5141 -1.3072  3.2940
  159SAPE   H4Y17826   0.836   6.276   7.307  0.9254 -0.4184  0.6413
  159SAPE   C3517827   0.641   6.349   7.387 -0.5071 -0.6317  0.3140
  159SAPE   H5X17828   0.566   6.297   7.323 -1.2542 -1.5129  1.8646
  159SAPE   H5Y17829   0.597   6.448   7.416  1.6663  2.0645 -4.3828
  159SAPE   C3617830   0.666   6.263   7.515  0.0131 -0.2493  0.0503
  159SAPE   H6X17831   0.719   6.171   7.484 -2.7909 -2.2788  0.8325
  159SAPE   H6Y17832   0.564   6.236   7.550  1.4902 -3.6281  2.2784
  159SAPE   C3717833   0.746   6.335   7.622  0.6956  0.7289 -0.0609
  159SAPE   H7X17834   0.699   6.434   7.635  1.5483  0.8806  2.5044
  159SAPE   H7Y17835   0.856   6.346   7.609  0.9660  1.0980  2.1972
  159SAPE   C3817836   0.736   6.280   7.763 -0.2007  0.8403 -0.7044
  159SAPE   H8X17837   0.799   6.190   7.779 -0.8466  0.7349  1.6029
  159SAPE   H8Y17838   0.631   6.253   7.790  0.7110 -0.3797  2.0249
  159SAPE   C3917839   0.781   6.375   7.882  0.1865 -0.1479  0.1619
  159SAPE   H9X17840   0.711   6.461   7.885  0.5113  0.1049  0.5792
  159SAPE   H9Y17841   0.880   6.415   7.850  0.3964 -1.5216 -1.0001
  159SAPE  C31017842   0.793   6.306   8.025  0.1663  0.5475  0.2854
  159SAPE  H10X17843   0.835   6.383   8.094  1.0065 -0.1802  0.6103
  159SAPE  H10Y17844   0.862   6.220   8.013 -0.6636 -0.1469  0.4085
  159SAPE  C31117845   0.650   6.269   8.076  0.5368  0.7704 -0.4353
  159SAPE  H11X17846   0.597   6.198   8.009 -1.6575 -0.2689  2.2011
  159SAPE  H11Y17847   0.607   6.372   8.077  1.9339  1.3802  1.2148
  159SAPE  C31217848   0.656   6.199   8.214  0.0533 -0.2182  0.0840
  159SAPE  H12X17849   0.557   6.207   8.263  0.1160  1.2826  0.0243
  159SAPE  H12Y17850   0.722   6.259   8.281 -1.0199  1.3175 -0.1787
  159SAPE  C31317851   0.701   6.053   8.206 -0.3673  0.0485 -0.5910
  159SAPE  H13X17852   0.805   6.043   8.167  0.3481 -0.9981  1.4496
  159SAPE  H13Y17853   0.630   5.993   8.145  0.5317 -0.9491 -0.6756
  159SAPE  C31417854   0.705   5.984   8.347  0.3830  0.1285  0.2223
  159SAPE  H14X17855   0.602   5.997   8.386  0.1807  1.1914 -0.6151
  159SAPE  H14Y17856   0.768   6.046   8.415 -1.2457  1.1726  0.8274
  159SAPE  C31517857   0.759   5.840   8.341  0.0678 -0.1992  0.0480
  159SAPE  H15X17858   0.689   5.789   8.271 -0.8686  1.2839 -0.1488
  159SAPE  H15Y17859   0.738   5.798   8.442 -1.3229  0.6029  0.1166
  159SAPE  C31617860   0.909   5.836   8.313 -0.1906  0.1160  0.2216
  159SAPE  H16X17861   0.961   5.925   8.355 -0.9065 -0.7749  3.2702
  159SAPE  H16Y17862   0.936   5.842   8.206 -0.1678  3.4846  0.3031
  159SAPE  C31717863   0.984   5.705   8.367  0.3842  0.4055  0.2438
  159SAPE  H17X17864   0.947   5.617   8.311  1.2910  0.9374 -1.2690
  159SAPE  H17Y17865   0.961   5.689   8.475 -3.5850  0.7705 -0.3791
  159SAPE  C31817866   1.136   5.695   8.354  0.1890  0.1451  0.4755
  159SAPE  H18X17867   1.181   5.772   8.421  1.9979 -1.6421  1.4287
  159SAPE  H18Y17868   1.169   5.713   8.249  0.6217  0.5220  0.6748
  159SAPE  H18Z17869   1.180   5.606   8.404  0.3197  0.1426  0.3589
  160SAPE     N17870   0.600   0.910   6.153 -0.3838  0.7830  0.4920
  160SAPE   HN117871   0.611   0.837   6.080 -2.2404  1.0109 -0.0595
  160SAPE   HN217872   0.564   0.997   6.109 -0.8776  0.5990  0.5268
  160SAPE   HN317873   0.692   0.927   6.199  0.1206 -1.1120  0.2479
  160SAPE   C1217874   0.499   0.870   6.260  0.3363  0.1413  0.1819
  160SAPE  H12A17875   0.523   0.763   6.281  1.6707 -0.2532 -2.7183
  160SAPE  H12B17876   0.398   0.889   6.217  0.3558  0.0566  0.0963
  160SAPE   C1117877   0.502   0.975   6.375  0.5968  0.4049  0.2977
  160SAPE  H11A17878   0.597   0.962   6.431 -0.0504  0.3313  1.4152
  160SAPE  H11B17879   0.419   0.952   6.445 -0.8470  3.0811 -0.4148
  160SAPE     P17880   0.366   1.190   6.344  0.2235  0.2110  0.3437
  160SAPE   O1317881   0.357   1.312   6.264 -0.3540  0.3052  0.6665
  160SAPE   O1417882   0.248   1.108   6.326  0.1195  0.3832  0.0916
  160SAPE   O1217883   0.491   1.106   6.316 -0.6346  0.2550  0.0142
  160SAPE   O1117884   0.362   1.224   6.497  0.0289  0.3856 -0.1548
  160SAPE    C117885   0.474   1.297   6.549 -0.2551  0.4950  0.0142
  160SAPE    HA17886   0.568   1.264   6.500 -0.2083 -0.6408  0.8364
  160SAPE    HB17887   0.467   1.407   6.534  4.1316  1.1412  1.3948
  160SAPE    C217888   0.492   1.272   6.704  0.9414  0.6535 -0.2468
  160SAPE    HS17889   0.487   1.164   6.726  0.9507  1.0997  2.2971
  160SAPE   O2117890   0.392   1.357   6.776  0.5029  0.7708 -0.2885
  160SAPE   C2117891   0.323   1.297   6.866  0.3526  0.0467 -0.3805
  160SAPE   O2217892   0.333   1.178   6.899 -0.0151  0.1640  0.4320
  160SAPE   C2217893   0.225   1.392   6.937 -0.2559  0.2373 -0.1038
  160SAPE   H2R17894   0.290   1.473   6.976 -1.1343  0.2023  1.5072
  160SAPE   H2S17895   0.157   1.443   6.865 -1.2806 -0.9828 -0.0315
  160SAPE    C317896   0.634   1.323   6.742  0.2229 -0.3886  0.0715
  160SAPE    HX17897   0.633   1.432   6.720 -1.9797 -0.2552  0.6183
  160SAPE    HY17898   0.705   1.282   6.666 -1.8204  1.2762 -2.9736
  160SAPE   O3117899   0.666   1.278   6.876  0.1388 -0.6230 -0.1068
  160SAPE   C3117900   0.770   1.341   6.938  1.0772 -0.1879  0.2519
  160SAPE   O3217901   0.827   1.434   6.886 -0.2727  0.1221 -0.2781
  160SAPE   C3217902   0.792   1.281   7.080  0.7261  0.2285 -0.2767
  160SAPE   H2X17903   0.831   1.179   7.062 -0.1472 -0.0906 -0.3901
  160SAPE   H2Y17904   0.692   1.270   7.129 -0.2143 -2.5325 -2.5777
  160SAPE   C2317905   0.143   1.318   7.043  0.5501 -0.0902  0.0918
  160SAPE   H3R17906   0.205   1.242   7.096 -0.6989 -1.3500 -0.2038
  160SAPE   H3S17907   0.066   1.260   6.988 -0.6570  1.2112  0.3577
  160SAPE   C2417908   0.080   1.409   7.150  0.2445 -0.4893  0.1147
  160SAPE   H4R17909  -0.009   1.359   7.195  0.6396 -1.1830  0.1215
  160SAPE   H4S17910   0.041   1.497   7.093  0.4162  0.1003  0.8862
  160SAPE   C2517911   0.174   1.451   7.255  0.1256 -0.2583  0.1868
  160SAPE   H5R17912   0.224   1.546   7.231 -2.8428  1.2649 -0.4431
  160SAPE   C2617913   0.201   1.394   7.374 -0.0142 -0.4197 -0.1402
  160SAPE   H6R17914   0.262   1.441   7.453  0.3540 -0.6893 -0.2598
  160SAPE   C2717915   0.145   1.269   7.422 -0.3609  0.0228 -0.0422
  160SAPE   H7R17916   0.105   1.205   7.340 -0.8146 -0.6150  0.6652
  160SAPE   H7S17917   0.060   1.288   7.492 -0.1558 -1.1732  0.5647
  160SAPE   C2817918   0.256   1.186   7.493  0.4003  0.5806 -0.2450
  160SAPE   H8R17919   0.330   1.142   7.424 -2.7198 -3.1095 -1.6064
  160SAPE   C2917920   0.274   1.159   7.627  0.7792 -0.1773 -0.9860
  160SAPE   H9R17921   0.353   1.088   7.653  1.7617  0.9605 -0.7665
  160SAPE  C21017922   0.190   1.211   7.741  0.6414  0.0141 -0.1594
  160SAPE  H10R17923   0.138   1.118   7.772  2.2013 -1.3728 -1.4916
  160SAPE  H10S17924   0.112   1.272   7.691  0.5454  1.7953  2.0167
  160SAPE  C21117925   0.260   1.294   7.844 -0.0676  0.3202 -0.8464
  160SAPE  H11R17926   0.297   1.393   7.816  2.8214 -0.7931 -1.2475
  160SAPE  C21217927   0.279   1.255   7.968 -0.7427  0.4893 -0.1002
  160SAPE  H12R17928   0.324   1.323   8.041 -0.7595 -0.4288  0.7802
  160SAPE  C21317929   0.244   1.120   8.025  0.2714 -0.8053 -0.3156
  160SAPE  H13R17930   0.253   1.043   7.946  2.4689  1.5376 -2.5351
  160SAPE  H13S17931   0.135   1.121   8.046 -0.2858 -2.8946 -2.6993
  160SAPE  C21417932   0.319   1.077   8.146  0.2818 -0.2407  0.2204
  160SAPE  H14R17933   0.420   1.117   8.160  0.6257 -1.9719  3.7229
  160SAPE  C21517934   0.288   0.989   8.245  0.1250 -0.4287 -0.7524
  160SAPE  H15R17935   0.363   0.980   8.324 -1.3703 -0.8806  0.6674
  160SAPE  C21617936   0.164   0.904   8.245  0.0025  0.5259  0.3167
  160SAPE  H16R17937   0.197   0.802   8.276 -0.1587 -0.4828 -2.5675
  160SAPE  H16S17938   0.136   0.878   8.141 -0.2166 -1.7787  0.8903
  160SAPE  C21717939   0.042   0.953   8.331 -1.0224 -0.2013 -0.0266
  160SAPE  H17R17940  -0.044   0.884   8.315 -0.2292 -1.2981  0.3080
  160SAPE  H17S17941   0.010   1.054   8.299  1.1405  0.3038 -0.8045
  160SAPE  C21817942   0.070   0.960   8.487  0.2760  0.7200  0.1775
  160SAPE  H18R17943   0.153   1.031   8.508  1.4161 -0.8175  1.0499
  160SAPE  H18S17944   0.094   0.859   8.525 -0.7782 -0.0887 -1.1965
  160SAPE  C21917945  -0.035   1.024   8.579  0.2098 -1.5070 -0.2510
  160SAPE  H19R17946  -0.015   1.133   8.569  1.3873 -1.6215  0.6953
  160SAPE  H19S17947  -0.013   0.996   8.684  0.4882  2.7391  0.9906
  160SAPE  C22017948  -0.182   1.005   8.544 -0.1480  0.6893 -0.0811
  160SAPE  H20R17949  -0.236   1.002   8.641  0.1433 -1.5134  0.0533
  160SAPE  H20S17950  -0.199   0.908   8.494 -2.3787  2.0864 -2.2724
  160SAPE  H20T17951  -0.212   1.090   8.479  1.6411  0.6369 -1.0370
  160SAPE   C3317952   0.881   1.374   7.161  0.2692  0.7019  0.3481
  160SAPE   H3X17953   0.859   1.483   7.151  3.3475  1.3538 -0.3868
  160SAPE   H3Y17954   0.989   1.373   7.134  0.1145 -1.8941 -0.3703
  160SAPE   C3417955   0.894   1.333   7.309  0.3389  0.4514  0.1732
  160SAPE   H4X17956   0.923   1.226   7.302 -0.4839  0.2983 -1.2857
  160SAPE   H4Y17957   0.795   1.337   7.360  0.7943  0.1104  1.1006
  160SAPE   C3517958   0.981   1.441   7.382  0.4264  0.2822  0.3527
  160SAPE   H5X17959   0.960   1.542   7.339  0.8444  0.8119  1.3649
  160SAPE   H5Y17960   1.087   1.414   7.366  0.6579  1.4266 -0.1539
  160SAPE   C3617961   0.961   1.420   7.533  0.8370  0.0896 -0.1112
  160SAPE   H6X17962   0.975   1.311   7.550 -1.0518 -0.3979 -1.4018
  160SAPE   H6Y17963   0.856   1.454   7.541  0.4596 -1.2340  1.0016
  160SAPE   C3717964   1.057   1.489   7.623 -1.0759  0.0613  0.4872
  160SAPE   H7X17965   1.058   1.598   7.602 -2.6028 -0.1287 -0.7379
  160SAPE   H7Y17966   1.160   1.447   7.617 -1.1400 -0.9662  4.0176
  160SAPE   C3817967   1.033   1.457   7.773  0.7834  0.3819  1.0130
  160SAPE   H8X17968   1.062   1.351   7.792  0.9168  0.2195 -0.0577
  160SAPE   H8Y17969   0.924   1.473   7.785  0.4392 -0.9131 -0.0864
  160SAPE   C3917970   1.110   1.557   7.860 -0.5266  0.4067 -0.9724
  160SAPE   H9X17971   1.092   1.657   7.815 -0.3370  2.0316  2.3079
  160SAPE   H9Y17972   1.219   1.534   7.861 -0.7137 -0.7130  1.4729
  160SAPE  C31017973   1.078   1.560   8.008  0.3445  0.0146 -0.2162
  160SAPE  H10X17974   1.089   1.458   8.051 -2.6603  0.1494  1.1551
  160SAPE  H10Y17975   0.969   1.581   8.012 -0.3521 -2.8244 -1.4948
  160SAPE  C31117976   1.157   1.667   8.093  0.6879  0.2310  0.0427
  160SAPE  H11X17977   1.084   1.703   8.169 -0.5735  0.7884 -1.3810
  160SAPE  H11Y17978   1.167   1.757   8.028  2.2631 -0.0049 -0.0748
  160SAPE  C31217979   1.285   1.605   8.146  0.3882  0.3843 -0.5319
  160SAPE  H12X17980   1.344   1.583   8.054 -0.1090 -0.9566 -0.5481
  160SAPE  H12Y17981   1.279   1.510   8.202  1.7714  0.8655  0.5139
  160SAPE  C31317982   1.363   1.697   8.243 -0.1134  0.4711 -0.4200
  160SAPE  H13X17983   1.301   1.726   8.330  1.0722  1.4298  0.1243
  160SAPE  H13Y17984   1.399   1.790   8.193  1.3645 -0.1924 -0.6532
  160SAPE  C31417985   1.480   1.626   8.310 -0.3018  0.4864  1.1389
  160SAPE  H14X17986   1.558   1.699   8.341  0.0904  1.1546 -1.2420
  160SAPE  H14Y17987   1.528   1.570   8.226 -0.9466 -0.1400  1.1773
  160SAPE  C31517988   1.449   1.534   8.422 -0.3458 -1.1988  0.6264
  160SAPE  H15X17989   1.520   1.449   8.408  2.0188  0.6699  0.6016
  160SAPE  H15Y17990   1.342   1.504   8.413 -0.3895 -0.9001  0.1000
  160SAPE  C31617991   1.486   1.573   8.563  0.0777 -0.2147 -0.3947
  160SAPE  H16X17992   1.418   1.657   8.590  1.8301  0.6551  1.5971
  160SAPE  H16Y17993   1.593   1.599   8.579 -0.2809  1.1934 -0.0757
  160SAPE  C31717994   1.462   1.455   8.661  0.7847  0.3830 -0.4025
  160SAPE  H17X17995   1.529   1.379   8.615 -0.6816  0.8927 -3.6409
  160SAPE  H17Y17996   1.355   1.429   8.650  1.1571 -1.6786  0.3826
  160SAPE  C31817997   1.495   1.485   8.804  0.6894  0.3066  0.3374
  160SAPE  H18X17998   1.447   1.584   8.818 -0.1851  0.1022 -1.0363
  160SAPE  H18Y17999   1.604   1.478   8.821  0.8881  0.5517 -0.7637
  160SAPE  H18Z18000   1.439   1.422   8.877 -1.0581  0.2084 -1.0169
  161SAPE     N18001   0.870   6.322   6.416  0.0469 -0.2454 -0.2360
  161SAPE   HN118002   0.774   6.344   6.449  0.6149  2.3503 -0.1170
  161SAPE   HN218003   0.918   6.393   6.356  1.3912 -1.0980 -0.2223
  161SAPE   HN318004   0.866   6.239   6.355  0.3381 -0.9171  0.6312
  161SAPE   C1218005   0.959   6.308   6.531 -0.0040  0.5034 -0.8776
  161SAPE  H12A18006   0.920   6.246   6.615  2.8496 -1.3525 -0.7977
  161SAPE  H12B18007   0.971   6.409   6.574 -0.1286 -0.4843  1.6687
  161SAPE   C1118008   1.100   6.257   6.492 -0.6092  0.8098 -0.2602
  161SAPE  H11A18009   1.090   6.155   6.449 -0.9496  0.9664 -0.5592
  161SAPE  H11B18010   1.147   6.241   6.591 -1.1928 -1.5661 -0.2849
  161SAPE     P18011   1.215   6.324   6.266 -0.0990  0.0669  0.3277
  161SAPE   O1318012   1.096   6.309   6.185 -0.4432 -0.2804 -0.0448
  161SAPE   O1418013   1.311   6.424   6.209 -0.0250 -0.0755 -0.1206
  161SAPE   O1218014   1.179   6.345   6.416  0.9038 -0.3814  0.3017
  161SAPE   O1118015   1.281   6.188   6.250 -0.2666 -0.2257 -0.2145
  161SAPE    C118016   1.406   6.174   6.311  0.5481  0.6692 -0.7176
  161SAPE    HA18017   1.486   6.214   6.244  0.5075  1.2307 -0.4307
  161SAPE    HB18018   1.412   6.221   6.411  0.6821 -0.0024 -0.4062
  161SAPE    C218019   1.427   6.021   6.348 -0.9113  0.5505 -0.7703
  161SAPE    HS18020   1.394   5.963   6.260 -1.1495 -0.7768  0.1596
  161SAPE   O2118021   1.342   6.009   6.464  0.0156 -0.7798 -0.0515
  161SAPE   C2118022   1.312   5.880   6.496  0.4350 -0.0825  0.1899
  161SAPE   O2218023   1.348   5.787   6.428  0.4725 -0.2667 -0.2914
  161SAPE   C2218024   1.237   5.881   6.634  0.5375  0.8940  0.5855
  161SAPE   H2R18025   1.148   5.946   6.621  1.3649  1.8227 -0.6376
  161SAPE   H2S18026   1.194   5.782   6.658  0.7841  0.3449 -1.0674
  161SAPE    C318027   1.574   5.974   6.363 -0.5531 -0.1992 -0.2586
  161SAPE    HX18028   1.651   6.007   6.291  0.0410  1.1625  0.9449
  161SAPE    HY18029   1.580   5.866   6.337 -1.9539 -0.2489 -0.4674
  161SAPE   O3118030   1.619   5.984   6.501 -0.1193  0.1231  0.6535
  161SAPE   C3118031   1.678   6.097   6.526 -0.0596  0.4003  0.2506
  161SAPE   O3218032   1.696   6.183   6.442 -0.2505  0.3937  0.4118
  161SAPE   C3218033   1.702   6.118   6.676 -0.2269 -0.1800 -0.1820
  161SAPE   H2X18034   1.607   6.157   6.718  0.6745  1.6552  0.2809
  161SAPE   H2Y18035   1.773   6.202   6.691 -0.5818  0.2886 -1.0875
  161SAPE   C2318036   1.323   5.944   6.748  0.0844 -0.5737 -0.2344
  161SAPE   H3R18037   1.345   6.048   6.717 -2.4441 -0.3322 -1.4881
  161SAPE   H3S18038   1.417   5.884   6.745 -0.4793 -1.4706 -1.7723
  161SAPE   C2418039   1.257   5.919   6.882 -0.4355  0.4765  0.2701
  161SAPE   H4R18040   1.334   5.889   6.956 -0.5776  0.5227  0.4364
  161SAPE   H4S18041   1.177   5.842   6.873 -1.9996  2.0724 -0.1030
  161SAPE   C2518042   1.185   6.043   6.923 -0.6308  0.1789 -0.1394
  161SAPE   H5R18043   1.084   6.057   6.882 -0.3749  0.0994 -0.8048
  161SAPE   C2618044   1.242   6.143   7.000  0.4016  0.0047 -0.4334
  161SAPE   H6R18045   1.189   6.237   7.020  1.1594 -0.0406  2.1436
  161SAPE   C2718046   1.383   6.135   7.058  1.1030 -0.5505 -0.1069
  161SAPE   H7R18047   1.441   6.221   7.019  0.6342 -0.4112 -0.5170
  161SAPE   H7S18048   1.441   6.050   7.016  1.7903  0.0994 -0.4840
  161SAPE   C2818049   1.393   6.128   7.213 -0.1397  0.4885  0.2041
  161SAPE   H8R18050   1.430   6.030   7.244  0.7041  0.0194 -2.0436
  161SAPE   C2918051   1.352   6.216   7.309 -0.3250 -0.4269  0.1161
  161SAPE   H9R18052   1.355   6.195   7.417 -1.8669 -1.4704 -0.0081
  161SAPE  C21018053   1.288   6.355   7.272 -0.0721  0.0391 -0.4454
  161SAPE  H10R18054   1.248   6.365   7.168  3.1519  0.8724 -1.7366
  161SAPE  H10S18055   1.368   6.430   7.291 -0.1827 -0.0673  0.4474
  161SAPE  C21118056   1.163   6.374   7.356  0.4683 -0.2785 -0.3295
  161SAPE  H11R18057   1.074   6.358   7.293  0.3855 -4.0292  0.5038
  161SAPE  C21218058   1.153   6.426   7.479  0.2588  0.1960 -0.8756
  161SAPE  H12R18059   1.054   6.424   7.526 -0.4439  0.5420 -2.2855
  161SAPE  C21318060   1.261   6.455   7.576 -0.8218 -0.2831 -0.7101
  161SAPE  H13R18061   1.257   6.562   7.605  0.6203 -0.0565 -1.2584
  161SAPE  H13S18062   1.363   6.441   7.533 -0.4186  1.0282 -0.2601
  161SAPE  C21418063   1.246   6.386   7.715 -0.8125 -0.1056 -0.3864
  161SAPE  H14R18064   1.145   6.344   7.731 -0.6223 -0.4441 -0.0469
  161SAPE  C21518065   1.335   6.383   7.821  0.0051 -1.0247  0.5709
  161SAPE  H15R18066   1.315   6.325   7.912 -0.7249 -1.5224  0.1068
  161SAPE  C21618067   1.477   6.445   7.813  0.4190 -0.3303  0.1683
  161SAPE  H16R18068   1.496   6.506   7.903  1.1927  1.2636 -1.0099
  161SAPE  H16S18069   1.486   6.521   7.732  0.3878  1.1791  1.5406
  161SAPE  C21718070   1.588   6.341   7.789  0.2533 -0.1777 -0.5970
  161SAPE  H17R18071   1.582   6.268   7.872  1.9007  0.1424 -0.1703
  161SAPE  H17S18072   1.689   6.386   7.792  0.9414 -1.6055 -1.3608
  161SAPE  C21818073   1.562   6.260   7.663 -0.1316  0.1710 -0.3233
  161SAPE  H18R18074   1.568   6.337   7.583  1.6366  0.4105 -0.0077
  161SAPE  H18S18075   1.461   6.215   7.662 -0.3020  0.3776  2.1522
  161SAPE  C21918076   1.673   6.152   7.639  0.8964 -0.1903  0.0555
  161SAPE  H19R18077   1.678   6.082   7.725  1.2597 -1.1424 -0.7200
  161SAPE  H19S18078   1.766   6.211   7.625 -0.8206  2.7064 -0.0709
  161SAPE  C22018079   1.643   6.089   7.503  0.4131  0.5828 -0.4612
  161SAPE  H20R18080   1.541   6.047   7.513  1.6756 -2.6212  0.5830
  161SAPE  H20S18081   1.711   6.001   7.489 -0.7997 -1.1071  3.0192
  161SAPE  H20T18082   1.643   6.159   7.417 -1.3145  0.2815 -0.7418
  161SAPE   C3318083   1.745   5.987   6.758  0.3525 -0.4036  1.2541
  161SAPE   H3X18084   1.850   5.959   6.735  0.3433  0.0982  0.5634
  161SAPE   H3Y18085   1.680   5.899   6.740  0.4704 -0.6803  2.1167
  161SAPE   C3418086   1.754   5.996   6.914 -0.6674  0.1101  0.3613
  161SAPE   H4X18087   1.652   6.027   6.946 -1.0486  0.1288 -0.8097
  161SAPE   H4Y18088   1.822   6.077   6.947  1.5420 -1.4182 -0.2026
  161SAPE   C3518089   1.803   5.865   6.980 -0.6559  0.4181 -0.2633
  161SAPE   H5X18090   1.884   5.815   6.922  0.9751 -0.5582  2.6759
  161SAPE   H5Y18091   1.729   5.783   6.979  1.2196 -1.3857  1.0508
  161SAPE   C3618092   1.864   5.883   7.129 -0.3381  0.7863  0.1907
  161SAPE   H6X18093   1.785   5.926   7.195 -2.2570  0.3895 -1.7347
  161SAPE   H6Y18094   1.956   5.944   7.130  0.5808 -0.5624 -0.0510
  161SAPE   C3718095   1.904   5.746   7.197 -0.2510 -0.5013  0.4759
  161SAPE   H7X18096   1.935   5.665   7.127 -0.3472 -0.8722  0.8571
  161SAPE   H7Y18097   1.807   5.711   7.237  0.0025 -1.8096 -0.0135
  161SAPE   C3818098   1.994   5.748   7.319  0.4137 -0.1255 -0.7091
  161SAPE   H8X18099   2.080   5.797   7.268 -0.0126  1.1391 -0.2654
  161SAPE   H8Y18100   2.022   5.646   7.353  2.2425  1.5013  3.4210
  161SAPE   C3918101   1.948   5.844   7.433 -0.4208  0.1124 -1.3729
  161SAPE   H9X18102   1.848   5.805   7.465  0.2222 -0.2817  0.2470
  161SAPE   H9Y18103   1.937   5.950   7.403  1.4182  1.0132  0.8362
  161SAPE  C31018104   2.041   5.838   7.546  0.3909 -0.4323 -0.3603
  161SAPE  H10X18105   2.137   5.882   7.513  0.0364 -0.4859 -1.5062
  161SAPE  H10Y18106   2.065   5.735   7.581 -1.2223 -0.8614 -0.4277
  161SAPE  C31118107   1.980   5.922   7.658 -0.0176  0.4063  0.0571
  161SAPE  H11X18108   1.879   5.894   7.694  0.7008  0.8730  2.6203
  161SAPE  H11Y18109   1.971   6.031   7.636  1.5886  0.9207  1.7364
  161SAPE  C31218110   2.076   5.916   7.777 -0.1577  0.6794  0.9295
  161SAPE  H12X18111   2.094   6.020   7.811 -0.1508  0.4217  1.7395
  161SAPE  H12Y18112   2.175   5.891   7.735  0.0803  1.7287  0.8239
  161SAPE  C31318113   2.029   5.812   7.876  0.1983 -0.3704  0.0123
  161SAPE  H13X18114   2.109   5.737   7.896 -0.8338 -1.4784  0.1493
  161SAPE  H13Y18115   1.931   5.767   7.850  0.0796  0.3348 -0.7937
  161SAPE  C31418116   2.007   5.871   8.017  0.0353  0.3676  0.3284
  161SAPE  H14X18117   2.090   5.943   8.037  0.3774 -0.1997  0.9875
  161SAPE  H14Y18118   1.996   5.793   8.095  0.9791 -0.2558 -0.1443
  161SAPE  C31518119   1.868   5.941   8.027  0.7402 -0.3363 -0.0833
  161SAPE  H15X18120   1.787   5.886   7.973  2.5315 -0.2742 -3.0783
  161SAPE  H15Y18121   1.871   6.043   7.982  2.1026 -0.6440 -0.7457
  161SAPE  C31618122   1.807   5.952   8.167 -1.0196 -0.1841 -0.0962
  161SAPE  H16X18123   1.867   6.030   8.218 -0.5632 -0.4928 -0.1522
  161SAPE  H16Y18124   1.827   5.865   8.233 -2.8289  1.3111  2.5746
  161SAPE  C31718125   1.669   5.993   8.163 -0.2377  0.1519 -0.2528
  161SAPE  H17X18126   1.618   5.912   8.107 -0.0366 -0.6838  0.7543
  161SAPE  H17Y18127   1.656   6.089   8.108 -1.2512  0.5965  0.7153
  161SAPE  C31818128   1.606   6.005   8.302  0.0727  0.2838 -0.3305
  161SAPE  H18X18129   1.659   6.078   8.367  0.5981  0.7957 -1.3158
  161SAPE  H18Y18130   1.609   5.909   8.358 -3.0269  0.5047  0.3800
  161SAPE  H18Z18131   1.502   6.044   8.291 -0.6732 -1.6923 -0.6896
  162SAPE     N18132   0.747   5.416   5.972 -0.7132  0.6735  0.2013
  162SAPE   HN118133   0.850   5.425   5.960 -0.4565  0.8017  2.1443
  162SAPE   HN218134   0.697   5.390   5.884 -0.6365  0.5313  0.1999
  162SAPE   HN318135   0.734   5.513   6.008  1.5315  0.6436  1.2610
  162SAPE   C1218136   0.729   5.316   6.084  0.2889 -0.5689 -0.4004
  162SAPE  H12A18137   0.772   5.221   6.045  2.2573 -0.6789  1.8041
  162SAPE  H12B18138   0.622   5.299   6.108  0.9038  0.1476  3.4430
  162SAPE   C1118139   0.810   5.343   6.212  0.4332 -0.5432  0.2503
  162SAPE  H11A18140   0.788   5.266   6.288 -2.4513 -1.8626 -1.7363
  162SAPE  H11B18141   0.776   5.439   6.258 -0.9458 -0.7572 -0.2924
  162SAPE     P18142   1.059   5.264   6.239 -0.0959 -0.0736 -0.3257
  162SAPE   O1318143   1.040   5.124   6.192  0.8835 -0.0399 -0.6245
  162SAPE   O1418144   1.189   5.323   6.198  0.5625 -0.7725 -0.0565
  162SAPE   O1218145   0.945   5.364   6.185  0.2341  0.6469  0.4301
  162SAPE   O1118146   1.043   5.263   6.395 -0.2370 -0.2485 -0.9820
  162SAPE    C118147   1.046   5.381   6.466  0.1864 -0.4639  0.1168
  162SAPE    HA18148   1.109   5.456   6.414 -1.0023 -0.6713 -1.7239
  162SAPE    HB18149   0.944   5.423   6.475 -1.0214 -3.2022  0.3365
  162SAPE    C218150   1.088   5.349   6.618 -0.6293  0.6558  0.2896
  162SAPE    HS18151   1.173   5.278   6.618 -1.1732 -0.0070  1.0016
  162SAPE   O2118152   0.969   5.284   6.676  0.1781  0.0731  0.3659
  162SAPE   C2118153   0.996   5.200   6.779 -0.4770 -0.3654  0.3784
  162SAPE   O2218154   1.105   5.182   6.828  0.0713 -0.0928  0.5915
  162SAPE   C2218155   0.863   5.129   6.815  0.2916  0.2763 -0.7011
  162SAPE   H2R18156   0.785   5.164   6.744 -0.6878 -0.4744 -0.0129
  162SAPE   H2S18157   0.889   5.024   6.792  1.7738  0.4305  0.1449
  162SAPE    C318158   1.117   5.473   6.689  0.3598 -0.7077 -0.0277
  162SAPE    HX18159   1.035   5.547   6.677  0.8186 -0.3659 -1.2380
  162SAPE    HY18160   1.202   5.524   6.638  0.1726  0.0792  0.4272
  162SAPE   O3118161   1.138   5.456   6.832  0.2093  0.0974 -0.0703
  162SAPE   C3118162   1.065   5.519   6.915  0.5278  0.4271 -0.3636
  162SAPE   O3218163   0.984   5.607   6.898 -0.1941 -0.2399 -0.2199
  162SAPE   C3218164   1.092   5.445   7.054 -0.6703  1.4824 -0.2504
  162SAPE   H2X18165   1.202   5.456   7.061 -0.0873 -2.2033 -1.7333
  162SAPE   H2Y18166   1.060   5.339   7.060  0.5507  1.1449  0.5710
  162SAPE   C2318167   0.815   5.139   6.959  0.3527 -0.1294 -0.3672
  162SAPE   H3R18168   0.704   5.134   6.963  0.1187  2.5930 -1.3158
  162SAPE   H3S18169   0.834   5.236   7.010 -1.5240  0.1115 -0.0706
  162SAPE   C2418170   0.880   5.021   7.038  0.3415  0.1699 -0.0268
  162SAPE   H4R18171   0.888   4.928   6.978  1.8686 -0.8964  1.6941
  162SAPE   H4S18172   0.801   5.003   7.114 -1.7138  0.6423 -1.9593
  162SAPE   C2518173   1.012   5.055   7.091 -0.0814 -0.5341 -0.4953
  162SAPE   H5R18174   1.104   5.037   7.034 -0.3643 -1.8387 -0.5696
  162SAPE   C2618175   1.032   5.096   7.221  0.1676 -0.0954 -0.1562
  162SAPE   H6R18176   1.132   5.133   7.250 -0.4959  1.3286  0.4090
  162SAPE   C2718177   0.927   5.116   7.330 -0.9140  0.2395  0.0415
  162SAPE   H7R18178   0.826   5.089   7.293 -1.0239  0.6583  0.0246
  162SAPE   H7S18179   0.927   5.224   7.358 -1.5844  0.4647 -0.7878
  162SAPE   C2818180   0.962   5.031   7.456 -0.1879  0.3840  0.0008
  162SAPE   H8R18181   0.919   4.929   7.457  2.2154 -0.7775 -1.9345
  162SAPE   C2918182   1.049   5.072   7.553  0.6842 -0.3188 -0.3397
  162SAPE   H9R18183   1.085   4.995   7.623  0.6820  0.3420  0.3942
  162SAPE  C21018184   1.115   5.209   7.551 -0.8348 -0.2695  0.0080
  162SAPE  H10R18185   1.158   5.233   7.451  1.5581  0.7832  1.1964
  162SAPE  H10S18186   1.207   5.215   7.612 -1.1501  1.1609  0.3793
  162SAPE  C21118187   1.022   5.326   7.586  0.1299 -0.0617  0.0869
  162SAPE  H11R18188   0.931   5.344   7.526 -0.5288 -1.0897  0.7361
  162SAPE  C21218189   1.036   5.415   7.690 -0.2845  0.0187  0.1621
  162SAPE  H12R18190   0.967   5.501   7.696 -0.6370 -0.3324  1.3771
  162SAPE  C21318191   1.143   5.417   7.794  0.7153 -0.2848 -0.3975
  162SAPE  H13R18192   1.232   5.468   7.750  1.9856 -1.1429  1.0397
  162SAPE  H13S18193   1.186   5.316   7.812 -0.5522 -1.3617 -2.8891
  162SAPE  C21418194   1.108   5.497   7.916  0.8128  0.0642 -0.7868
  162SAPE  H14R18195   1.148   5.599   7.921  0.0154  0.3375  0.4553
  162SAPE  C21518196   1.034   5.458   8.022  0.2235  0.4617  0.0459
  162SAPE  H15R18197   1.019   5.529   8.105  1.7344 -0.6835  1.3907
  162SAPE  C21618198   0.978   5.314   8.047  0.0760 -0.3421  0.2400
  162SAPE  H16R18199   0.945   5.268   7.952 -2.6340  2.2326 -0.2195
  162SAPE  H16S18200   0.886   5.320   8.111 -0.9088  1.5034 -1.2452
  162SAPE  C21718201   1.070   5.230   8.136  0.0867 -0.4831 -0.2410
  162SAPE  H17R18202   1.013   5.141   8.171  1.4024 -0.6752  1.5299
  162SAPE  H17S18203   1.108   5.289   8.222 -0.9949  0.6397 -0.5098
  162SAPE  C21818204   1.195   5.168   8.064 -0.4119  0.2743  0.3893
  162SAPE  H18R18205   1.254   5.241   8.006  1.3665 -1.5819 -0.2475
  162SAPE  H18S18206   1.159   5.095   7.988  1.0662  1.2489 -1.3118
  162SAPE  C21918207   1.285   5.102   8.166  0.2064  0.1198 -0.4159
  162SAPE  H19R18208   1.342   5.023   8.113 -0.5116  1.1681 -2.9089
  162SAPE  H19S18209   1.222   5.056   8.245  0.8785 -1.7324 -0.9123
  162SAPE  C22018210   1.382   5.201   8.218 -0.4774 -0.4597  0.1539
  162SAPE  H20R18211   1.422   5.259   8.132 -0.5120  1.5981  1.4533
  162SAPE  H20S18212   1.468   5.160   8.275 -0.4138 -1.2303 -0.4831
  162SAPE  H20T18213   1.319   5.278   8.268  1.4144  0.8445  0.6509
  162SAPE   C3318214   1.025   5.501   7.180  0.2740 -0.5445  0.0793
  162SAPE   H3X18215   1.018   5.431   7.266 -0.3759  1.4242  1.7293
  162SAPE   H3Y18216   0.918   5.520   7.155  0.6653 -0.3592 -1.5397
  162SAPE   C3418217   1.092   5.630   7.221 -0.2835 -0.5023 -0.0344
  162SAPE   H4X18218   1.014   5.692   7.271 -1.1517 -1.5424 -0.0567
  162SAPE   H4Y18219   1.130   5.683   7.131 -2.8772  0.5206 -0.6169
  162SAPE   C3518220   1.211   5.609   7.318  0.6321 -0.0262 -0.1430
  162SAPE   H5X18221   1.293   5.551   7.271  2.1807  0.9445  1.2399
  162SAPE   H5Y18222   1.170   5.569   7.413 -3.7493 -0.9785 -2.1619
  162SAPE   C3618223   1.281   5.745   7.350 -0.4162 -0.3518 -0.4193
  162SAPE   H6X18224   1.207   5.804   7.410  0.0965 -0.8138  0.6934
  162SAPE   H6Y18225   1.305   5.795   7.254 -1.7360 -1.0562 -1.1518
  162SAPE   C3718226   1.406   5.737   7.444  0.6114  0.3687  0.3079
  162SAPE   H7X18227   1.437   5.842   7.465  0.7691  0.2647  0.5981
  162SAPE   H7Y18228   1.501   5.696   7.403  1.1817  0.3903  1.5711
  162SAPE   C3818229   1.390   5.668   7.584  0.5835  0.1678  0.5728
  162SAPE   H8X18230   1.375   5.559   7.565  3.2762 -0.1285 -0.3116
  162SAPE   H8Y18231   1.302   5.712   7.636  0.7635  0.0157  1.0170
  162SAPE   C3918232   1.504   5.698   7.678  0.2010 -0.1354  0.2645
  162SAPE   H9X18233   1.548   5.797   7.655  0.8673 -0.1184  1.5027
  162SAPE   H9Y18234   1.596   5.638   7.660  1.3109  1.6261 -0.2251
  162SAPE  C31018235   1.462   5.691   7.827 -0.5822  0.0835 -0.2436
  162SAPE  H10X18236   1.390   5.606   7.824  0.5091 -0.9526 -4.4455
  162SAPE  H10Y18237   1.420   5.788   7.861  1.1891  0.9460 -0.4068
  162SAPE  C31118238   1.576   5.666   7.933  0.4111  0.0960 -0.7430
  162SAPE  H11X18239   1.623   5.767   7.940  1.1854 -0.3305  0.5218
  162SAPE  H11Y18240   1.647   5.594   7.887  0.0144 -0.5705 -0.3255
  162SAPE  C31218241   1.511   5.619   8.062  0.5475  0.3141  0.2737
  162SAPE  H12X18242   1.458   5.522   8.062  0.4238  0.3799 -0.3773
  162SAPE  H12Y18243   1.428   5.690   8.085 -2.5397 -2.2846 -1.9979
  162SAPE  C31318244   1.605   5.630   8.179  0.2173  0.0640  0.6737
  162SAPE  H13X18245   1.679   5.712   8.168  0.6327 -0.3806  0.0600
  162SAPE  H13Y18246   1.669   5.540   8.167 -0.0334  0.1705 -2.0443
  162SAPE  C31418247   1.541   5.632   8.318  0.0485  0.2051 -0.0281
  162SAPE  H14X18248   1.461   5.557   8.331 -0.3682  0.6286 -0.1340
  162SAPE  H14Y18249   1.493   5.731   8.332 -0.7871 -0.1258 -0.5237
  162SAPE  C31518250   1.640   5.595   8.421 -0.2774  0.1862 -0.1242
  162SAPE  H15X18251   1.720   5.671   8.411 -1.4072  2.1000  3.4568
  162SAPE  H15Y18252   1.681   5.493   8.402  0.7030  0.8575 -1.7348
  162SAPE  C31618253   1.589   5.572   8.564  0.5633  0.8312 -0.2835
  162SAPE  H16X18254   1.557   5.671   8.604  0.1627  0.3293  0.6613
  162SAPE  H16Y18255   1.675   5.543   8.628  0.7419  1.2143 -0.3481
  162SAPE  C31718256   1.484   5.460   8.597 -0.6234  0.7807  0.3290
  162SAPE  H17X18257   1.399   5.479   8.529 -0.6942 -1.8859 -0.4458
  162SAPE  H17Y18258   1.457   5.481   8.703  1.2327 -2.5569  1.6274
  162SAPE  C31818259   1.540   5.317   8.575  0.3011  0.1283  0.4990
  162SAPE  H18X18260   1.556   5.303   8.466 -0.3174 -0.6306  0.4993
  162SAPE  H18Y18261   1.461   5.243   8.598 -0.5184  0.7497 -0.2612
  162SAPE  H18Z18262   1.629   5.286   8.635 -1.2722  0.2052  3.0282
  163SAPE     N18263   5.419   3.380   6.236  1.1177 -0.2921  0.6665
  163SAPE   HN118264   5.318   3.378   6.260  0.8773  2.0658  0.0607
  163SAPE   HN218265   5.436   3.419   6.141 -0.8267  0.6325  0.6614
  163SAPE   HN318266   5.455   3.282   6.232 -1.9088 -1.4908 -0.2023
  163SAPE   C1218267   5.483   3.460   6.341  1.0173  0.8560 -0.5139
  163SAPE  H12A18268   5.407   3.537   6.369  0.6362  1.3287 -2.6506
  163SAPE  H12B18269   5.570   3.502   6.287  0.4076  1.7391 -0.8389
  163SAPE   C1118270   5.519   3.375   6.461  1.0709  0.9820 -0.4380
  163SAPE  H11A18271   5.427   3.318   6.487  2.5476 -1.4147 -0.1329
  163SAPE  H11B18272   5.551   3.434   6.550  0.4976  1.1058 -0.3133
  163SAPE     P18273   5.614   3.139   6.405 -0.6052 -0.4859  0.3030
  163SAPE   O1318274   5.546   3.129   6.271 -0.5125 -0.3433 -0.4373
  163SAPE   O1418275   5.752   3.087   6.407  0.1549 -0.4452 -0.3158
  163SAPE   O1218276   5.624   3.293   6.420 -0.2246  0.2677 -0.3409
  163SAPE   O1118277   5.534   3.081   6.528  0.6587 -0.3491  0.0522
  163SAPE    C118278   5.564   2.997   6.630 -0.1161 -0.7788 -0.7157
  163SAPE    HA18279   5.487   2.920   6.647 -0.5868  0.0418  1.2102
  163SAPE    HB18280   5.669   2.960   6.625  1.0043  2.1098 -0.4257
  163SAPE    C218281   5.562   3.068   6.772 -0.7619  0.1908 -0.8156
  163SAPE    HS18282   5.595   2.990   6.844  0.6017  0.1049 -1.4809
  163SAPE   O2118283   5.431   3.122   6.799  0.0780 -0.5320  0.4212
  163SAPE   C2118284   5.408   3.149   6.921  0.5855 -0.5772  0.2892
  163SAPE   O2218285   5.477   3.120   7.015 -0.0355 -0.2788  0.4351
  163SAPE   C2218286   5.273   3.231   6.921 -0.8092 -0.5017 -0.1984
  163SAPE   H2R18287   5.282   3.312   6.846 -1.6034 -3.0287 -3.2553
  163SAPE   H2S18288   5.201   3.156   6.881 -0.3227 -0.4850 -1.1365
  163SAPE    C318289   5.681   3.175   6.772  0.0307 -0.4387  0.7250
  163SAPE    HX18290   5.644   3.248   6.697  0.4592 -0.5467  0.4102
  163SAPE    HY18291   5.778   3.131   6.742  1.2216  2.5031 -0.0974
  163SAPE   O3118292   5.692   3.259   6.891 -0.1091  0.3695  0.6116
  163SAPE   C3118293   5.753   3.183   6.986 -0.3706 -0.5610  1.0391
  163SAPE   O3218294   5.802   3.075   6.968  0.3643 -0.1852  0.2781
  163SAPE   C3218295   5.775   3.271   7.113  0.1340  0.0432  0.4994
  163SAPE   H2X18296   5.681   3.299   7.166 -0.3903  1.0578 -0.9078
  163SAPE   H2Y18297   5.829   3.363   7.081  1.7322 -0.5072  1.4910
  163SAPE   C2318298   5.230   3.290   7.059 -0.0175  0.5910 -0.2335
  163SAPE   H3R18299   5.153   3.368   7.043 -0.5292  0.0690 -0.3261
  163SAPE   H3S18300   5.316   3.342   7.108  1.6978 -1.7611 -0.5479
  163SAPE   C2418301   5.162   3.186   7.145 -0.3264  0.5140  0.0571
  163SAPE   H4R18302   5.235   3.104   7.163  0.0822  0.8244 -0.1751
  163SAPE   H4S18303   5.077   3.143   7.088  0.9872 -0.7402 -1.0118
  163SAPE   C2518304   5.121   3.239   7.278  0.1665  1.0244 -0.1259
  163SAPE   H5R18305   5.014   3.263   7.274 -0.3218 -1.0855 -1.1343
  163SAPE   C2618306   5.196   3.253   7.388 -0.4245 -0.9574 -0.3096
  163SAPE   H6R18307   5.142   3.295   7.474 -0.1454 -1.7670  0.2779
  163SAPE   C2718308   5.340   3.219   7.394 -0.2626 -0.8660 -0.7056
  163SAPE   H7R18309   5.375   3.201   7.290 -0.2696  2.0740 -1.2951
  163SAPE   H7S18310   5.356   3.126   7.452 -1.3361  0.3225  1.6463
  163SAPE   C2818311   5.421   3.320   7.474 -0.4504 -0.0719  0.1480
  163SAPE   H8R18312   5.462   3.407   7.420  1.1256  0.1561  1.6245
  163SAPE   C2918313   5.440   3.318   7.612  1.0611  0.2227  0.3699
  163SAPE   H9R18314   5.501   3.399   7.656  3.0366 -2.5840  3.1952
  163SAPE  C21018315   5.388   3.208   7.696 -0.1847  0.3380 -0.7512
  163SAPE  H10R18316   5.453   3.120   7.675  1.2165  1.2279 -0.3181
  163SAPE  H10S18317   5.283   3.191   7.664 -0.2509  1.1901 -1.0096
  163SAPE  C21118318   5.390   3.234   7.848  0.1261  0.5548 -0.0628
  163SAPE  H11R18319   5.485   3.277   7.883  0.9852 -0.8058 -0.6520
  163SAPE  C21218320   5.288   3.220   7.933  0.4665  0.2609  0.0488
  163SAPE  H12R18321   5.306   3.248   8.038  1.8526 -2.8152  0.7521
  163SAPE  C21318322   5.148   3.160   7.901 -0.0123 -0.1671  0.2263
  163SAPE  H13R18323   5.124   3.089   7.983 -1.9076 -0.8050 -0.8214
  163SAPE  H13S18324   5.136   3.101   7.808 -1.6888 -1.0561  0.9534
  163SAPE  C21418325   5.034   3.256   7.898  0.6335 -0.1082 -0.0118
  163SAPE  H14R18326   5.064   3.361   7.908 -1.9579  0.6568  0.4964
  163SAPE  C21518327   4.904   3.226   7.876  0.0543 -0.1266 -0.3015
  163SAPE  H15R18328   4.837   3.313   7.869  2.0161  1.3121 -2.4026
  163SAPE  C21618329   4.846   3.083   7.858  0.3180 -0.8140  0.3289
  163SAPE  H16R18330   4.921   3.009   7.894  1.1597 -0.2110 -0.1376
  163SAPE  H16S18331   4.837   3.065   7.749 -1.7248 -2.1051  0.6454
  163SAPE  C21718332   4.720   3.062   7.947 -0.1560  0.1600  0.6585
  163SAPE  H17R18333   4.628   3.107   7.903  0.5636  1.0497  0.0290
  163SAPE  H17S18334   4.737   3.104   8.048 -1.8242 -2.0692  1.9756
  163SAPE  C21818335   4.680   2.908   7.976  0.4634 -0.2037  0.3319
  163SAPE  H18R18336   4.751   2.872   8.053 -0.2319  0.2849  1.2211
  163SAPE  H18S18337   4.704   2.847   7.886  0.3939 -0.9878  0.8378
  163SAPE  C21918338   4.532   2.892   8.022  0.3529 -0.1049 -0.4131
  163SAPE  H19R18339   4.509   2.785   8.003  3.4501 -0.4762 -3.1084
  163SAPE  H19S18340   4.474   2.957   7.953  0.6689 -0.7422 -1.3050
  163SAPE  C22018341   4.504   2.948   8.159 -0.4340 -1.1948 -0.5706
  163SAPE  H20R18342   4.583   2.930   8.235 -0.8896 -2.5706 -0.4035
  163SAPE  H20S18343   4.414   2.912   8.213 -0.7247  0.6563  0.2736
  163SAPE  H20T18344   4.493   3.059   8.158  2.1107 -0.8821 -0.3706
  163SAPE   C3318345   5.855   3.189   7.221  0.5013  0.0226  0.0928
  163SAPE   H3X18346   5.960   3.226   7.225  0.6151 -0.1334 -1.0930
  163SAPE   H3Y18347   5.847   3.083   7.190 -0.9961  0.8677 -2.7522
  163SAPE   C3418348   5.802   3.224   7.360  0.3255 -0.3728  0.3722
  163SAPE   H4X18349   5.700   3.182   7.374 -0.0498  0.2731 -0.3363
  163SAPE   H4Y18350   5.785   3.331   7.386  0.3515 -0.3122  0.1418
  163SAPE   C3518351   5.883   3.156   7.480  0.1345  0.1112  0.6327
  163SAPE   H5X18352   5.984   3.203   7.483  0.7143 -1.0005 -0.5614
  163SAPE   H5Y18353   5.899   3.050   7.451 -0.5695  0.4084 -0.9515
  163SAPE   C3618354   5.805   3.156   7.613  0.1605  0.2616  0.0718
  163SAPE   H6X18355   5.711   3.103   7.588 -0.6097  2.5781 -2.5174
  163SAPE   H6Y18356   5.782   3.260   7.644  2.0909  0.6417  0.3809
  163SAPE   C3718357   5.882   3.096   7.717  1.1549 -0.0649 -0.5759
  163SAPE   H7X18358   5.989   3.126   7.717  0.8381  1.1596  0.1210
  163SAPE   H7Y18359   5.881   2.986   7.701  2.7861 -0.5028  1.7110
  163SAPE   C3818360   5.831   3.135   7.856 -0.1974  0.2004  0.4605
  163SAPE   H8X18361   5.737   3.080   7.876 -0.7562  0.9337 -0.0620
  163SAPE   H8Y18362   5.811   3.244   7.852 -0.7442  0.1081  0.6697
  163SAPE   C3918363   5.937   3.098   7.961  0.3021  0.0878  0.2506
  163SAPE   H9X18364   6.036   3.147   7.947  2.4093 -2.6905  3.6065
  163SAPE   H9Y18365   5.961   2.990   7.960  2.1872  0.4763 -0.6953
  163SAPE  C31018366   5.882   3.125   8.106 -0.3741  0.4846 -0.6837
  163SAPE  H10X18367   5.789   3.067   8.123  0.1848 -0.3024 -0.2518
  163SAPE  H10Y18368   5.850   3.230   8.120  0.2975  0.3814  2.2870
  163SAPE  C31118369   5.979   3.080   8.220 -0.6522  0.2922 -0.3173
  163SAPE  H11X18370   6.068   3.148   8.215  0.1762 -0.7596 -0.2533
  163SAPE  H11Y18371   6.020   2.978   8.210 -1.5093  0.0693 -1.8276
  163SAPE  C31218372   5.923   3.115   8.365 -0.0195  0.0843  0.4142
  163SAPE  H12X18373   5.815   3.089   8.357 -0.0905  0.9476 -3.9908
  163SAPE  H12Y18374   5.940   3.223   8.386  2.3329  0.1791 -1.6092
  163SAPE  C31318375   5.990   3.039   8.469  0.1003  0.6013 -0.1206
  163SAPE  H13X18376   6.099   3.057   8.464 -0.0247  1.1683 -0.9694
  163SAPE  H13Y18377   5.965   2.930   8.461  1.0073  0.3964 -0.2281
  163SAPE  C31418378   5.944   3.070   8.612 -0.4017  0.0623  0.4075
  163SAPE  H14X18379   5.951   3.180   8.625  1.8557 -0.1316  1.2609
  163SAPE  H14Y18380   6.015   3.013   8.675  0.8156 -1.4104 -2.1141
  163SAPE  C31518381   5.801   3.019   8.637  0.5669 -0.4030  0.7339
  163SAPE  H15X18382   5.791   2.912   8.607  0.6085  0.2190 -1.6701
  163SAPE  H15Y18383   5.737   3.078   8.569  1.0733  1.0831  1.5095
  163SAPE  C31618384   5.752   3.049   8.780  0.8715 -0.1593  0.1824
  163SAPE  H16X18385   5.646   3.017   8.790  0.0750  1.6402 -1.7604
  163SAPE  H16Y18386   5.753   3.158   8.800 -2.2793 -0.2396  1.4358
  163SAPE  C31718387   5.833   2.971   8.894  0.2008 -0.2257 -0.0802
  163SAPE  H17X18388   5.941   2.994   8.883  0.6339 -1.7043  0.8355
  163SAPE  H17Y18389   5.827   2.862   8.875  0.6730 -0.8383  2.8370
  163SAPE  C31818390   5.786   2.993   9.037 -0.4354  0.0879 -0.1863
  163SAPE  H18X18391   5.816   2.912   9.107  2.4565  0.6074 -0.6896
  163SAPE  H18Y18392   5.676   3.007   9.040 -0.5531 -0.8949  0.5086
  163SAPE  H18Z18393   5.833   3.090   9.063  0.2732 -0.2742 -0.0877
  164SAPE     N18394   1.595   5.022   6.126  0.5395 -0.2244  0.2930
  164SAPE   HN118395   1.554   5.115   6.103  2.2169  0.1487 -1.3839
  164SAPE   HN218396   1.533   4.994   6.205 -2.6346 -1.0510 -2.2872
  164SAPE   HN318397   1.696   5.020   6.150  0.6573 -3.1410 -0.1651
  164SAPE   C1218398   1.566   4.939   6.007  0.1336  0.0749  0.0763
  164SAPE  H12A18399   1.614   4.839   6.018  0.8409  0.3466 -0.4821
  164SAPE  H12B18400   1.618   4.984   5.919  0.0546 -0.0427 -0.0318
  164SAPE   C1118401   1.415   4.912   5.984 -0.2497 -0.4017  0.0924
  164SAPE  H11A18402   1.386   4.840   5.905 -2.2528  0.4092  0.0049
  164SAPE  H11B18403   1.377   5.012   5.954 -0.2750 -0.7242 -0.9853
  164SAPE     P18404   1.330   4.729   6.162  0.0300  0.1020  0.0924
  164SAPE   O1318405   1.301   4.637   6.045 -0.2393 -1.2537  0.2651
  164SAPE   O1418406   1.454   4.709   6.242 -0.9858  0.9723  0.8013
  164SAPE   O1218407   1.339   4.874   6.094 -0.0562 -0.3315 -0.9873
  164SAPE   O1118408   1.205   4.753   6.257 -0.5361  0.1344  0.1570
  164SAPE    C118409   1.184   4.869   6.333  0.4462 -0.1308  0.6484
  164SAPE    HA18410   1.246   4.954   6.295  1.8762 -1.2825  0.2974
  164SAPE    HB18411   1.075   4.887   6.334  0.4191 -0.1523 -0.4673
  164SAPE    C218412   1.232   4.849   6.479  0.1618 -0.1647 -0.3477
  164SAPE    HS18413   1.342   4.865   6.472  0.2833 -1.7258 -2.9061
  164SAPE   O2118414   1.197   4.716   6.533 -0.2185 -0.5103 -0.1859
  164SAPE   C2118415   1.275   4.677   6.627 -0.0815  0.0177 -0.2771
  164SAPE   O2218416   1.385   4.717   6.648 -0.0841 -0.7332 -0.1189
  164SAPE   C2218417   1.219   4.550   6.701 -0.6386 -0.0327 -0.1146
  164SAPE   H2R18418   1.128   4.515   6.648 -0.4774 -1.6218  0.5979
  164SAPE   H2S18419   1.302   4.477   6.690  1.7309  2.0572  2.4037
  164SAPE    C318420   1.168   4.964   6.568  0.2828  0.3146 -0.5291
  164SAPE    HX18421   1.064   4.932   6.587  0.5690 -0.7246 -0.6687
  164SAPE    HY18422   1.169   5.062   6.516  1.9632  0.2779 -0.6085
  164SAPE   O3118423   1.223   4.970   6.704  0.0078 -0.1556 -0.2598
  164SAPE   C3118424   1.324   5.047   6.710 -0.4659  0.3291 -0.0281
  164SAPE   O3218425   1.367   5.111   6.610 -0.1881  0.2683  0.0663
  164SAPE   C3218426   1.380   5.052   6.851 -0.4465  0.2607  0.0161
  164SAPE   H2X18427   1.348   4.975   6.924  0.3725 -1.6621 -1.5329
  164SAPE   H2Y18428   1.335   5.146   6.890 -0.8338 -0.4589  1.3580
  164SAPE   C2318429   1.192   4.569   6.849 -0.0983  0.0875  0.6292
  164SAPE   H3R18430   1.271   4.630   6.898 -0.3336 -0.0402  1.1859
  164SAPE   H3S18431   1.207   4.468   6.894  0.8994 -0.0100  0.0996
  164SAPE   C2418432   1.072   4.649   6.875  0.0259 -0.0475 -0.7901
  164SAPE   H4R18433   1.087   4.755   6.844  2.7942 -0.8380 -2.4648
  164SAPE   H4S18434   1.068   4.666   6.985  1.8768  0.2905 -0.7503
  164SAPE   C2518435   0.940   4.594   6.831  0.2293  0.7329 -0.4155
  164SAPE   H5R18436   0.911   4.626   6.729 -0.8589  0.9368 -0.0555
  164SAPE   C2618437   0.859   4.518   6.910 -0.2957  0.4352  0.2061
  164SAPE   H6R18438   0.755   4.496   6.884 -0.6968  0.4810  1.7003
  164SAPE   C2718439   0.896   4.461   7.053  0.4377  0.4126  0.2870
  164SAPE   H7R18440   1.006   4.444   7.054  0.1591 -1.7605 -0.5637
  164SAPE   H7S18441   0.864   4.355   7.059  1.9136 -0.1179 -0.6368
  164SAPE   C2818442   0.841   4.548   7.161  0.4264  0.9222 -0.1712
  164SAPE   H8R18443   0.751   4.610   7.146  0.5347  1.1492  0.1038
  164SAPE   C2918444   0.896   4.565   7.284 -0.3648 -0.3974  0.6123
  164SAPE   H9R18445   0.850   4.637   7.353  1.6969  0.1742  1.4888
  164SAPE  C21018446   1.018   4.497   7.341  0.7661  0.7086 -0.3881
  164SAPE  H10R18447   1.082   4.460   7.258  1.4262  3.1008 -1.0079
  164SAPE  H10S18448   0.987   4.422   7.417  0.4890  2.6255  1.4938
  164SAPE  C21118449   1.087   4.601   7.423 -0.1661 -0.1765  0.1359
  164SAPE  H11R18450   1.154   4.671   7.370 -2.4000  1.7993 -0.2667
  164SAPE  C21218451   1.057   4.625   7.551  0.6016 -0.1130 -0.0474
  164SAPE  H12R18452   1.125   4.693   7.605 -0.4258  1.1642 -0.3370
  164SAPE  C21318453   0.946   4.569   7.640  0.5638  0.5491  0.0457
  164SAPE  H13R18454   0.988   4.492   7.709 -0.5525 -2.0901 -2.0266
  164SAPE  H13S18455   0.866   4.523   7.578 -0.4527  2.8971 -0.5133
  164SAPE  C21418456   0.892   4.685   7.724  0.3538  0.7055 -0.6568
  164SAPE  H14R18457   0.804   4.733   7.680 -0.0396 -0.6579 -1.4236
  164SAPE  C21518458   0.944   4.738   7.836  0.6816  0.3351 -0.1030
  164SAPE  H15R18459   0.906   4.830   7.883  1.2761  0.8618 -0.6232
  164SAPE  C21618460   1.066   4.693   7.905 -0.0354 -0.4547  0.0766
  164SAPE  H16R18461   1.134   4.781   7.913  0.6881 -0.8814 -1.0187
  164SAPE  H16S18462   1.125   4.620   7.846 -2.3697 -2.8818  0.5510
  164SAPE  C21718463   1.038   4.633   8.040  0.4602  0.2337 -0.1383
  164SAPE  H17R18464   1.134   4.605   8.087  0.5230 -1.4310 -1.1779
  164SAPE  H17S18465   0.986   4.538   8.014  2.4647 -0.5435 -1.5719
  164SAPE  C21818466   0.951   4.712   8.142  0.0216 -0.1169 -0.1697
  164SAPE  H18R18467   0.914   4.641   8.218  1.2949 -1.3633 -0.6819
  164SAPE  H18S18468   0.868   4.760   8.085 -0.0778 -0.3463 -0.2153
  164SAPE  C21918469   1.026   4.820   8.211 -0.0531 -0.2864  0.1308
  164SAPE  H19R18470   0.951   4.890   8.254  0.3509  0.3441 -0.1756
  164SAPE  H19S18471   1.076   4.888   8.139 -1.6047 -0.5086 -1.2058
  164SAPE  C22018472   1.120   4.778   8.328  1.1470 -0.3164 -0.0399
  164SAPE  H20R18473   1.151   4.870   8.381  0.8744  0.6494 -1.5045
  164SAPE  H20S18474   1.216   4.738   8.290 -0.9510 -4.4830 -1.5318
  164SAPE  H20T18475   1.065   4.707   8.394 -0.3351  1.3899  0.6460
  164SAPE   C3318476   1.533   5.066   6.875  0.4558 -0.2560  1.1461
  164SAPE   H3X18477   1.571   5.160   6.829  0.6839 -0.2146  1.4182
  164SAPE   H3Y18478   1.593   4.995   6.814 -0.5189  0.7543 -1.1036
  164SAPE   C3418479   1.573   5.063   7.020  0.1699  0.3284 -0.2205
  164SAPE   H4X18480   1.516   5.144   7.070  1.8872  0.4886  1.5958
  164SAPE   H4Y18481   1.676   5.100   7.036 -0.5950  2.0195  1.1370
  164SAPE   C3518482   1.565   4.928   7.093 -0.8470 -0.3111  0.5414
  164SAPE   H5X18483   1.621   4.860   7.026 -1.4204 -0.6219  0.3648
  164SAPE   H5Y18484   1.457   4.903   7.102 -1.3278  1.1064 -0.7483
  164SAPE   C3618485   1.627   4.926   7.230  0.2159 -0.2972 -0.1336
  164SAPE   H6X18486   1.564   4.988   7.298 -0.4322 -1.2833  0.1892
  164SAPE   H6Y18487   1.734   4.955   7.225  0.2285 -0.5400 -3.2276
  164SAPE   C3718488   1.634   4.777   7.288 -0.2131 -0.3097 -0.3700
  164SAPE   H7X18489   1.705   4.777   7.374 -0.7689 -1.0783  0.0936
  164SAPE   H7Y18490   1.680   4.725   7.201 -0.3725  1.7200 -1.7427
  164SAPE   C3818491   1.506   4.722   7.344  0.3373 -0.6519  0.3101
  164SAPE   H8X18492   1.513   4.616   7.378 -2.3606  0.0733  3.6995
  164SAPE   H8Y18493   1.426   4.731   7.267  0.0896 -0.6484  0.5655
  164SAPE   C3918494   1.451   4.785   7.479 -0.0297 -0.6943  1.0163
  164SAPE   H9X18495   1.343   4.759   7.485 -0.7594  1.5937 -0.8413
  164SAPE   H9Y18496   1.453   4.895   7.464 -1.4473 -0.6136  1.3286
  164SAPE  C31018497   1.525   4.754   7.605 -0.1407 -0.1942 -0.0829
  164SAPE  H10X18498   1.632   4.784   7.612 -0.0723 -0.5210  0.3849
  164SAPE  H10Y18499   1.541   4.644   7.619  2.1247  0.0844  0.0010
  164SAPE  C31118500   1.447   4.785   7.732 -0.3828 -0.8323  0.7309
  164SAPE  H11X18501   1.369   4.708   7.746  1.3279 -2.9242 -0.5801
  164SAPE  H11Y18502   1.409   4.890   7.728  1.9756  0.0538 -0.0081
  164SAPE  C31218503   1.540   4.774   7.857  0.4435 -0.1703  0.6969
  164SAPE  H12X18504   1.604   4.864   7.846 -1.0476  0.7352 -1.0677
  164SAPE  H12Y18505   1.613   4.692   7.836 -1.0387 -0.9281 -1.9695
  164SAPE  C31318506   1.480   4.764   7.998 -0.7754  0.5786 -0.9404
  164SAPE  H13X18507   1.418   4.678   8.030 -2.6883  2.1443 -0.1912
  164SAPE  H13Y18508   1.406   4.847   8.005 -2.0513 -0.6084  0.4739
  164SAPE  C31418509   1.579   4.794   8.119 -0.4172  0.1703  0.0134
  164SAPE  H14X18510   1.617   4.895   8.094  1.2068 -0.1653  1.0171
  164SAPE  H14Y18511   1.662   4.720   8.121 -0.1798  0.4324 -0.0451
  164SAPE  C31518512   1.514   4.796   8.253  0.3646  0.7743  0.1116
  164SAPE  H15X18513   1.490   4.689   8.269  3.2076 -0.5292 -3.1645
  164SAPE  H15Y18514   1.426   4.865   8.254 -1.1660 -1.0894  1.2629
  164SAPE  C31618515   1.615   4.834   8.363 -0.5113 -0.2810  0.1555
  164SAPE  H16X18516   1.650   4.939   8.347 -2.0592  0.2928  0.4112
  164SAPE  H16Y18517   1.707   4.775   8.345 -0.6727 -0.5653  0.2657
  164SAPE  C31718518   1.568   4.826   8.495  0.1581  0.4014 -0.7736
  164SAPE  H17X18519   1.645   4.819   8.574  0.5424 -2.9025 -1.3120
  164SAPE  H17Y18520   1.497   4.744   8.519 -0.2771  1.5761  2.4341
  164SAPE  C31818521   1.486   4.949   8.531  0.3394 -0.5468  0.1608
  164SAPE  H18X18522   1.474   4.942   8.641 -1.3758  1.1808  0.1441
  164SAPE  H18Y18523   1.390   4.948   8.476 -0.4836 -1.3588  1.5601
  164SAPE  H18Z18524   1.553   5.037   8.517  0.6525 -0.8722 -0.4333
  165SAPE     N18525   3.313   5.138   6.002 -0.1478 -0.1979 -0.0531
  165SAPE   HN118526   3.366   5.227   6.012  2.2169 -1.5232 -0.0348
  165SAPE   HN218527   3.355   5.078   6.076  2.0110  1.8621  0.5259
  165SAPE   HN318528   3.331   5.103   5.906 -0.8990  1.0121 -0.6570
  165SAPE   C1218529   3.160   5.152   6.024  0.4577  0.8766  0.7037
  165SAPE  H12A18530   3.115   5.059   5.982  0.0601  1.2532  0.2832
  165SAPE  H12B18531   3.135   5.240   5.961 -1.3852 -0.0422  0.0817
  165SAPE   C1118532   3.125   5.179   6.166  0.4131  1.0174  0.1632
  165SAPE  H11A18533   3.178   5.101   6.225  1.0972  2.2669  1.2481
  165SAPE  H11B18534   3.016   5.159   6.160  0.6788 -0.2475 -1.5362
  165SAPE     P18535   3.089   5.438   6.206 -0.0833  0.0811 -0.1474
  165SAPE   O1318536   3.159   5.529   6.115 -0.2213  0.3250  0.3615
  165SAPE   O1418537   2.945   5.412   6.178  0.1515 -0.1456  0.5576
  165SAPE   O1218538   3.168   5.303   6.217  0.2381 -0.1168  0.2561
  165SAPE   O1118539   3.102   5.498   6.356  0.0089 -0.2901  0.5871
  165SAPE    C118540   3.084   5.424   6.474  0.2867  0.5135 -1.2495
  165SAPE    HA18541   3.011   5.343   6.451  0.8621  0.3652 -2.5955
  165SAPE    HB18542   3.183   5.390   6.511  0.6982  2.3856 -0.5115
  165SAPE    C218543   3.020   5.514   6.583  0.4096 -0.2469  0.4840
  165SAPE    HS18544   2.920   5.537   6.541  1.0860  0.9756 -0.5412
  165SAPE   O2118545   3.098   5.632   6.595 -0.2414 -0.3198 -0.2676
  165SAPE   C2118546   3.036   5.746   6.634  1.0572 -0.1074  0.6703
  165SAPE   O2218547   2.915   5.760   6.654 -0.2169  0.2133  0.2854
  165SAPE   C2218548   3.143   5.866   6.641  0.2927  0.2289  0.6499
  165SAPE   H2R18549   3.247   5.835   6.617  0.1286  1.0599 -1.3203
  165SAPE   H2S18550   3.106   5.951   6.579 -0.3724  1.1937  2.2925
  165SAPE    C318551   2.995   5.441   6.721  0.0670 -0.7369 -0.5244
  165SAPE    HX18552   2.927   5.357   6.693 -2.1377  0.1263  1.8296
  165SAPE    HY18553   2.957   5.522   6.787  1.2564 -0.6384  0.0559
  165SAPE   O3118554   3.112   5.383   6.778  0.4699 -0.4042 -0.6116
  165SAPE   C3118555   3.200   5.453   6.851 -0.3626  0.5399  0.3709
  165SAPE   O3218556   3.175   5.568   6.888  0.5814  0.0023 -0.3732
  165SAPE   C3218557   3.325   5.364   6.878 -0.0035  0.0437 -0.8250
  165SAPE   H2X18558   3.392   5.373   6.790  0.5881  0.3672 -0.3456
  165SAPE   H2Y18559   3.298   5.256   6.876  2.7074 -0.6978 -1.8272
  165SAPE   C2318560   3.142   5.917   6.782  0.4753 -0.2115 -0.1212
  165SAPE   H3R18561   3.180   5.846   6.858  0.1680 -0.8170 -0.5318
  165SAPE   H3S18562   3.035   5.939   6.805  0.7352 -0.7539  1.8264
  165SAPE   C2418563   3.226   6.045   6.818  0.2816 -0.0826 -0.7419
  165SAPE   H4R18564   3.207   6.117   6.735  3.1963  0.3916 -1.0985
  165SAPE   H4S18565   3.333   6.016   6.806  0.9464  2.6069 -1.8922
  165SAPE   C2518566   3.206   6.102   6.959  0.9853  0.6857 -0.4192
  165SAPE   H5R18567   3.142   6.192   6.955  1.9293  1.3629 -0.8149
  165SAPE   C2618568   3.240   6.040   7.074  0.5370  0.2507 -0.6074
  165SAPE   H6R18569   3.246   6.092   7.171 -1.2485  0.6019 -0.6520
  165SAPE   C2718570   3.290   5.900   7.085 -0.2074 -0.8061 -0.0185
  165SAPE   H7R18571   3.383   5.892   7.145  0.2576 -1.4002 -0.7892
  165SAPE   H7S18572   3.325   5.860   6.987  0.5664 -2.2435  0.8001
  165SAPE   C2818573   3.186   5.814   7.138  0.0652 -0.6040 -0.0029
  165SAPE   H8R18574   3.119   5.772   7.062 -0.5461  0.3754 -0.0223
  165SAPE   C2918575   3.176   5.771   7.267  0.0103  0.2000  0.4841
  165SAPE   H9R18576   3.094   5.706   7.302 -1.4161  0.9577 -1.3116
  165SAPE  C21018577   3.275   5.806   7.380  0.4620 -0.7890  0.3753
  165SAPE  H10R18578   3.210   5.864   7.449 -0.1551  0.9752 -1.5666
  165SAPE  H10S18579   3.354   5.877   7.347 -2.2579  1.4977 -1.7161
  165SAPE  C21118580   3.331   5.672   7.438  0.9474 -0.1009 -0.1731
  165SAPE  H11R18581   3.379   5.606   7.364 -2.4415 -1.6796 -1.1740
  165SAPE  C21218582   3.302   5.622   7.558  0.2191  0.5893  1.1779
  165SAPE  H12R18583   3.328   5.517   7.573 -1.6413 -0.3176 -1.2572
  165SAPE  C21318584   3.219   5.681   7.667 -0.2962 -0.2167  0.2497
  165SAPE  H13R18585   3.203   5.610   7.751 -0.4497 -1.1748 -0.5680
  165SAPE  H13S18586   3.118   5.713   7.634  1.5377  2.1778 -3.7299
  165SAPE  C21418587   3.280   5.808   7.718 -0.3392  0.1858 -0.6538
  165SAPE  H14R18588   3.356   5.851   7.650  0.9945 -2.5639 -1.0190
  165SAPE  C21518589   3.255   5.861   7.842  0.0681  0.0232  0.4026
  165SAPE  H15R18590   3.292   5.964   7.852  0.2771  0.4626 -3.3433
  165SAPE  C21618591   3.164   5.817   7.950  0.2223  0.0416 -0.1838
  165SAPE  H16R18592   3.131   5.711   7.949  0.2068  0.0359  0.3370
  165SAPE  H16S18593   3.076   5.885   7.952  0.6001  0.6929  4.1257
  165SAPE  C21718594   3.233   5.825   8.084 -0.8093 -0.2643  0.0813
  165SAPE  H17R18595   3.242   5.932   8.110  0.7000  0.1563 -1.9700
  165SAPE  H17S18596   3.334   5.779   8.091 -0.5385  0.5622  4.3731
  165SAPE  C21818597   3.143   5.756   8.197 -0.7601  0.0948 -0.5628
  165SAPE  H18R18598   3.130   5.647   8.181 -0.0365  0.0413 -0.8558
  165SAPE  H18S18599   3.037   5.786   8.186 -0.7893  0.0586 -0.3879
  165SAPE  C21918600   3.193   5.786   8.343  0.3743  0.0315  0.3483
  165SAPE  H19R18601   3.297   5.748   8.356  0.0019 -2.0355 -1.8156
  165SAPE  H19S18602   3.136   5.714   8.405  0.5321  0.5821  1.1383
  165SAPE  C22018603   3.170   5.924   8.390  0.1465  0.1326  0.3571
  165SAPE  H20R18604   3.063   5.956   8.388  1.0340  3.5185 -0.3482
  165SAPE  H20S18605   3.224   6.003   8.333  0.3465 -0.4453 -0.2601
  165SAPE  H20T18606   3.206   5.951   8.492  1.6355  0.5755 -0.2626
  165SAPE   C3318607   3.396   5.402   7.003  0.5017 -0.0569  0.0828
  165SAPE   H3X18608   3.383   5.508   7.030  0.8067  0.1905 -0.6997
  165SAPE   H3Y18609   3.506   5.389   6.995  0.7605  2.2894 -1.0821
  165SAPE   C3418610   3.341   5.312   7.122  0.0623 -0.3839  0.1536
  165SAPE   H4X18611   3.325   5.206   7.091  0.3617 -0.4340  0.1627
  165SAPE   H4Y18612   3.244   5.351   7.158 -0.7561 -1.6071 -0.6635
  165SAPE   C3518613   3.438   5.319   7.242 -0.7178  0.0591 -0.1964
  165SAPE   H5X18614   3.441   5.423   7.281  0.6858  0.9794 -2.6068
  165SAPE   H5Y18615   3.540   5.286   7.215 -0.1466  1.1236  0.5680
  165SAPE   C3618616   3.385   5.219   7.352  0.2024 -0.1244  0.0318
  165SAPE   H6X18617   3.380   5.119   7.304 -1.5238 -0.7002  1.3281
  165SAPE   H6Y18618   3.281   5.252   7.369 -0.0260  0.0608 -1.5887
  165SAPE   C3718619   3.448   5.230   7.496 -0.3453  0.0029  0.6362
  165SAPE   H7X18620   3.461   5.337   7.522 -0.8644  0.5278 -1.1221
  165SAPE   H7Y18621   3.550   5.186   7.491  0.7280  2.4605 -1.3928
  165SAPE   C3818622   3.358   5.179   7.606  0.3977 -0.2552 -0.0623
  165SAPE   H8X18623   3.316   5.078   7.586 -0.6289 -0.9515  4.4096
  165SAPE   H8Y18624   3.269   5.244   7.622 -0.6353 -1.6471  0.0253
  165SAPE   C3918625   3.439   5.166   7.741  0.5211  0.6006 -0.6584
  165SAPE   H9X18626   3.484   5.266   7.762 -2.2606  2.2255 -1.8684
  165SAPE   H9Y18627   3.521   5.093   7.725 -0.7522 -1.0620  0.1414
  165SAPE  C31018628   3.360   5.129   7.868  0.7075 -0.3442 -0.2586
  165SAPE  H10X18629   3.269   5.191   7.879  0.7227 -0.3224 -0.2563
  165SAPE  H10Y18630   3.426   5.163   7.950  1.7482 -1.9418 -0.3886
  165SAPE  C31118631   3.338   4.975   7.891 -0.4508 -0.3151 -0.1167
  165SAPE  H11X18632   3.439   4.937   7.916 -0.2808 -1.8693 -2.7952
  165SAPE  H11Y18633   3.316   4.927   7.793  3.1868  0.3352 -1.3890
  165SAPE  C31218634   3.237   4.963   8.004  0.1896  0.0420  0.4786
  165SAPE  H12X18635   3.133   4.979   7.969 -0.1117  0.7970  1.6512
  165SAPE  H12Y18636   3.270   5.046   8.070  1.8518  1.0635 -1.5262
  165SAPE  C31318637   3.246   4.833   8.090  0.3361 -0.3328 -0.6730
  165SAPE  H13X18638   3.354   4.813   8.108 -0.1108 -0.9457  1.6833
  165SAPE  H13Y18639   3.201   4.747   8.036  1.3437  0.1075 -2.3016
  165SAPE  C31418640   3.189   4.841   8.237  0.0467 -0.2653  0.2090
  165SAPE  H14X18641   3.082   4.819   8.217  0.2504 -1.1162  0.0391
  165SAPE  H14Y18642   3.192   4.942   8.284 -3.9860 -0.5981  1.5811
  165SAPE  C31518643   3.248   4.748   8.344  0.0998 -0.5233  0.1830
  165SAPE  H15X18644   3.168   4.739   8.421  0.2659  0.0482  0.4272
  165SAPE  H15Y18645   3.337   4.795   8.390 -0.0785 -0.2153  0.2155
  165SAPE  C31618646   3.289   4.613   8.293  0.8620 -0.1748 -0.0302
  165SAPE  H16X18647   3.372   4.631   8.221  0.1967  0.2201 -0.7129
  165SAPE  H16Y18648   3.214   4.561   8.231  2.4739 -2.5992 -0.0499
  165SAPE  C31718649   3.335   4.525   8.412 -0.8389 -0.3343  0.3129
  165SAPE  H17X18650   3.434   4.564   8.445 -0.6851 -0.1948 -0.2967
  165SAPE  H17Y18651   3.357   4.424   8.373  0.1159  0.6720 -1.9368
  165SAPE  C31818652   3.254   4.505   8.545  0.1839 -0.6588  0.0230
  165SAPE  H18X18653   3.163   4.444   8.529  0.5901 -0.9293 -1.4055
  165SAPE  H18Y18654   3.233   4.604   8.590 -2.7778 -1.3022  0.2734
  165SAPE  H18Z18655   3.321   4.446   8.611  0.6952 -0.6979 -0.5207
  166SAPE     N18656   1.718   3.433   5.905  0.4254 -0.5610 -0.5061
  166SAPE   HN118657   1.753   3.525   5.940 -0.8926 -0.1412 -0.2304
  166SAPE   HN218658   1.683   3.453   5.809 -0.7414 -0.5581 -0.0903
  166SAPE   HN318659   1.644   3.395   5.967  0.9193 -0.2648  0.2844
  166SAPE   C1218660   1.841   3.353   5.916  0.4123  0.7428 -0.1759
  166SAPE  H12A18661   1.820   3.246   5.893 -1.5386  0.8305  0.9956
  166SAPE  H12B18662   1.862   3.355   6.025 -1.2058  1.2167  0.1505
  166SAPE   C1118663   1.958   3.413   5.843 -0.4811 -0.1368 -0.0434
  166SAPE  H11A18664   1.931   3.424   5.735  0.9169 -1.5725 -0.5886
  166SAPE  H11B18665   2.043   3.343   5.829 -0.1844  0.8073 -4.4391
  166SAPE     P18666   2.130   3.547   5.977 -0.1111 -0.4224 -0.6817
  166SAPE   O1318667   2.238   3.489   5.892  0.2783 -0.4647 -0.3896
  166SAPE   O1418668   2.139   3.680   6.037  0.0304 -0.1754  0.1877
  166SAPE   O1218669   1.997   3.536   5.903  0.0288 -0.4444 -0.3251
  166SAPE   O1118670   2.101   3.446   6.097 -0.3274 -0.0610 -0.0608
  166SAPE    C118671   2.006   3.466   6.194  0.4369 -0.4415 -0.0299
  166SAPE    HA18672   1.929   3.539   6.161  1.2160  1.2066  1.6488
  166SAPE    HB18673   1.959   3.367   6.211  0.4647 -0.1274  2.1220
  166SAPE    C218674   2.064   3.511   6.332 -0.5318 -0.4441  0.5275
  166SAPE    HS18675   2.117   3.607   6.310  0.0999 -0.5308  1.5822
  166SAPE   O2118676   2.140   3.406   6.399 -0.7831 -0.1107  0.0000
  166SAPE   C2118677   2.267   3.424   6.387  0.2964 -0.3243  0.5042
  166SAPE   O2218678   2.323   3.525   6.347 -0.2704  0.2904  0.4924
  166SAPE   C2218679   2.345   3.304   6.446  0.0070 -0.9311  0.4976
  166SAPE   H2R18680   2.371   3.227   6.370  0.1580  0.3560 -0.7974
  166SAPE   H2S18681   2.447   3.342   6.469  0.1996 -0.1951 -1.3944
  166SAPE    C318682   1.952   3.551   6.430 -0.0984  0.1625 -1.1241
  166SAPE    HX18683   1.915   3.457   6.477  0.8798  0.0824 -0.4831
  166SAPE    HY18684   1.865   3.586   6.371  0.0104 -1.1015 -2.0968
  166SAPE   O3118685   2.000   3.652   6.529  0.4385 -0.0809 -0.5797
  166SAPE   C3118686   1.902   3.724   6.592  0.1677  0.5712  0.8959
  166SAPE   O3218687   1.788   3.733   6.543  0.3061 -0.3894  0.1868
  166SAPE   C3218688   1.961   3.800   6.712  0.5899 -0.3608 -0.1975
  166SAPE   H2X18689   2.029   3.875   6.667  0.2306  0.3985  0.5080
  166SAPE   H2Y18690   2.025   3.733   6.775  1.6239  0.2776 -0.5476
  166SAPE   C2318691   2.289   3.254   6.578  0.0287  0.4591 -0.0589
  166SAPE   H3R18692   2.353   3.183   6.635 -0.4043  0.3573  0.3046
  166SAPE   H3S18693   2.201   3.188   6.561  0.3412 -0.1481  0.6294
  166SAPE   C2418694   2.249   3.370   6.668 -0.3043  0.7465 -0.4972
  166SAPE   H4R18695   2.159   3.419   6.625 -0.4266  1.7963  0.9103
  166SAPE   H4S18696   2.331   3.445   6.671  1.6793 -1.2490 -1.5529
  166SAPE   C2518697   2.220   3.326   6.814  0.4596 -0.4641 -0.8884
  166SAPE   H5R18698   2.114   3.298   6.824 -0.1458  1.8306 -0.0517
  166SAPE   C2618699   2.301   3.318   6.914 -0.1036 -0.0044 -0.4308
  166SAPE   H6R18700   2.257   3.298   7.013 -1.7439  0.6999 -0.9729
  166SAPE   C2718701   2.451   3.353   6.909  0.3394  0.0019  0.3851
  166SAPE   H7R18702   2.456   3.454   6.955 -0.2177  1.4746 -2.5388
  166SAPE   H7S18703   2.491   3.368   6.807  2.7799 -0.4922  1.2045
  166SAPE   C2818704   2.555   3.266   6.974 -0.6157  0.3796  0.4443
  166SAPE   H8R18705   2.631   3.233   6.902 -2.3032  1.5205 -2.0020
  166SAPE   C2918706   2.574   3.241   7.105  0.3852  0.9688  0.6150
  166SAPE   H9R18707   2.667   3.190   7.134 -0.7037 -2.0427 -0.7657
  166SAPE  C21018708   2.493   3.295   7.217 -0.4513  0.1507 -0.3294
  166SAPE  H10R18709   2.395   3.242   7.220  0.7696 -2.3338 -1.5856
  166SAPE  H10S18710   2.467   3.399   7.187 -3.8655 -0.7004 -0.8121
  166SAPE  C21118711   2.568   3.294   7.348  0.0515 -0.0488 -0.7838
  166SAPE  H11R18712   2.673   3.325   7.335 -0.0797  0.3868 -0.8386
  166SAPE  C21218713   2.521   3.275   7.476  0.2919  0.1916  0.2930
  166SAPE  H12R18714   2.594   3.263   7.557  0.8048  0.2861 -0.1475
  166SAPE  C21318715   2.374   3.245   7.512 -0.3235 -0.3511 -0.5697
  166SAPE  H13R18716   2.310   3.234   7.421 -1.4763  1.0018  0.0352
  166SAPE  H13S18717   2.322   3.331   7.559  0.6039 -0.9322  1.6340
  166SAPE  C21418718   2.362   3.117   7.593 -0.4961 -0.4092  0.1360
  166SAPE  H14R18719   2.402   3.030   7.540 -0.0403 -1.5367  2.2165
  166SAPE  C21518720   2.319   3.104   7.717 -0.0219 -0.3171 -0.4115
  166SAPE  H15R18721   2.306   3.005   7.764 -1.8869 -0.8910 -2.0382
  166SAPE  C21618722   2.253   3.209   7.803  0.8936  0.3402  0.1336
  166SAPE  H16R18723   2.143   3.197   7.791  0.7686  0.2075  1.3653
  166SAPE  H16S18724   2.265   3.311   7.761 -1.7393  0.1925 -1.2074
  166SAPE  C21718725   2.269   3.189   7.959 -0.3829 -0.5267 -0.9761
  166SAPE  H17R18726   2.235   3.088   7.992 -0.1435 -0.5510 -0.7968
  166SAPE  H17S18727   2.202   3.264   8.008  1.7044  0.6616  0.1956
  166SAPE  C21818728   2.401   3.226   8.020  0.2411 -0.1046  0.2026
  166SAPE  H18R18729   2.435   3.328   7.994  0.0823  0.4241  1.9927
  166SAPE  H18S18730   2.473   3.152   7.979  0.6101  0.8175 -0.8575
  166SAPE  C21918731   2.412   3.208   8.173 -0.1280 -0.0925 -0.0159
  166SAPE  H19R18732   2.521   3.208   8.192 -0.2863  2.0624  1.2654
  166SAPE  H19S18733   2.368   3.108   8.193  2.4776 -1.4716 -0.6844
  166SAPE  C22018734   2.337   3.313   8.266 -0.2507  0.5823 -0.4951
  166SAPE  H20R18735   2.291   3.259   8.352  1.3690 -0.2139 -0.0821
  166SAPE  H20S18736   2.247   3.352   8.215 -1.0453 -2.0813 -1.2460
  166SAPE  H20T18737   2.400   3.399   8.297 -0.5733  1.3550 -1.9053
  166SAPE   C3318738   1.852   3.862   6.805 -0.0958  0.1746 -0.0379
  166SAPE   H3X18739   1.810   3.780   6.867 -0.2778  0.2428 -0.0730
  166SAPE   H3Y18740   1.775   3.925   6.756  0.9256  0.5172 -1.2768
  166SAPE   C3418741   1.925   3.937   6.917 -0.1378  0.3871 -0.6575
  166SAPE   H4X18742   1.980   4.012   6.856 -0.7093 -0.0592 -1.7359
  166SAPE   H4Y18743   2.000   3.869   6.963 -2.2526 -1.2168  0.6391
  166SAPE   C3518744   1.822   3.986   7.017  0.0299 -0.1201 -0.0595
  166SAPE   H5X18745   1.724   3.995   6.966 -0.4501 -1.1444  0.6505
  166SAPE   H5Y18746   1.855   4.088   7.046 -0.4357  0.5471 -1.7625
  166SAPE   C3618747   1.805   3.895   7.143 -0.4178 -0.1404  0.2023
  166SAPE   H6X18748   1.912   3.873   7.163  1.0344  3.7304 -2.3180
  166SAPE   H6Y18749   1.758   3.799   7.111 -0.8060  0.5979 -1.5582
  166SAPE   C3718750   1.732   3.963   7.263 -0.7432  0.1004  0.0366
  166SAPE   H7X18751   1.628   3.977   7.228 -0.4931  0.4007 -0.5898
  166SAPE   H7Y18752   1.770   4.067   7.269 -0.0375 -0.0563 -1.2990
  166SAPE   C3818753   1.750   3.899   7.398  0.7220 -0.1232  0.2713
  166SAPE   H8X18754   1.854   3.862   7.413  0.3848 -2.0674 -1.5621
  166SAPE   H8Y18755   1.686   3.809   7.404  0.7665 -0.1905 -0.2163
  166SAPE   C3918756   1.718   3.993   7.511 -0.0985  1.1688 -0.2096
  166SAPE   H9X18757   1.632   4.057   7.480 -1.3486  0.2379  1.2144
  166SAPE   H9Y18758   1.807   4.059   7.522  1.7584 -1.3433  0.6809
  166SAPE  C31018759   1.674   3.930   7.643 -0.3108  0.1570  0.2968
  166SAPE  H10X18760   1.582   3.868   7.637 -0.5671  0.6426 -1.2375
  166SAPE  H10Y18761   1.643   4.013   7.709  0.5854 -0.6914  1.8334
  166SAPE  C31118762   1.779   3.840   7.717  1.0479  0.1557  0.7373
  166SAPE  H11X18763   1.872   3.900   7.714  0.0431  1.7554 -0.6271
  166SAPE  H11Y18764   1.789   3.742   7.666  0.1073 -0.8811  2.4300
  166SAPE  C31218765   1.752   3.823   7.865  0.0556  0.3847  0.0648
  166SAPE  H12X18766   1.739   3.913   7.928 -0.5379  0.0155  0.4893
  166SAPE  H12Y18767   1.831   3.764   7.916 -1.0419  1.4493  3.2176
  166SAPE  C31318768   1.616   3.759   7.889 -0.2839  0.3537 -0.1478
  166SAPE  H13X18769   1.607   3.676   7.815  1.2241 -1.1751  1.3018
  166SAPE  H13Y18770   1.548   3.841   7.857 -2.9827 -0.4106  3.1181
  166SAPE  C31418771   1.577   3.722   8.033  0.2877  0.0404  0.2456
  166SAPE  H14X18772   1.669   3.674   8.073 -0.3058 -0.2635  1.2538
  166SAPE  H14Y18773   1.491   3.653   8.039 -1.2585  1.6283 -1.8291
  166SAPE  C31518774   1.548   3.849   8.121  0.0988 -0.1875 -0.2445
  166SAPE  H15X18775   1.449   3.891   8.094 -0.4239 -1.0836  0.1911
  166SAPE  H15Y18776   1.626   3.926   8.107 -1.0899  0.6681 -2.6312
  166SAPE  C31618777   1.524   3.820   8.274  0.3501  0.2100 -0.5246
  166SAPE  H16X18778   1.489   3.913   8.323  0.5044 -0.7377  1.5047
  166SAPE  H16Y18779   1.620   3.795   8.323  0.6098  0.8473 -0.6950
  166SAPE  C31718780   1.425   3.704   8.290 -0.2202  0.1874  0.8553
  166SAPE  H17X18781   1.476   3.605   8.291 -1.8445 -0.7171  0.0911
  166SAPE  H17Y18782   1.357   3.703   8.202  0.5677  1.5348  0.2076
  166SAPE  C31818783   1.340   3.696   8.420  0.1259  0.1654  0.1504
  166SAPE  H18X18784   1.280   3.789   8.423 -1.7924 -0.7361 -3.6559
  166SAPE  H18Y18785   1.401   3.686   8.513  0.3364 -0.7800 -0.0783
  166SAPE  H18Z18786   1.276   3.605   8.410  2.6091 -1.6014 -0.5806
  167SAPE     N18787   1.230   4.182   5.937  0.3363 -0.1862 -0.0313
  167SAPE   HN118788   1.259   4.089   5.902  3.2616  0.0006  1.6440
  167SAPE   HN218789   1.139   4.168   5.986 -0.2073  0.0644 -0.9463
  167SAPE   HN318790   1.215   4.242   5.853 -0.6420  0.5045  0.6097
  167SAPE   C1218791   1.337   4.236   6.027 -0.1954 -0.0935 -1.0942
  167SAPE  H12A18792   1.332   4.345   6.044 -0.0439  0.1195 -2.3885
  167SAPE  H12B18793   1.435   4.229   5.977 -0.6385  0.2069 -2.0152
  167SAPE   C1118794   1.335   4.163   6.165 -0.0244 -0.4220 -0.3717
  167SAPE  H11A18795   1.237   4.186   6.212  0.7010  1.2922  0.3801
  167SAPE  H11B18796   1.419   4.210   6.219  1.7244 -0.9284 -2.4973
  167SAPE     P18797   1.488   3.959   6.188 -0.2530 -0.0726  0.7744
  167SAPE   O1318798   1.509   3.826   6.124 -0.1884 -0.5679  0.4888
  167SAPE   O1418799   1.592   4.061   6.158  0.0743 -0.3767 -0.2185
  167SAPE   O1218800   1.345   4.019   6.148 -0.1531  0.7017 -0.8682
  167SAPE   O1118801   1.485   3.936   6.343  0.4397 -0.1815  0.6774
  167SAPE    C118802   1.358   3.923   6.406  0.3416 -0.0602 -0.1827
  167SAPE    HA18803   1.289   4.002   6.370  1.5676  0.2194 -2.1175
  167SAPE    HB18804   1.307   3.825   6.394 -0.0975  0.2824 -1.3110
  167SAPE    C218805   1.378   3.951   6.559 -0.8923 -0.1627  0.6680
  167SAPE    HS18806   1.283   3.969   6.612 -0.4210 -0.5646  1.6700
  167SAPE   O2118807   1.481   4.047   6.583  0.0775  0.2288 -0.1138
  167SAPE   C2118808   1.460   4.169   6.553 -0.2778 -0.2548 -0.0502
  167SAPE   O2218809   1.357   4.223   6.514  0.4287  0.4039  0.2488
  167SAPE   C2218810   1.592   4.243   6.553 -0.1054  0.8734  0.5629
  167SAPE   H2R18811   1.676   4.182   6.592  1.2125  0.9063 -1.9824
  167SAPE   H2S18812   1.623   4.258   6.447  3.1624 -0.5629  1.2102
  167SAPE    C318813   1.435   3.817   6.619 -0.1029 -0.1034  0.7373
  167SAPE    HX18814   1.537   3.795   6.582 -0.3770 -1.1938  0.6043
  167SAPE    HY18815   1.357   3.746   6.584  0.4218  0.2303 -1.2519
  167SAPE   O3118816   1.430   3.839   6.766 -0.5384  0.0257 -0.1385
  167SAPE   C3118817   1.443   3.735   6.841 -0.1961 -0.0430  0.0804
  167SAPE   O3218818   1.448   3.619   6.805  0.0378  0.3494 -0.2920
  167SAPE   C3218819   1.446   3.793   6.981 -0.2438 -0.1920 -0.2143
  167SAPE   H2X18820   1.358   3.858   6.995  2.1345  3.1378  0.4146
  167SAPE   H2Y18821   1.530   3.862   7.003 -1.6396  1.6150 -0.2825
  167SAPE   C2318822   1.577   4.381   6.620  0.6407  0.4965 -0.2654
  167SAPE   H3R18823   1.494   4.441   6.577 -1.3841 -2.4828 -0.7692
  167SAPE   H3S18824   1.672   4.433   6.594  1.4335 -1.2578 -1.0249
  167SAPE   C2418825   1.572   4.372   6.772  0.5673 -1.2688 -0.1061
  167SAPE   H4R18826   1.632   4.283   6.801 -0.5816 -2.2533 -0.6720
  167SAPE   H4S18827   1.463   4.362   6.792 -0.3107  2.6247 -2.1437
  167SAPE   C2518828   1.619   4.500   6.834  0.2059 -0.3611 -0.4145
  167SAPE   H5R18829   1.546   4.583   6.834  1.5003  0.8346 -1.8530
  167SAPE   C2618830   1.723   4.523   6.915  0.0973  0.0965 -0.2347
  167SAPE   H6R18831   1.734   4.625   6.955 -1.7131 -0.4318  1.8279
  167SAPE   C2718832   1.825   4.413   6.933 -0.0550 -0.0719  0.0247
  167SAPE   H7R18833   1.854   4.363   6.838  1.9663 -0.4902  0.8181
  167SAPE   H7S18834   1.774   4.325   6.976 -1.5900  0.3065 -0.9244
  167SAPE   C2818835   1.952   4.463   6.999 -0.3170 -0.9369 -0.4261
  167SAPE   H8R18836   2.029   4.501   6.931 -0.7658 -4.4177 -3.1421
  167SAPE   C2918837   1.974   4.445   7.131 -0.2500 -0.6780  0.4184
  167SAPE   H9R18838   2.069   4.483   7.170 -1.3200  2.3558  0.3194
  167SAPE  C21018839   1.887   4.380   7.233 -0.0779  0.1141 -0.0736
  167SAPE  H10R18840   1.945   4.323   7.309 -0.6749  0.0961  0.3733
  167SAPE  H10S18841   1.839   4.297   7.177  0.7328 -0.4152 -0.0077
  167SAPE  C21118842   1.777   4.458   7.304  0.4259  0.2462  0.3364
  167SAPE  H11R18843   1.706   4.508   7.235 -0.3645  0.7991  1.5022
  167SAPE  C21218844   1.755   4.473   7.439  0.1902  0.7693 -0.3300
  167SAPE  H12R18845   1.665   4.525   7.472 -0.3777 -1.1251  1.3059
  167SAPE  C21318846   1.836   4.414   7.548  0.5076  0.2848  0.0896
  167SAPE  H13R18847   1.940   4.430   7.514 -0.2952  1.6771 -1.9134
  167SAPE  H13S18848   1.825   4.304   7.545 -0.0216  0.3473 -0.3740
  167SAPE  C21418849   1.817   4.461   7.687  1.0399  0.1305  0.2898
  167SAPE  H14R18850   1.799   4.569   7.696 -0.2968 -0.1439  1.0654
  167SAPE  C21518851   1.797   4.399   7.801 -0.5782 -0.2862 -0.6539
  167SAPE  H15R18852   1.798   4.462   7.891  2.9462 -3.0555  1.5192
  167SAPE  C21618853   1.809   4.253   7.828 -0.3341  0.1486 -0.5027
  167SAPE  H16R18854   1.827   4.203   7.730  0.8788  1.8863 -1.2112
  167SAPE  H16S18855   1.722   4.196   7.867  2.5070 -2.9981  1.9249
  167SAPE  C21718856   1.926   4.213   7.920 -0.0998  0.4449  0.3666
  167SAPE  H17R18857   2.020   4.250   7.874  1.9806 -1.0877  3.1036
  167SAPE  H17S18858   1.941   4.103   7.927  0.4926  0.4818 -0.2171
  167SAPE  C21818859   1.911   4.256   8.066  0.4778 -0.8231  0.5232
  167SAPE  H18R18860   1.873   4.360   8.061  0.0748 -0.9967 -0.1467
  167SAPE  H18S18861   2.015   4.256   8.106  0.9638 -1.5921 -0.6947
  167SAPE  C21918862   1.799   4.175   8.133 -0.2494  0.0872  0.1463
  167SAPE  H19R18863   1.803   4.073   8.090 -1.3785  0.8275 -1.8787
  167SAPE  H19S18864   1.705   4.223   8.097  1.5341  2.9315 -1.1139
  167SAPE  C22018865   1.803   4.179   8.290  0.1029 -0.6919  0.5366
  167SAPE  H20R18866   1.910   4.176   8.318  0.2054  0.2662  0.2923
  167SAPE  H20S18867   1.752   4.097   8.345 -2.0637 -0.2725 -0.7179
  167SAPE  H20T18868   1.770   4.281   8.321  2.1940  1.3683 -3.3173
  167SAPE   C3318869   1.434   3.688   7.091 -0.4603 -0.5660  0.5689
  167SAPE   H3X18870   1.517   3.614   7.087 -0.0926 -0.1882 -3.7020
  167SAPE   H3Y18871   1.345   3.625   7.070 -0.3897 -0.0390 -1.5212
  167SAPE   C3418872   1.427   3.750   7.230 -0.0571  0.8675  0.6068
  167SAPE   H4X18873   1.358   3.836   7.217 -0.3327  0.3418 -1.9187
  167SAPE   H4Y18874   1.523   3.792   7.268 -0.9113  4.0990 -0.4899
  167SAPE   C3518875   1.373   3.658   7.338  0.0317 -0.6159 -0.5270
  167SAPE   H5X18876   1.460   3.595   7.369 -1.2831 -1.2484  2.2215
  167SAPE   H5Y18877   1.292   3.590   7.304  0.8773 -1.1100 -1.6155
  167SAPE   C3618878   1.319   3.734   7.465  0.3207  0.4203  0.9992
  167SAPE   H6X18879   1.219   3.772   7.437  0.3723 -0.5912 -0.6603
  167SAPE   H6Y18880   1.385   3.821   7.483  1.0737 -0.1701  1.1489
  167SAPE   C3718881   1.316   3.650   7.596  0.3884 -0.3263  0.4502
  167SAPE   H7X18882   1.418   3.610   7.614  0.3559 -0.0977  1.1471
  167SAPE   H7Y18883   1.264   3.553   7.578  1.4211 -0.9614  0.7971
  167SAPE   C3818884   1.257   3.722   7.712 -0.2469  0.0605  0.4596
  167SAPE   H8X18885   1.158   3.767   7.690 -1.6342 -2.7477  0.5308
  167SAPE   H8Y18886   1.327   3.798   7.753  0.4189 -0.9607  1.2604
  167SAPE   C3918887   1.222   3.633   7.829 -0.6365  0.5679  0.3578
  167SAPE   H9X18888   1.315   3.579   7.857  0.3609  0.9958 -1.9183
  167SAPE   H9Y18889   1.149   3.556   7.793 -0.9415  1.1057 -0.2036
  167SAPE  C31018890   1.171   3.713   7.954 -0.0989  0.1669 -0.6828
  167SAPE  H10X18891   1.235   3.801   7.978  1.5813 -0.9491 -0.9175
  167SAPE  H10Y18892   1.170   3.645   8.041  1.9105 -0.3187 -1.0067
  167SAPE  C31118893   1.020   3.762   7.935  0.1847  0.4212 -0.6825
  167SAPE  H11X18894   0.962   3.666   7.938  0.4762  0.2247  2.1807
  167SAPE  H11Y18895   1.007   3.814   7.838 -2.6031  1.5635  0.1908
  167SAPE  C31218896   0.980   3.856   8.043  0.0452 -0.3475 -0.2731
  167SAPE  H12X18897   0.875   3.892   8.041  0.6726  1.5795 -0.8192
  167SAPE  H12Y18898   1.043   3.948   8.037 -0.3132 -0.0123  0.8842
  167SAPE  C31318899   0.989   3.787   8.180  0.1683 -0.2897 -0.1550
  167SAPE  H13X18900   1.092   3.781   8.221 -0.3261  4.3171  2.4769
  167SAPE  H13Y18901   0.939   3.687   8.186 -0.5537  0.1292  1.3239
  167SAPE  C31418902   0.903   3.868   8.285 -0.0375 -0.5330  0.5187
  167SAPE  H14X18903   0.895   3.815   8.382  0.1575 -2.1559 -0.3202
  167SAPE  H14Y18904   0.805   3.870   8.232  1.0066 -2.3579 -1.6541
  167SAPE  C31518905   0.958   4.012   8.307 -0.2873 -0.2805 -1.0888
  167SAPE  H15X18906   0.974   4.063   8.209  1.3732  1.0938 -0.1508
  167SAPE  H15Y18907   1.055   4.010   8.361  0.1972 -3.5845 -1.8846
  167SAPE  C31618908   0.852   4.107   8.368 -0.0304 -0.6560 -0.1807
  167SAPE  H16X18909   0.802   4.066   8.458  0.8986 -0.3733  0.4747
  167SAPE  H16Y18910   0.779   4.130   8.287  0.3634  3.9976  0.5160
  167SAPE  C31718911   0.904   4.249   8.418  0.2025  0.1532  0.1620
  167SAPE  H17X18912   0.985   4.214   8.486  0.7535  0.9700 -0.0528
  167SAPE  H17Y18913   0.828   4.300   8.481 -0.3953 -1.1553  0.5244
  167SAPE  C31818914   0.956   4.344   8.319 -0.1600 -0.0249  0.8287
  167SAPE  H18X18915   0.996   4.438   8.361  0.2603  0.9517 -1.5573
  167SAPE  H18Y18916   0.867   4.365   8.255 -0.1698  2.0136  1.4437
  167SAPE  H18Z18917   1.040   4.301   8.260 -1.6063  0.6619 -1.9155
  168SAPE     N18918   3.705   6.556   6.162  0.0932  0.0188 -0.4160
  168SAPE   HN118919   3.681   6.472   6.105 -2.2320  0.4695 -0.1905
  168SAPE   HN218920   3.796   6.553   6.211 -0.1165  1.6847  0.1389
  168SAPE   HN318921   3.633   6.552   6.237  2.0691 -1.0406  1.5136
  168SAPE   C1218922   3.692   6.684   6.089  0.1200  0.1647 -0.0907
  168SAPE  H12A18923   3.584   6.699   6.071  0.4542  0.9106 -1.6459
  168SAPE  H12B18924   3.745   6.668   5.993 -0.5545  0.0126 -0.4392
  168SAPE   C1118925   3.748   6.804   6.176 -0.0628 -0.0057  0.8092
  168SAPE  H11A18926   3.738   6.886   6.103  1.2973 -1.5365 -1.2055
  168SAPE  H11B18927   3.857   6.788   6.190 -0.3895 -2.9795  0.6013
  168SAPE     P18928   3.541   6.916   6.301  0.4368  0.0955  0.4755
  168SAPE   O1318929   3.475   6.914   6.170  0.2073  0.6643 -0.2123
  168SAPE   O1418930   3.464   6.866   6.415 -0.3746  0.2843 -0.3276
  168SAPE   O1218931   3.678   6.830   6.298 -0.2556 -0.4088  0.1405
  168SAPE   O1118932   3.590   7.063   6.342  0.0741  0.1914  0.6604
  168SAPE    C118933   3.698   7.095   6.432  0.5630  0.1456 -0.6243
  168SAPE    HA18934   3.758   7.005   6.457 -0.9691 -0.8635 -0.4370
  168SAPE    HB18935   3.772   7.161   6.381  1.8353  0.6102  1.6851
  168SAPE    C218936   3.652   7.163   6.569 -0.0528  0.0908  0.4521
  168SAPE    HS18937   3.736   7.186   6.638  0.6037 -0.8731 -0.0011
  168SAPE   O2118938   3.559   7.079   6.637 -0.3482  0.3180 -0.0513
  168SAPE   C2118939   3.619   7.010   6.738  0.9552  0.7748  0.4492
  168SAPE   O2218940   3.739   7.005   6.755 -0.3434  0.3474 -0.1914
  168SAPE   C2218941   3.511   6.929   6.814  0.4231 -0.0261 -0.2131
  168SAPE   H2R18942   3.424   6.997   6.824  2.1244  2.1663  0.4261
  168SAPE   H2S18943   3.472   6.844   6.754 -2.6486  0.0438  1.4861
  168SAPE    C318944   3.581   7.302   6.546  0.3847  0.2021  0.5245
  168SAPE    HX18945   3.492   7.258   6.496 -0.2902 -0.5100  2.2712
  168SAPE    HY18946   3.637   7.361   6.470  2.0663 -2.3117 -0.3282
  168SAPE   O3118947   3.531   7.381   6.656 -0.0156 -0.1308 -0.0729
  168SAPE   C3118948   3.633   7.432   6.738 -0.4172 -0.7163  0.2497
  168SAPE   O3218949   3.751   7.427   6.707  0.4183 -0.0551 -0.0564
  168SAPE   C3218950   3.571   7.493   6.863  0.6514 -0.2527  0.8865
  168SAPE   H2X18951   3.460   7.507   6.863  0.4660 -1.6243  0.9480
  168SAPE   H2Y18952   3.604   7.599   6.864 -0.7256  0.4724 -4.1588
  168SAPE   C2318953   3.541   6.886   6.956  0.0405 -0.8906 -0.1880
  168SAPE   H3R18954   3.639   6.833   6.963  0.1873 -0.5173  0.7541
  168SAPE   H3S18955   3.468   6.814   6.999 -0.1094 -0.5322  0.1717
  168SAPE   C2418956   3.542   7.001   7.064 -0.6270  0.1803 -0.3695
  168SAPE   H4R18957   3.608   7.079   7.022  0.1092 -0.4751 -0.4405
  168SAPE   H4S18958   3.586   6.961   7.158  1.5016  2.7775 -0.1513
  168SAPE   C2518959   3.407   7.065   7.093 -0.0621  0.3324 -0.3681
  168SAPE   H5R18960   3.356   7.119   7.011 -0.8788 -0.5044 -0.4243
  168SAPE   C2618961   3.336   7.056   7.206 -0.1717  0.4901  0.5985
  168SAPE   H6R18962   3.232   7.090   7.208 -0.1455  0.8070 -1.1190
  168SAPE   C2718963   3.369   6.974   7.335 -0.3379 -0.3314 -0.5723
  168SAPE   H7R18964   3.395   6.872   7.300  1.2123  0.0100 -0.4863
  168SAPE   H7S18965   3.270   6.957   7.382  0.9281 -0.6826  2.1645
  168SAPE   C2818966   3.478   7.016   7.430  0.0738  0.7535  0.3882
  168SAPE   H8R18967   3.554   7.084   7.388  0.4654 -0.2917 -0.6280
  168SAPE   C2918968   3.468   7.005   7.563  0.0396  0.6057  0.5757
  168SAPE   H9R18969   3.549   7.048   7.625  1.4139  2.3544 -2.2387
  168SAPE  C21018970   3.359   6.942   7.644 -0.6887  0.1254 -0.6837
  168SAPE  H10R18971   3.408   6.869   7.712  1.2855  1.6368 -0.4099
  168SAPE  H10S18972   3.289   6.881   7.582  0.6199  1.0633 -3.2027
  168SAPE  C21118973   3.288   7.049   7.715  0.3161 -0.7975 -0.6019
  168SAPE  H11R18974   3.197   7.090   7.668  0.4304 -0.4576 -0.5336
  168SAPE  C21218975   3.309   7.085   7.838 -0.1024  0.1097 -0.8848
  168SAPE  H12R18976   3.258   7.177   7.869  0.4133  0.5181 -1.2260
  168SAPE  C21318977   3.394   7.026   7.948 -0.0558 -0.8659 -0.3560
  168SAPE  H13R18978   3.483   7.090   7.968  1.1099 -2.3296 -0.6985
  168SAPE  H13S18979   3.430   6.924   7.924 -1.4519 -1.5973  0.5203
  168SAPE  C21418980   3.303   7.027   8.075 -0.2581 -0.0328 -0.0448
  168SAPE  H14R18981   3.224   7.104   8.074 -1.1711 -0.9572 -1.3098
  168SAPE  C21518982   3.311   6.946   8.184 -0.1431 -0.5550 -0.7136
  168SAPE  H15R18983   3.234   6.963   8.261  0.9445 -0.6470  0.4368
  168SAPE  C21618984   3.403   6.830   8.207 -0.0426 -0.7537  0.1428
  168SAPE  H16R18985   3.459   6.831   8.111  0.6150  0.0128  0.5279
  168SAPE  H16S18986   3.333   6.744   8.214 -1.8180  0.5965 -0.3321
  168SAPE  C21718987   3.507   6.849   8.323  0.3462 -0.1926 -0.2699
  168SAPE  H17R18988   3.552   6.951   8.316 -0.5939  0.2385 -0.3598
  168SAPE  H17S18989   3.587   6.776   8.302  0.9983  1.2721 -3.6758
  168SAPE  C21818990   3.436   6.823   8.462 -0.0240  0.5071 -0.3682
  168SAPE  H18R18991   3.381   6.727   8.460 -0.3232  0.6309  0.8507
  168SAPE  H18S18992   3.357   6.896   8.490  2.3390  2.4531  1.6871
  168SAPE  C21918993   3.527   6.825   8.588  0.1059 -0.8763 -0.0794
  168SAPE  H19R18994   3.601   6.743   8.571 -0.7406 -1.3731 -1.5402
  168SAPE  H19S18995   3.485   6.793   8.686 -0.3814 -1.1573 -0.3807
  168SAPE  C22018996   3.600   6.966   8.605 -0.0102  0.2257  0.2724
  168SAPE  H20R18997   3.524   7.044   8.581  0.6418  0.5697 -0.7315
  168SAPE  H20S18998   3.685   6.968   8.534  0.0958  0.6075  0.4061
  168SAPE  H20T18999   3.646   6.984   8.704  0.6229  1.2122 -0.1890
  168SAPE   C3319000   3.603   7.418   6.996  0.3232 -0.4348  0.0708
  168SAPE   H3X19001   3.710   7.390   7.007  0.0896 -1.2353  0.4260
  168SAPE   H3Y19002   3.540   7.326   6.990  0.1302 -0.3069  0.1239
  168SAPE   C3419003   3.548   7.487   7.122 -0.2569  0.2074 -0.0701
  168SAPE   H4X19004   3.442   7.516   7.104 -1.1513 -2.9996 -0.5495
  168SAPE   H4Y19005   3.591   7.590   7.125 -2.3782  1.1813 -0.7638
  168SAPE   C3519006   3.572   7.405   7.257  0.7566 -0.3585 -0.3005
  168SAPE   H5X19007   3.678   7.394   7.287  0.7396 -1.0891 -0.5022
  168SAPE   H5Y19008   3.527   7.304   7.244 -1.0458  0.5207 -1.3578
  168SAPE   C3619009   3.498   7.468   7.379 -0.1120 -0.0535 -0.4753
  168SAPE   H6X19010   3.393   7.487   7.348  0.2706  0.6687 -1.3725
  168SAPE   H6Y19011   3.544   7.568   7.395  2.2638 -1.1365 -0.1499
  168SAPE   C3719012   3.507   7.393   7.512  0.2176  0.9687 -0.0659
  168SAPE   H7X19013   3.612   7.369   7.539 -0.0707  1.3658  1.5315
  168SAPE   H7Y19014   3.455   7.297   7.491  1.1027  0.8094 -1.6202
  168SAPE   C3819015   3.444   7.464   7.632 -0.6656 -0.2646 -0.0118
  168SAPE   H8X19016   3.333   7.470   7.627 -0.6521  1.1911  0.9193
  168SAPE   H8Y19017   3.463   7.574   7.631 -1.9760 -0.0251 -0.6389
  168SAPE   C3919018   3.481   7.406   7.770 -0.3240  0.1689 -0.0251
  168SAPE   H9X19019   3.588   7.375   7.771 -0.4410 -0.3836 -1.6222
  168SAPE   H9Y19020   3.429   7.308   7.780  1.1361 -0.6910 -0.5018
  168SAPE  C31019021   3.467   7.506   7.888 -0.0320 -0.1190  0.0495
  168SAPE  H10X19022   3.364   7.545   7.874 -0.8506 -2.4835 -1.0142
  168SAPE  H10Y19023   3.537   7.589   7.865  1.6859 -2.1937 -2.9286
  168SAPE  C31119024   3.479   7.444   8.025  0.0545 -0.8774 -0.0212
  168SAPE  H11X19025   3.571   7.383   8.024  0.5058 -0.2245 -2.0103
  168SAPE  H11Y19026   3.392   7.375   8.034 -1.6007  0.6718 -2.7404
  168SAPE  C31219027   3.480   7.540   8.146  0.1278  0.5887  0.6993
  168SAPE  H12X19028   3.543   7.627   8.119  0.3185 -0.0238 -0.9082
  168SAPE  H12Y19029   3.516   7.487   8.237 -1.3469 -1.8277 -0.0288
  168SAPE  C31319030   3.334   7.592   8.179 -1.2307 -0.0908 -0.9529
  168SAPE  H13X19031   3.272   7.501   8.193 -1.8648  0.3071 -1.0881
  168SAPE  H13Y19032   3.287   7.652   8.098 -2.5759 -0.2411 -0.3186
  168SAPE  C31419033   3.327   7.687   8.302  0.2741 -0.1499  0.0402
  168SAPE  H14X19034   3.361   7.786   8.266  1.3119 -1.1809 -1.9674
  168SAPE  H14Y19035   3.406   7.643   8.367 -0.6904  1.0621  2.1514
  168SAPE  C31519036   3.184   7.699   8.359 -0.2781  0.1418 -0.0279
  168SAPE  H15X19037   3.155   7.595   8.385  1.1805  0.6109  4.3051
  168SAPE  H15Y19038   3.116   7.745   8.285 -0.0131  1.4279  0.4839
  168SAPE  C31619039   3.172   7.783   8.486 -0.1552  0.0262 -0.0970
  168SAPE  H16X19040   3.180   7.892   8.463  0.4809  0.0391  0.1738
  168SAPE  H16Y19041   3.257   7.755   8.552 -1.3628 -0.9310  1.1216
  168SAPE  C31719042   3.038   7.752   8.561 -0.4080 -0.5858  0.5976
  168SAPE  H17X19043   2.959   7.777   8.487  3.3834  0.5364 -3.5312
  168SAPE  H17Y19044   3.017   7.819   8.647 -1.1596 -0.4701  0.3300
  168SAPE  C31819045   3.020   7.601   8.607  0.3673 -0.6303  0.0442
  168SAPE  H18X19046   2.922   7.589   8.658  0.3210  2.6450  0.9490
  168SAPE  H18Y19047   3.103   7.558   8.667 -1.2098 -3.0139  0.6631
  168SAPE  H18Z19048   3.018   7.538   8.515 -0.7189  0.9570 -1.0523
  169SAPE     N19049   3.107   0.511   6.207 -0.7364 -0.3122 -0.0667
  169SAPE   HN119050   3.044   0.478   6.283 -0.9672  1.9009  0.7977
  169SAPE   HN219051   3.200   0.538   6.246 -0.4235  0.0962 -1.0769
  169SAPE   HN319052   3.063   0.594   6.161  0.2253  0.4163  0.2758
  169SAPE   C1219053   3.129   0.407   6.099  0.0203 -0.6648  0.2850
  169SAPE  H12A19054   3.226   0.433   6.051 -0.8562 -1.6267 -2.1955
  169SAPE  H12B19055   3.058   0.428   6.016  1.1036  1.0519 -0.2543
  169SAPE   C1119056   3.114   0.263   6.155  0.3865 -0.4590  1.0651
  169SAPE  H11A19057   3.182   0.260   6.242 -0.8187  1.9428  2.1908
  169SAPE  H11B19058   3.133   0.201   6.065  0.6747  2.7432 -1.2926
  169SAPE     P19059   2.948   0.094   6.239  0.1487 -0.0276 -0.5642
  169SAPE   O1319060   2.825   0.049   6.175  0.0149  0.0667  0.1178
  169SAPE   O1419061   3.074   0.013   6.227  0.0309  0.2587  0.1323
  169SAPE   O1219062   2.975   0.249   6.200  0.3365  0.3828  0.1578
  169SAPE   O1119063   2.911   0.123   6.395 -0.2886  0.1458  0.1637
  169SAPE    C119064   2.995   0.206   6.467 -0.1212  0.3741  0.1857
  169SAPE    HA19065   3.035   0.296   6.414  2.1229 -0.8763 -0.3760
  169SAPE    HB19066   2.946   0.256   6.553 -0.9894  2.2542 -1.3197
  169SAPE    C219067   3.112   0.123   6.542 -0.3385  0.6687  0.0082
  169SAPE    HS19068   3.142   0.051   6.463 -0.8592  0.3862  0.0716
  169SAPE   O2119069   3.048   0.069   6.660 -0.2882  0.2059  0.1450
  169SAPE   C2119070   3.104  -0.046   6.693  0.1956 -0.0285 -0.1728
  169SAPE   O2219071   3.193  -0.099   6.621 -0.6436  0.2814 -0.6905
  169SAPE   C2219072   3.051  -0.119   6.823 -0.2030 -0.1966 -0.7444
  169SAPE   H2R19073   2.981  -0.195   6.782  0.2425 -0.3121 -1.3065
  169SAPE   H2S19074   3.133  -0.171   6.878  0.9097  4.5484  2.7844
  169SAPE    C319075   3.235   0.209   6.581  0.7701 -0.6761 -0.6616
  169SAPE    HX19076   3.287   0.245   6.489 -3.3485  2.1692 -2.1557
  169SAPE    HY19077   3.306   0.147   6.640  2.1554  0.7684 -0.7421
  169SAPE   O3119078   3.203   0.307   6.679  0.6277 -0.0628  0.3248
  169SAPE   C3119079   3.202   0.434   6.632 -0.9522  0.3288  0.3721
  169SAPE   O3219080   3.217   0.456   6.511 -0.0138 -0.2577 -0.1072
  169SAPE   C3219081   3.203   0.525   6.752  0.2330 -0.2153 -0.2087
  169SAPE   H2X19082   3.205   0.628   6.711 -0.4627  0.1451  0.6357
  169SAPE   H2Y19083   3.305   0.512   6.794 -0.5559  0.6804  2.1341
  169SAPE   C2319084   2.992  -0.028   6.927 -0.0465 -0.1040  0.5340
  169SAPE   H3R19085   2.928  -0.081   7.001 -1.3018  1.0379  0.3095
  169SAPE   H3S19086   2.908   0.030   6.883 -0.6230 -0.7654  0.7400
  169SAPE   C2419087   3.088   0.061   7.000  0.4303 -0.6090 -0.7441
  169SAPE   H4R19088   3.087   0.160   6.949 -0.5531 -0.2627 -0.0889
  169SAPE   H4S19089   3.190   0.022   6.979  0.1863 -0.9657 -1.2871
  169SAPE   C2519090   3.061   0.073   7.147 -0.2311 -0.1840  0.1581
  169SAPE   H5R19091   2.985   0.142   7.186 -0.4586 -0.3485  0.0021
  169SAPE   C2619092   3.115  -0.012   7.234  0.0165 -0.5817 -0.4786
  169SAPE   H6R19093   3.080   0.009   7.336 -1.7460 -2.3822 -0.6576
  169SAPE   C2719094   3.213  -0.124   7.214  0.2787 -0.3680  0.5404
  169SAPE   H7R19095   3.297  -0.094   7.148  1.2714  0.1790  1.9947
  169SAPE   H7S19096   3.161  -0.208   7.164 -2.0748  1.0474  0.4636
  169SAPE   C2819097   3.277  -0.173   7.344 -0.3641 -0.2356 -0.1604
  169SAPE   H8R19098   3.298  -0.096   7.419 -2.5580 -0.4479  0.7685
  169SAPE   C2919099   3.304  -0.299   7.386  0.4919  0.8072  1.0667
  169SAPE   H9R19100   3.347  -0.307   7.487  0.9580 -0.0215  0.8127
  169SAPE  C21019101   3.276  -0.422   7.297 -0.6004 -0.6703 -0.0767
  169SAPE  H10R19102   3.359  -0.496   7.299 -0.3567 -0.5767 -2.8351
  169SAPE  H10S19103   3.271  -0.394   7.190  2.4870  1.2649  0.1446
  169SAPE  C21119104   3.147  -0.487   7.347  0.9037 -0.0659 -0.0769
  169SAPE  H11R19105   3.065  -0.493   7.274  0.0890 -0.6682  0.8410
  169SAPE  C21219106   3.135  -0.559   7.462  0.0047 -0.0776 -0.3331
  169SAPE  H12R19107   3.035  -0.596   7.489 -0.5141  1.4149 -0.0842
  169SAPE  C21319108   3.226  -0.594   7.582 -0.0310 -0.0450  0.2886
  169SAPE  H13R19109   3.182  -0.682   7.633 -1.2531 -0.9433 -2.1521
  169SAPE  H13S19110   3.223  -0.513   7.657 -1.6586  1.5858 -1.4220
  169SAPE  C21419111   3.367  -0.628   7.537  0.8389 -0.2846 -0.2635
  169SAPE  H14R19112   3.389  -0.658   7.433  0.3175 -0.6735 -0.2691
  169SAPE  C21519113   3.472  -0.621   7.620 -0.0475 -0.2928 -0.3073
  169SAPE  H15R19114   3.577  -0.635   7.590  0.3870  0.4062  0.8370
  169SAPE  C21619115   3.474  -0.596   7.768 -0.1742  0.8210  1.2389
  169SAPE  H16R19116   3.372  -0.613   7.806 -0.3422  0.7477  0.7632
  169SAPE  H16S19117   3.498  -0.489   7.788  3.1846  0.3858  0.1828
  169SAPE  C21719118   3.571  -0.686   7.843  0.1210  0.1032 -0.2333
  169SAPE  H17R19119   3.676  -0.651   7.827  0.5401 -1.2208 -0.4695
  169SAPE  H17S19120   3.542  -0.793   7.835 -2.3221  0.3575  3.3021
  169SAPE  C21819121   3.562  -0.661   7.996  0.4517  1.0735  0.4443
  169SAPE  H18R19122   3.461  -0.697   8.024  0.7353 -1.2597 -1.2597
  169SAPE  H18S19123   3.571  -0.551   8.011  2.6519  1.0367 -0.2805
  169SAPE  C21919124   3.667  -0.737   8.087  0.1371  0.6379  0.7225
  169SAPE  H19R19125   3.646  -0.699   8.189  1.4178  1.3274  0.7442
  169SAPE  H19S19126   3.766  -0.697   8.057 -0.1210  2.7913  2.5353
  169SAPE  C22019127   3.652  -0.890   8.079 -0.3040 -0.0241  1.3996
  169SAPE  H20R19128   3.547  -0.926   8.084 -0.9230  0.8489 -2.1745
  169SAPE  H20S19129   3.699  -0.941   8.166 -1.7060 -1.1758  1.5220
  169SAPE  H20T19130   3.694  -0.922   7.981  0.4150 -0.0392  1.7055
  169SAPE   C3319131   3.100   0.507   6.852  0.0288 -0.0927 -0.2373
  169SAPE   H3X19132   3.111   0.399   6.878 -1.5008 -0.8664 -2.4984
  169SAPE   H3Y19133   2.996   0.515   6.814 -0.1227  1.7044  0.4667
  169SAPE   C3419134   3.127   0.595   6.977  0.6230  0.2120 -0.8041
  169SAPE   H4X19135   3.082   0.696   6.962 -0.3800 -0.3870 -2.0249
  169SAPE   H4Y19136   3.237   0.597   6.992  0.3105  1.3219  1.9799
  169SAPE   C3519137   3.074   0.522   7.099  1.0758 -0.2674 -0.1591
  169SAPE   H5X19138   3.081   0.412   7.085  0.9321 -0.0883 -1.7609
  169SAPE   H5Y19139   2.967   0.554   7.102  1.3995  0.8474  0.2791
  169SAPE   C3619140   3.131   0.580   7.229 -0.5045 -0.0000  0.5265
  169SAPE   H6X19141   3.131   0.690   7.238 -0.3857 -0.1803  4.2700
  169SAPE   H6Y19142   3.237   0.548   7.242 -0.5617 -0.0149  0.9897
  169SAPE   C3719143   3.059   0.518   7.354  0.4380 -0.2658 -0.1148
  169SAPE   H7X19144   3.074   0.408   7.354 -0.6869 -0.4591 -1.5292
  169SAPE   H7Y19145   2.953   0.553   7.351  0.6179  0.5499  1.7431
  169SAPE   C3819146   3.122   0.561   7.487  0.3730  0.3724  0.2518
  169SAPE   H8X19147   3.151   0.667   7.468 -0.2774  0.1569 -2.3160
  169SAPE   H8Y19148   3.219   0.510   7.501 -0.4045 -0.4136  4.0493
  169SAPE   C3919149   3.027   0.552   7.608  0.1406  0.0605 -0.1656
  169SAPE   H9X19150   3.002   0.445   7.628  0.6183 -0.2207 -1.0073
  169SAPE   H9Y19151   2.942   0.618   7.581  1.3342  0.8936 -2.0414
  169SAPE  C31019152   3.097   0.602   7.735  0.4099  0.5082 -0.6151
  169SAPE  H10X19153   3.134   0.706   7.724  0.4499  0.5030 -0.5302
  169SAPE  H10Y19154   3.183   0.544   7.775  0.1082  0.1155 -0.5227
  169SAPE  C31119155   2.987   0.604   7.845  0.4001  0.0413 -0.1783
  169SAPE  H11X19156   2.927   0.511   7.858  1.4276 -0.5443  0.6278
  169SAPE  H11Y19157   2.920   0.681   7.802  1.3218  0.8425 -0.2069
  169SAPE  C31219158   3.052   0.636   7.976 -0.1937 -0.2277  0.2457
  169SAPE  H12X19159   3.144   0.695   7.954 -1.0401  1.2143  0.4089
  169SAPE  H12Y19160   3.084   0.538   8.018 -3.5439 -1.0326  1.2346
  169SAPE  C31319161   2.954   0.705   8.074 -0.1787 -0.0930  0.0180
  169SAPE  H13X19162   2.929   0.802   8.027  1.5494 -0.8567 -2.6993
  169SAPE  H13Y19163   3.018   0.733   8.161  1.1435  1.1501 -1.3066
  169SAPE  C31419164   2.836   0.616   8.116  0.1560  0.3340  0.3883
  169SAPE  H14X19165   2.891   0.520   8.128  4.1024  2.4873  1.0575
  169SAPE  H14Y19166   2.755   0.609   8.039  1.0278 -0.1663 -0.5018
  169SAPE  C31519167   2.771   0.648   8.250 -0.1938 -0.0914 -0.2342
  169SAPE  H15X19168   2.714   0.742   8.237  0.2370  0.5185  1.9618
  169SAPE  H15Y19169   2.846   0.682   8.324  1.1753 -2.9625 -0.1471
  169SAPE  C31619170   2.684   0.528   8.286 -0.3562 -0.6773 -0.0686
  169SAPE  H16X19171   2.738   0.434   8.264  1.0087  0.3781 -1.4609
  169SAPE  H16Y19172   2.607   0.535   8.207 -0.0872  2.0823 -0.1897
  169SAPE  C31719173   2.631   0.534   8.428  0.2480 -0.1865  0.4522
  169SAPE  H17X19174   2.574   0.624   8.460  0.0260 -0.3470  0.5091
  169SAPE  H17Y19175   2.723   0.523   8.489  1.6190 -0.4263 -1.5281
  169SAPE  C31819176   2.534   0.409   8.462  0.1650 -0.5368  0.1656
  169SAPE  H18X19177   2.441   0.413   8.402  1.2137  0.0174 -1.5067
  169SAPE  H18Y19178   2.503   0.413   8.568 -0.6637 -1.6133 -0.0288
  169SAPE  H18Z19179   2.579   0.310   8.438 -1.0900 -1.5801  1.9053
  170SAPE     N19180   3.438   4.493   6.353 -0.4325  0.2981  0.0227
  170SAPE   HN119181   3.372   4.563   6.315 -0.4504  1.2456  1.7148
  170SAPE   HN219182   3.460   4.414   6.288 -0.0705 -0.5023  1.0868
  170SAPE   HN319183   3.396   4.445   6.435 -3.0444  0.5280 -1.1049
  170SAPE   C1219184   3.565   4.569   6.399 -0.0774 -0.1773  0.6340
  170SAPE  H12A19185   3.641   4.491   6.424  2.4159  2.4919  1.8676
  170SAPE  H12B19186   3.535   4.617   6.495 -0.3154  1.1152 -0.0721
  170SAPE   C1119187   3.619   4.677   6.302  0.2069 -0.4494  0.5301
  170SAPE  H11A19188   3.658   4.627   6.211 -2.9900 -0.6813 -0.8532
  170SAPE  H11B19189   3.688   4.733   6.368  0.0925 -0.5167  0.7080
  170SAPE     P19190   3.550   4.865   6.138  0.5721 -0.3163 -0.0648
  170SAPE   O1319191   3.689   4.908   6.146 -0.3473  0.3030  0.5472
  170SAPE   O1419192   3.502   4.802   6.015  0.0508 -0.5366  0.2087
  170SAPE   O1219193   3.517   4.772   6.262 -0.2088 -0.2358  0.0037
  170SAPE   O1119194   3.466   4.997   6.165 -0.3310 -0.0691 -0.0257
  170SAPE    C119195   3.488   5.078   6.277 -0.0936 -0.0899  0.0092
  170SAPE    HA19196   3.593   5.107   6.298  0.4137 -0.8390 -1.3673
  170SAPE    HB19197   3.431   5.173   6.277 -0.1486 -0.1231  0.1424
  170SAPE    C219198   3.445   5.010   6.409  0.7382  0.7532 -0.2108
  170SAPE    HS19199   3.517   4.929   6.432 -1.1832 -0.5371  1.4736
  170SAPE   O2119200   3.312   4.962   6.400 -0.1441 -0.3474 -0.5251
  170SAPE   C2119201   3.276   4.866   6.484  0.9117 -0.0161  0.3087
  170SAPE   O2219202   3.345   4.814   6.572 -0.4455 -0.7325  0.2583
  170SAPE   C2219203   3.127   4.856   6.464  0.0466 -1.1716 -0.3482
  170SAPE   H2R19204   3.103   4.876   6.357 -2.2684 -0.9395  0.1747
  170SAPE   H2S19205   3.092   4.755   6.492 -3.2606 -0.6519 -2.0687
  170SAPE    C319206   3.466   5.116   6.523  0.6074  0.2426 -0.5737
  170SAPE    HX19207   3.400   5.201   6.496  0.7492  1.0212  1.3591
  170SAPE    HY19208   3.571   5.152   6.511  0.6914 -0.3126 -1.5503
  170SAPE   O3119209   3.448   5.071   6.659  0.5037 -0.3457  0.2231
  170SAPE   C3119210   3.536   4.992   6.716  0.7948 -0.2376 -0.7602
  170SAPE   O3219211   3.644   4.950   6.674  0.4735  0.1768 -0.2593
  170SAPE   C3219212   3.470   4.943   6.843  0.1062  0.3291  0.0951
  170SAPE   H2X19213   3.420   4.846   6.821  0.0870  0.4373 -0.3431
  170SAPE   H2Y19214   3.391   5.014   6.877  0.3351 -0.4319  2.3473
  170SAPE   C2319215   3.038   4.958   6.544 -0.0713 -0.1935 -0.0073
  170SAPE   H3R19216   2.935   4.936   6.508  0.5186  0.2347 -2.1212
  170SAPE   H3S19217   3.070   5.060   6.515 -1.5566  0.4671  0.6187
  170SAPE   C2419218   3.056   4.926   6.694  0.3801  0.0135 -0.9877
  170SAPE   H4R19219   3.162   4.926   6.727  0.8169 -0.5025 -2.3407
  170SAPE   H4S19220   3.025   4.820   6.705  3.4562 -0.7897  1.2402
  170SAPE   C2519221   2.960   5.014   6.780 -0.4582  0.1152 -0.6724
  170SAPE   H5R19222   2.869   5.037   6.722  1.0066  0.5213 -2.9436
  170SAPE   C2619223   2.974   5.055   6.905  0.0039  0.4264 -0.3012
  170SAPE   H6R19224   2.905   5.135   6.937 -2.9358 -0.1636 -4.4241
  170SAPE   C2719225   3.092   5.027   6.989 -0.6147  0.8965 -1.0740
  170SAPE   H7R19226   3.104   5.107   7.065  1.5437 -0.6024  0.2626
  170SAPE   H7S19227   3.184   5.035   6.927  0.2087  1.2870  0.1822
  170SAPE   C2819228   3.093   4.887   7.053 -0.0805 -0.0529 -0.2456
  170SAPE   H8R19229   3.074   4.809   6.977 -3.1519  0.1277  0.1991
  170SAPE   C2919230   3.090   4.859   7.188 -0.6268 -0.0423  0.3385
  170SAPE   H9R19231   3.085   4.753   7.214  1.2508 -0.3535 -0.3956
  170SAPE  C21019232   3.092   4.960   7.298 -0.5955 -0.5949  0.3988
  170SAPE  H10R19233   3.113   5.066   7.273  0.6132 -0.9947 -0.3912
  170SAPE  H10S19234   3.174   4.935   7.369 -0.7037 -0.2771  0.6393
  170SAPE  C21119235   2.956   4.967   7.364 -0.1535  0.0200  0.2866
  170SAPE  H11R19236   2.896   5.051   7.326 -0.3860 -1.2165 -2.2512
  170SAPE  C21219237   2.921   4.897   7.470 -0.7434 -0.0875 -0.6118
  170SAPE  H12R19238   2.823   4.913   7.517 -1.2995  0.6806 -1.9634
  170SAPE  C21319239   3.011   4.801   7.544  1.3785 -0.4067 -0.3791
  170SAPE  H13R19240   3.002   4.840   7.647  0.3937  0.5707 -0.8079
  170SAPE  H13S19241   3.119   4.805   7.518  1.2000 -2.6812 -1.7337
  170SAPE  C21419242   2.963   4.655   7.537 -0.5470 -1.0187  0.3049
  170SAPE  H14R19243   2.961   4.613   7.435  1.4664  0.2801 -0.3453
  170SAPE  C21519244   2.939   4.575   7.648 -0.5774  0.1198  0.1067
  170SAPE  H15R19245   2.923   4.468   7.633 -0.5845  0.1116  0.1688
  170SAPE  C21619246   2.956   4.610   7.794  0.4650 -0.2903 -0.4140
  170SAPE  H16R19247   3.009   4.703   7.822 -2.8902  1.4065  0.7377
  170SAPE  H16S19248   3.016   4.529   7.841  0.7491  0.4997  0.6057
  170SAPE  C21719249   2.819   4.614   7.857 -0.0366  0.4771 -0.6277
  170SAPE  H17R19250   2.774   4.514   7.845  1.5142 -1.0166  3.9600
  170SAPE  H17S19251   2.753   4.684   7.800 -0.3723 -0.8471 -1.9226
  170SAPE  C21819252   2.827   4.642   8.004  0.3023 -0.0439  0.5291
  170SAPE  H18R19253   2.734   4.674   8.056 -0.8529  0.9304 -1.9789
  170SAPE  H18S19254   2.891   4.730   8.025  2.6891 -1.6256  0.2616
  170SAPE  C21919255   2.893   4.534   8.097 -0.0418 -0.5343  0.6597
  170SAPE  H19R19256   2.998   4.519   8.062  0.1820  2.5236 -0.2814
  170SAPE  H19S19257   2.841   4.438   8.076 -0.3008 -0.0017 -1.3798
  170SAPE  C22019258   2.903   4.565   8.249 -0.1670  0.3676 -0.4994
  170SAPE  H20R19259   2.959   4.487   8.304 -0.3334  1.1799  0.8684
  170SAPE  H20S19260   2.800   4.551   8.289  0.7211  0.6717  2.0705
  170SAPE  H20T19261   2.945   4.666   8.269  2.8540 -0.7553 -0.6778
  170SAPE   C3319262   3.556   4.945   6.966 -0.1524  0.3272 -0.7403
  170SAPE   H3X19263   3.606   5.043   6.976  0.1951  0.0559  0.3435
  170SAPE   H3Y19264   3.640   4.872   6.957 -2.4725 -2.4574 -1.1405
  170SAPE   C3419265   3.482   4.911   7.096  0.0238  0.1385  0.7212
  170SAPE   H4X19266   3.407   4.833   7.069  0.9413 -0.3615 -0.4644
  170SAPE   H4Y19267   3.422   4.998   7.131  2.0763  1.2975  1.5140
  170SAPE   C3519268   3.573   4.868   7.213  0.0945  0.0631  0.8460
  170SAPE   H5X19269   3.639   4.951   7.244  0.5050  0.7004 -1.5483
  170SAPE   H5Y19270   3.646   4.796   7.170 -0.6618  0.0757 -0.5234
  170SAPE   C3619271   3.494   4.821   7.339 -0.1805  0.3815  0.6131
  170SAPE   H6X19272   3.451   4.719   7.324 -1.1323  0.7144  0.9879
  170SAPE   H6Y19273   3.405   4.888   7.343 -0.2886  0.8568 -3.9619
  170SAPE   C3719274   3.567   4.829   7.472  0.1384 -0.0694 -0.4810
  170SAPE   H7X19275   3.584   4.938   7.484 -1.0118  0.0427  0.3164
  170SAPE   H7Y19276   3.668   4.784   7.470  0.2180 -0.0412  1.6453
  170SAPE   C3819277   3.491   4.760   7.591  0.3741  0.3136 -0.3196
  170SAPE   H8X19278   3.473   4.655   7.562 -0.0833 -0.3565  2.1850
  170SAPE   H8Y19279   3.397   4.811   7.621  0.1093 -0.0123 -0.5902
  170SAPE   C3919280   3.586   4.751   7.707  0.0106 -0.1609 -0.7574
  170SAPE   H9X19281   3.592   4.847   7.761 -0.7246 -0.3421 -0.3348
  170SAPE   H9Y19282   3.687   4.727   7.667  0.0704 -0.1411 -0.6156
  170SAPE  C31019283   3.551   4.636   7.806 -0.1028 -0.4123  0.3458
  170SAPE  H10X19284   3.555   4.538   7.754 -1.7447  0.0913 -0.8141
  170SAPE  H10Y19285   3.446   4.658   7.837 -0.1218  1.0176 -0.6508
  170SAPE  C31119286   3.635   4.631   7.931  0.1981 -0.1351  0.4959
  170SAPE  H11X19287   3.619   4.720   7.994  1.1701  0.2122  0.2565
  170SAPE  H11Y19288   3.741   4.635   7.900  0.0750 -0.8990 -0.0565
  170SAPE  C31219289   3.602   4.508   8.023  0.1232  0.4412  0.5373
  170SAPE  H12X19290   3.614   4.416   7.962 -2.9098  1.0833 -1.2449
  170SAPE  H12Y19291   3.496   4.515   8.056  1.0211 -2.0095  4.6932
  170SAPE  C31319292   3.692   4.502   8.148  0.6824  0.7733 -0.5636
  170SAPE  H13X19293   3.645   4.580   8.212  1.0137 -0.7609  1.6655
  170SAPE  H13Y19294   3.801   4.523   8.137  0.5085  1.7777 -0.4758
  170SAPE  C31419295   3.681   4.362   8.212  0.2833 -0.2203  0.3341
  170SAPE  H14X19296   3.711   4.292   8.132  0.8236 -0.6834  0.9275
  170SAPE  H14Y19297   3.571   4.361   8.227 -0.0581  0.5627 -1.8049
  170SAPE  C31519298   3.743   4.355   8.351 -0.4131 -0.4895 -0.6178
  170SAPE  H15X19299   3.727   4.254   8.395  0.6075 -0.1084  0.7036
  170SAPE  H15Y19300   3.712   4.436   8.420  3.3129  0.2272  0.4689
  170SAPE  C31619301   3.894   4.352   8.322  0.2749 -0.1270 -0.4425
  170SAPE  H16X19302   3.933   4.448   8.281 -0.1658  0.2877  0.0911
  170SAPE  H16Y19303   3.903   4.270   8.248 -0.0614 -2.3941  1.8598
  170SAPE  C31719304   3.969   4.311   8.449  0.8838 -0.2083 -0.4653
  170SAPE  H17X19305   3.925   4.220   8.495 -1.3197  0.4433 -1.1272
  170SAPE  H17Y19306   3.980   4.407   8.505  0.3069  1.4010 -2.9534
  170SAPE  C31819307   4.121   4.288   8.420 -0.3122 -0.2503  0.0469
  170SAPE  H18X19308   4.164   4.378   8.372  1.6939 -1.1227  0.0772
  170SAPE  H18Y19309   4.128   4.205   8.346 -3.1402  1.9561 -2.9894
  170SAPE  H18Z19310   4.175   4.266   8.515 -0.9796 -2.4986 -0.0378
  171SAPE     N19311   4.914   5.906   6.029  0.1310 -0.1330 -0.5090
  171SAPE   HN119312   4.913   5.929   5.928  2.3657  3.1999  0.0495
  171SAPE   HN219313   4.990   5.838   6.049  0.7300  0.1886 -1.6166
  171SAPE   HN319314   4.824   5.865   6.061  1.7579 -1.9627  2.2283
  171SAPE   C1219315   4.947   6.048   6.087 -0.3782  0.1685 -0.1716
  171SAPE  H12A19316   4.852   6.101   6.105 -1.0125 -1.3896  1.3456
  171SAPE  H12B19317   5.001   6.097   6.003 -2.8882 -0.0494 -2.0532
  171SAPE   C1119318   5.035   6.042   6.211  0.5851  0.3188 -0.3561
  171SAPE  H11A19319   4.990   6.003   6.305  1.6758 -1.9331 -0.7018
  171SAPE  H11B19320   5.065   6.142   6.248 -1.0459  0.3922  0.8931
  171SAPE     P19321   5.170   5.823   6.234 -0.0285 -0.2457  0.0980
  171SAPE   O1319322   5.084   5.736   6.154  0.3967 -0.1433 -0.5634
  171SAPE   O1419323   5.316   5.802   6.222 -0.0115  0.7911 -0.4092
  171SAPE   O1219324   5.150   5.966   6.180 -0.2094 -0.8340 -0.2437
  171SAPE   O1119325   5.135   5.830   6.383 -0.4607  0.4358 -0.4293
  171SAPE    C119326   5.227   5.891   6.478 -0.2551  0.3059  0.1942
  171SAPE    HA19327   5.295   5.812   6.519 -0.4129 -0.9920 -1.9195
  171SAPE    HB19328   5.288   5.976   6.440 -0.8378  0.1221 -1.1960
  171SAPE    C219329   5.143   5.947   6.592 -0.1104 -0.5441 -0.4995
  171SAPE    HS19330   5.069   6.020   6.551 -0.9027 -0.7856  0.4759
  171SAPE   O2119331   5.234   5.992   6.698  0.9188  0.0287  0.2979
  171SAPE   C2119332   5.230   6.124   6.712 -0.5777 -0.1512  0.0406
  171SAPE   O2219333   5.142   6.197   6.669  0.1314  0.5786  0.2100
  171SAPE   C2219334   5.347   6.185   6.787 -0.0831 -0.4532  0.3839
  171SAPE   H2R19335   5.426   6.107   6.795  0.6698  0.2097 -0.4711
  171SAPE   H2S19336   5.390   6.267   6.726  0.2342 -1.9004 -1.4358
  171SAPE    C319337   5.054   5.831   6.652  0.0401  0.3866 -0.1694
  171SAPE    HX19338   5.124   5.746   6.666  0.8850  0.9435 -0.9237
  171SAPE    HY19339   4.981   5.776   6.590 -1.5940  1.0910  1.0390
  171SAPE   O3119340   4.999   5.860   6.780 -0.4409 -0.0988  0.4289
  171SAPE   C3119341   4.892   5.934   6.773 -0.1946  0.6239  0.0548
  171SAPE   O3219342   4.848   5.979   6.672  1.1887  0.4808 -0.5801
  171SAPE   C3219343   4.848   5.951   6.924  0.4516 -0.0993  0.5958
  171SAPE   H2X19344   4.930   6.003   6.977  0.5842  0.4586 -0.1321
  171SAPE   H2Y19345   4.845   5.845   6.956 -1.4129 -1.0998 -2.3848
  171SAPE   C2319346   5.299   6.252   6.924 -0.6185 -0.0506 -0.1700
  171SAPE   H3R19347   5.209   6.313   6.902 -1.5271 -1.1336  0.4503
  171SAPE   H3S19348   5.381   6.320   6.955 -0.1851 -0.7676  0.2640
  171SAPE   C2419349   5.283   6.146   7.036  0.1305 -0.0155  0.1462
  171SAPE   H4R19350   5.270   6.045   6.993  0.6679 -0.3968  0.8599
  171SAPE   H4S19351   5.188   6.168   7.091  0.4613  2.7923 -0.2467
  171SAPE   C2519352   5.400   6.145   7.129  0.8940 -0.5938 -0.2212
  171SAPE   H5R19353   5.486   6.087   7.093  0.4286 -0.4473 -1.6120
  171SAPE   C2619354   5.410   6.198   7.252  0.8049 -0.1232  0.2196
  171SAPE   H6R19355   5.513   6.216   7.288  0.1626  0.5930  1.7610
  171SAPE   C2719356   5.297   6.266   7.320 -0.0350  0.5436 -0.5875
  171SAPE   H7R19357   5.230   6.318   7.247  1.1527  0.3174 -1.8715
  171SAPE   H7S19358   5.331   6.347   7.388  0.6326 -0.9177  0.8904
  171SAPE   C2819359   5.208   6.171   7.400 -0.3835  0.0376  0.2454
  171SAPE   H8R19360   5.129   6.117   7.345 -0.4514  0.2902  0.0927
  171SAPE   C2919361   5.230   6.142   7.529  0.2259  0.7541 -0.4902
  171SAPE   H9R19362   5.164   6.072   7.580  1.0263  0.4147  0.1054
  171SAPE  C21019363   5.343   6.200   7.616 -0.2346 -0.0803 -0.2207
  171SAPE  H10R19364   5.434   6.228   7.558 -0.4036 -1.0643 -0.9744
  171SAPE  H10S19365   5.378   6.123   7.688 -0.9787  0.8980  1.2536
  171SAPE  C21119366   5.298   6.312   7.701 -0.1049 -0.3882  0.0091
  171SAPE  H11R19367   5.316   6.410   7.655 -1.1149  0.5786  1.5513
  171SAPE  C21219368   5.253   6.305   7.824  0.3309  0.2673  1.1122
  171SAPE  H12R19369   5.215   6.390   7.883  1.2590  1.6807 -0.2482
  171SAPE  C21319370   5.234   6.179   7.900  0.5656  0.0848  0.2307
  171SAPE  H13R19371   5.184   6.102   7.838  2.7656  0.4729 -2.1484
  171SAPE  H13S19372   5.167   6.200   7.987  0.7274  3.4074 -0.3383
  171SAPE  C21419373   5.366   6.124   7.954 -0.4429 -0.0547  0.0662
  171SAPE  H14R19374   5.401   6.050   7.880  1.0736  0.6426  0.0533
  171SAPE  C21519375   5.436   6.156   8.070 -0.4950 -0.1895 -0.2576
  171SAPE  H15R19376   5.520   6.088   8.093  0.0074 -0.3000 -2.2496
  171SAPE  C21619377   5.396   6.254   8.182 -0.1811  0.5656 -0.3110
  171SAPE  H16R19378   5.312   6.315   8.142 -0.0546  1.0297  0.1177
  171SAPE  H16S19379   5.481   6.323   8.202 -0.2899  0.6143 -0.0099
  171SAPE  C21719380   5.342   6.177   8.311  0.2623  0.3786  0.7475
  171SAPE  H17R19381   5.250   6.122   8.283 -0.1955  2.3676 -2.2315
  171SAPE  H17S19382   5.326   6.253   8.390 -2.2710  0.1439  0.5484
  171SAPE  C21819383   5.445   6.085   8.374  1.0168  0.0102 -0.3213
  171SAPE  H18R19384   5.534   6.150   8.393 -0.0559  0.8432  2.2598
  171SAPE  H18S19385   5.473   5.994   8.317  2.0609 -0.5191  0.9768
  171SAPE  C21919386   5.407   6.055   8.525 -0.2972 -0.0789 -0.3318
  171SAPE  H19R19387   5.314   5.993   8.527  1.0018 -2.1850 -1.1779
  171SAPE  H19S19388   5.375   6.148   8.576  0.9470  1.7962 -2.8082
  171SAPE  C22019389   5.523   5.984   8.598 -0.1327 -0.3990  0.5477
  171SAPE  H20R19390   5.484   5.938   8.692 -0.9390 -1.1296 -0.1386
  171SAPE  H20S19391   5.605   6.055   8.624 -0.1669  0.7066 -2.1130
  171SAPE  H20T19392   5.565   5.897   8.545 -0.9467 -0.7693  0.4926
  171SAPE   C3319393   4.720   6.021   6.958  0.2199 -0.3774 -0.1618
  171SAPE   H3X19394   4.640   5.979   6.892 -0.4735 -0.0886  0.4778
  171SAPE   H3Y19395   4.724   6.130   6.938  0.4269 -0.3235  0.1655
  171SAPE   C3419396   4.674   5.996   7.102 -0.8209 -0.7596 -0.0386
  171SAPE   H4X19397   4.640   5.892   7.124  2.4596 -1.6442  1.5295
  171SAPE   H4Y19398   4.584   6.056   7.128 -0.1987 -0.0313  0.4435
  171SAPE   C3519399   4.781   6.035   7.212 -0.8703  0.7423 -0.6803
  171SAPE   H5X19400   4.807   6.143   7.208  0.8826  0.4774  1.7803
  171SAPE   H5Y19401   4.869   5.968   7.206 -0.2399  1.5977 -1.2633
  171SAPE   C3619402   4.718   5.990   7.349  0.5282  0.3964  0.0735
  171SAPE   H6X19403   4.675   5.888   7.342 -1.5066  1.0284  2.0338
  171SAPE   H6Y19404   4.641   6.062   7.385  0.8345  0.7151  0.1060
  171SAPE   C3719405   4.822   5.996   7.454 -0.0890 -0.4274 -0.2057
  171SAPE   H7X19406   4.862   6.100   7.453 -0.9812 -0.0632 -1.8070
  171SAPE   H7Y19407   4.912   5.932   7.443 -1.2073 -1.8394 -1.6085
  171SAPE   C3819408   4.776   5.955   7.591  1.0977 -1.0013 -0.0062
  171SAPE   H8X19409   4.738   5.851   7.601  0.0185 -0.6188  0.0279
  171SAPE   H8Y19410   4.693   6.023   7.622  0.8704 -0.8651 -0.8819
  171SAPE   C3919411   4.889   5.954   7.700  0.0388 -0.3756 -0.2161
  171SAPE   H9X19412   4.936   6.055   7.703 -1.1573  0.1784  0.6845
  171SAPE   H9Y19413   4.967   5.889   7.655  0.0473 -0.4928 -0.0303
  171SAPE  C31019414   4.841   5.895   7.832 -0.4155  0.0172 -0.4427
  171SAPE  H10X19415   4.840   5.784   7.824 -0.5291 -0.1801  1.8088
  171SAPE  H10Y19416   4.740   5.938   7.846 -1.1038 -1.2737 -1.1945
  171SAPE  C31119417   4.925   5.932   7.953  0.3429 -0.5259  0.3047
  171SAPE  H11X19418   4.941   6.042   7.952  0.4298 -0.4855 -2.9257
  171SAPE  H11Y19419   5.020   5.880   7.931 -1.1146 -1.8809 -3.5560
  171SAPE  C31219420   4.869   5.885   8.091 -0.0669  0.3802 -0.0546
  171SAPE  H12X19421   4.866   5.774   8.089  0.9449  0.3162 -3.2352
  171SAPE  H12Y19422   4.763   5.914   8.106 -0.5413 -1.0695 -0.4524
  171SAPE  C31319423   4.952   5.930   8.214 -0.1106 -0.2080 -0.0020
  171SAPE  H13X19424   4.960   6.039   8.232  1.6288 -0.3294  0.1542
  171SAPE  H13Y19425   5.060   5.905   8.210  0.2306  1.1065  0.5310
  171SAPE  C31419426   4.877   5.882   8.344 -0.3876  0.4631 -0.1059
  171SAPE  H14X19427   4.867   5.773   8.330  1.3070  0.3865 -0.9668
  171SAPE  H14Y19428   4.772   5.919   8.342 -0.5799 -0.0920 -0.4596
  171SAPE  C31519429   4.954   5.909   8.471  0.6529  0.3259 -0.1615
  171SAPE  H15X19430   4.983   6.017   8.466 -0.9113  0.7821  0.1294
  171SAPE  H15Y19431   5.042   5.842   8.474 -1.3379 -2.5096  3.4115
  171SAPE  C31619432   4.875   5.887   8.599 -0.3945 -0.3290  0.5745
  171SAPE  H16X19433   4.781   5.945   8.585 -0.0741 -0.1712 -1.2843
  171SAPE  H16Y19434   4.931   5.938   8.680  1.4133 -0.9394 -0.2402
  171SAPE  C31719435   4.844   5.742   8.645 -0.0521 -0.1692  0.4235
  171SAPE  H17X19436   4.937   5.682   8.644  1.5523  2.1400  1.8139
  171SAPE  H17Y19437   4.776   5.693   8.572 -0.4192 -1.6439  1.6979
  171SAPE  C31819438   4.780   5.737   8.780  0.5748  0.8669 -0.0788
  171SAPE  H18X19439   4.685   5.792   8.796 -0.2612 -0.7336  0.7975
  171SAPE  H18Y19440   4.852   5.765   8.859  0.7171  0.9072 -0.2220
  171SAPE  H18Z19441   4.749   5.636   8.815 -0.1416  1.8332  2.2477
  172SAPE     N19442   6.237   5.299   6.239  0.0378 -0.0132  0.6354
  172SAPE   HN119443   6.238   5.399   6.212 -0.4243  0.0082  0.6882
  172SAPE   HN219444   6.313   5.248   6.190 -0.5996 -0.3635 -0.0042
  172SAPE   HN319445   6.154   5.252   6.196  1.4300 -1.6617 -0.3782
  172SAPE   C1219446   6.228   5.270   6.387  0.4308  0.0599 -0.2320
  172SAPE  H12A19447   6.329   5.266   6.433  0.8435  1.3434 -0.9803
  172SAPE  H12B19448   6.179   5.171   6.399 -1.0562  0.7844 -0.0880
  172SAPE   C1119449   6.140   5.374   6.466  0.0546  0.3234 -0.0352
  172SAPE  H11A19450   6.198   5.469   6.460 -0.2419  0.4283 -2.8564
  172SAPE  H11B19451   6.131   5.343   6.572  1.1618 -1.1205 -0.3423
  172SAPE     P19452   5.875   5.309   6.454 -0.2757 -0.2942  0.1014
  172SAPE   O1319453   5.805   5.241   6.346  0.4177  0.4134  0.2399
  172SAPE   O1419454   5.900   5.237   6.578 -0.5505  0.1548 -0.4309
  172SAPE   O1219455   6.002   5.391   6.407  0.8094  0.1011  0.4320
  172SAPE   O1119456   5.771   5.406   6.503 -0.2698 -0.6124 -0.0025
  172SAPE    C119457   5.798   5.549   6.530  0.2091  0.7280 -0.1113
  172SAPE    HA19458   5.906   5.563   6.555  0.2636 -1.0401  0.7887
  172SAPE    HB19459   5.763   5.600   6.438 -2.3455  0.0293  0.4185
  172SAPE    C219460   5.701   5.606   6.630  0.3556  0.6166  0.0874
  172SAPE    HS19461   5.706   5.717   6.627  1.3476  0.5879  0.2028
  172SAPE   O2119462   5.721   5.563   6.766 -0.5366 -0.1462 -0.5060
  172SAPE   C2119463   5.839   5.597   6.817  0.5683  0.2375 -0.7018
  172SAPE   O2219464   5.929   5.658   6.767  0.4223 -0.7049 -0.0557
  172SAPE   C2219465   5.841   5.530   6.955  0.9072  0.3308 -0.6237
  172SAPE   H2R19466   5.862   5.422   6.941 -0.6486 -0.0533 -0.1337
  172SAPE   H2S19467   5.922   5.582   7.011  0.7840  1.8685 -1.8048
  172SAPE    C319468   5.551   5.582   6.587  0.5091 -0.7831 -0.0194
  172SAPE    HX19469   5.550   5.472   6.573 -0.4315 -0.6142 -1.5228
  172SAPE    HY19470   5.549   5.619   6.482 -2.4981 -1.8226 -0.4376
  172SAPE   O3119471   5.446   5.643   6.664  0.1706 -0.2613 -0.1463
  172SAPE   C3119472   5.400   5.566   6.759 -0.7375  0.1768 -0.2220
  172SAPE   O3219473   5.428   5.450   6.783 -0.1946  0.3704  0.0156
  172SAPE   C3219474   5.306   5.648   6.850 -0.0917  0.0008 -0.2315
  172SAPE   H2X19475   5.206   5.599   6.847 -0.4980  0.8279 -2.9012
  172SAPE   H2Y19476   5.300   5.747   6.799  4.1984 -0.2665 -1.6835
  172SAPE   C2319477   5.703   5.542   7.035  0.4900 -0.9785  0.8081
  172SAPE   H3R19478   5.624   5.487   6.979 -0.1048  1.1694 -0.5938
  172SAPE   H3S19479   5.685   5.651   7.040  0.2097 -0.8934 -1.1376
  172SAPE   C2419480   5.732   5.479   7.172  0.0073 -0.0336  0.3849
  172SAPE   H4R19481   5.830   5.521   7.203 -0.3981  1.5498 -0.3560
  172SAPE   H4S19482   5.752   5.371   7.160  0.4872  0.1316 -0.3525
  172SAPE   C2519483   5.639   5.505   7.285 -0.0770  0.7387 -0.1975
  172SAPE   H5R19484   5.574   5.592   7.269 -1.0697 -0.1029 -0.9053
  172SAPE   C2619485   5.623   5.429   7.392 -0.0305 -0.1979  0.1554
  172SAPE   H6R19486   5.555   5.455   7.475 -0.2800 -1.0158  0.2129
  172SAPE   C2719487   5.705   5.305   7.432  0.5026 -1.3361 -0.3468
  172SAPE   H7R19488   5.772   5.273   7.349  0.3927 -2.8520  0.1266
  172SAPE   H7S19489   5.637   5.218   7.450  1.2254 -1.7649  0.3905
  172SAPE   C2819490   5.802   5.333   7.544  0.1041  0.0210 -0.0676
  172SAPE   H8R19491   5.895   5.380   7.508  0.2959 -1.1782 -1.1953
  172SAPE   C2919492   5.798   5.304   7.676 -0.0513  0.1872 -0.2510
  172SAPE   H9R19493   5.888   5.326   7.735  0.3674  0.9350 -1.1499
  172SAPE  C21019494   5.675   5.242   7.746 -0.5755  0.0419  0.2585
  172SAPE  H10R19495   5.615   5.180   7.677  1.1249 -2.7945  1.1483
  172SAPE  H10S19496   5.614   5.324   7.792  1.9372  0.4852  3.1380
  172SAPE  C21119497   5.719   5.151   7.859 -0.2411  0.1061 -0.4339
  172SAPE  H11R19498   5.717   5.045   7.830  1.6820  0.5538 -2.5067
  172SAPE  C21219499   5.763   5.195   7.977 -0.4565 -0.2738  0.5282
  172SAPE  H12R19500   5.810   5.130   8.051 -2.0744  0.8603  2.6484
  172SAPE  C21319501   5.778   5.332   8.034  0.5460 -0.6568  1.0303
  172SAPE  H13R19502   5.790   5.400   7.947 -1.8728 -3.3249 -1.6111
  172SAPE  H13S19503   5.874   5.340   8.089  1.0899 -3.5997  0.7047
  172SAPE  C21419504   5.655   5.373   8.118  0.4183  0.1493 -0.0874
  172SAPE  H14R19505   5.569   5.387   8.051  0.3499 -1.5573 -0.4172
  172SAPE  C21519506   5.621   5.393   8.247  0.0231  0.5097  0.2066
  172SAPE  H15R19507   5.519   5.425   8.271 -1.0596 -2.9743  0.7852
  172SAPE  C21619508   5.712   5.367   8.362  0.0307  0.3012  0.7411
  172SAPE  H16R19509   5.717   5.466   8.412  0.3437  1.7817 -2.0103
  172SAPE  H16S19510   5.812   5.345   8.320 -0.9583  0.5799 -1.9390
  172SAPE  C21719511   5.669   5.249   8.451  0.2972 -0.1117 -0.6017
  172SAPE  H17R19512   5.669   5.165   8.379  0.8824 -0.9914  0.4052
  172SAPE  H17S19513   5.566   5.275   8.483  1.3435  3.2535  0.4976
  172SAPE  C21819514   5.752   5.215   8.576 -0.0784 -0.2250 -0.0322
  172SAPE  H18R19515   5.778   5.307   8.633  1.7785 -1.2137  0.7942
  172SAPE  H18S19516   5.851   5.178   8.542  0.8627  0.4953  1.8226
  172SAPE  C21919517   5.667   5.122   8.668  0.2308  0.0258 -1.0313
  172SAPE  H19R19518   5.571   5.091   8.623 -0.4738  0.0073  0.4241
  172SAPE  H19S19519   5.645   5.182   8.759 -1.0669 -0.8727 -0.7334
  172SAPE  C22019520   5.735   4.986   8.685 -0.4449  0.8618 -0.2818
  172SAPE  H20R19521   5.846   4.981   8.687 -0.4630 -1.9232 -1.4234
  172SAPE  H20S19522   5.717   4.920   8.598  1.4159  0.1943 -0.1928
  172SAPE  H20T19523   5.698   4.935   8.777  3.4650 -3.3933 -0.6879
  172SAPE   C3319524   5.345   5.665   6.999 -0.6684 -0.3646 -0.4346
  172SAPE   H3X19525   5.444   5.715   7.004 -0.6008 -0.6226  1.5435
  172SAPE   H3Y19526   5.362   5.566   7.046  0.0403  0.7832  1.8760
  172SAPE   C3419527   5.240   5.740   7.088  0.4069  0.0548 -0.5523
  172SAPE   H4X19528   5.139   5.738   7.042  1.1952 -1.0673 -2.3419
  172SAPE   H4Y19529   5.268   5.847   7.097 -0.7791  0.3677 -0.3649
  172SAPE   C3519530   5.249   5.674   7.224  0.3287  0.3115 -1.1532
  172SAPE   H5X19531   5.355   5.684   7.255 -0.2555  0.2146  0.9933
  172SAPE   H5Y19532   5.225   5.566   7.228  2.2879 -0.1514 -0.8371
  172SAPE   C3619533   5.164   5.750   7.333 -0.2430  0.2643 -0.3869
  172SAPE   H6X19534   5.056   5.744   7.305  0.0579  0.1615 -1.5443
  172SAPE   H6Y19535   5.182   5.859   7.335  0.9961  0.0905 -1.1884
  172SAPE   C3719536   5.164   5.697   7.474  0.7516  0.4085  0.7504
  172SAPE   H7X19537   5.128   5.592   7.467  2.0196  0.1011 -3.4217
  172SAPE   H7Y19538   5.096   5.748   7.546 -0.0564  0.0230  0.2683
  172SAPE   C3819539   5.302   5.707   7.543 -0.0387 -0.2093  0.1617
  172SAPE   H8X19540   5.326   5.816   7.542  0.8580 -0.3966 -0.0949
  172SAPE   H8Y19541   5.370   5.639   7.487 -0.2881  1.2389 -2.0313
  172SAPE   C3919542   5.295   5.660   7.688  0.0820  0.6876  0.1124
  172SAPE   H9X19543   5.262   5.554   7.688  3.9570 -0.6809  0.0782
  172SAPE   H9Y19544   5.220   5.721   7.742 -1.7929  0.3516 -1.9861
  172SAPE  C31019545   5.432   5.668   7.771 -0.0927  0.2214 -0.3643
  172SAPE  H10X19546   5.461   5.775   7.761 -1.1181  0.3980 -1.6929
  172SAPE  H10Y19547   5.495   5.602   7.708  1.0597  0.3840  0.5806
  172SAPE  C31119548   5.439   5.609   7.914  0.5412 -0.7352  0.0962
  172SAPE  H11X19549   5.543   5.604   7.953  0.5218  1.7234  0.6158
  172SAPE  H11Y19550   5.392   5.510   7.930 -1.3892  0.1615  0.3187
  172SAPE  C31219551   5.362   5.704   8.008  0.2086 -0.1036 -0.4013
  172SAPE  H12X19552   5.255   5.709   7.983 -0.3372 -1.4150  1.4015
  172SAPE  H12Y19553   5.417   5.800   8.015  1.1568 -0.6994  0.7729
  172SAPE  C31319554   5.360   5.653   8.157  0.1522 -0.7535 -0.1619
  172SAPE  H13X19555   5.465   5.650   8.194  0.1068 -4.1219 -0.0114
  172SAPE  H13Y19556   5.320   5.550   8.144  0.7373 -0.7880 -2.0249
  172SAPE  C31419557   5.274   5.732   8.255 -0.4453 -0.0125 -0.1490
  172SAPE  H14X19558   5.168   5.704   8.236 -0.4341 -2.2514  2.4517
  172SAPE  H14Y19559   5.286   5.841   8.236  0.6011  0.0790  0.8860
  172SAPE  C31519560   5.299   5.684   8.402 -0.0422  0.1043 -0.2922
  172SAPE  H15X19561   5.264   5.758   8.477  0.6514  0.0583  0.0753
  172SAPE  H15Y19562   5.408   5.684   8.419  0.0333  1.9216 -0.5862
  172SAPE  C31619563   5.227   5.555   8.430  0.3936  0.5678  0.6437
  172SAPE  H16X19564   5.283   5.476   8.376 -0.0114  0.1789  0.7904
  172SAPE  H16Y19565   5.120   5.545   8.400  0.5260 -2.2784  0.8210
  172SAPE  C31719566   5.228   5.511   8.579  0.3685  0.2016 -0.1230
  172SAPE  H17X19567   5.190   5.596   8.639 -0.8220  0.3540 -1.0494
  172SAPE  H17Y19568   5.329   5.484   8.617  1.3920  1.9009 -1.4347
  172SAPE  C31819569   5.127   5.405   8.607 -0.2652  0.0020  0.6189
  172SAPE  H18X19570   5.121   5.393   8.718 -1.1653 -0.4587  0.5326
  172SAPE  H18Y19571   5.158   5.309   8.562 -0.1453  1.5963 -3.0027
  172SAPE  H18Z19572   5.027   5.431   8.567 -1.2151  1.3109  3.5632
  173SOPE     N19573   1.182   1.326  10.976 -0.5878  0.4381 -0.0205
  173SOPE   HN119574   1.262   1.314  10.911 -1.2283 -0.0373 -0.7313
  173SOPE   HN219575   1.151   1.229  10.998 -1.6736  0.8946  0.5939
  173SOPE   HN319576   1.110   1.376  10.919  0.6610  3.0736  0.5517
  173SOPE   C1219577   1.218   1.409  11.101  0.6186 -0.4754 -0.7697
  173SOPE  H12A19578   1.258   1.331  11.169  0.1140 -0.7501 -0.7825
  173SOPE  H12B19579   1.117   1.433  11.142 -0.6541 -2.1174 -2.7324
  173SOPE   C1119580   1.301   1.534  11.073  0.4161 -0.7832 -0.0102
  173SOPE  H11A19581   1.403   1.499  11.046  0.2270 -1.5724  0.2799
  173SOPE  H11B19582   1.312   1.578  11.174  1.8372  1.4552 -1.0396
  173SOPE     P19583   1.310   1.774  10.973 -0.2182 -0.5274 -0.3820
  173SOPE   O1319584   1.420   1.799  11.070 -0.1756  0.1058 -0.4806
  173SOPE   O1419585   1.196   1.863  10.993 -0.0022 -0.3203 -0.1963
  173SOPE   O1219586   1.251   1.631  10.980 -0.9879 -0.0775  0.8101
  173SOPE   O1119587   1.363   1.789  10.824 -0.0654 -0.0181  0.1367
  173SOPE    C119588   1.448   1.682  10.777 -0.1128  0.1695 -0.0189
  173SOPE    HA19589   1.409   1.579  10.786  0.6825 -0.3388 -1.9376
  173SOPE    HB19590   1.540   1.683  10.839  0.2832  0.2500 -0.6017
  173SOPE    C219591   1.485   1.720  10.630 -0.8265 -0.0744 -0.2363
  173SOPE    HS19592   1.517   1.826  10.632 -2.3080  0.3969 -0.2578
  173SOPE   O2119593   1.369   1.701  10.539  0.1957  0.0135  0.4781
  173SOPE   C2119594   1.385   1.753  10.419 -0.0872 -0.1942  0.5896
  173SOPE   O2219595   1.463   1.844  10.391 -0.1184 -0.0339 -0.9663
  173SOPE   C2219596   1.281   1.699  10.334 -0.1276 -0.4969  0.2354
  173SOPE   H2R19597   1.184   1.701  10.388 -1.4757 -0.3357 -2.0622
  173SOPE   H2S19598   1.300   1.595  10.302  1.2253  0.5930 -2.9212
  173SOPE    C319599   1.605   1.621  10.594 -0.1163 -0.0288 -0.5142
  173SOPE    HX19600   1.558   1.520  10.593  1.4995 -0.8148 -0.6022
  173SOPE    HY19601   1.684   1.615  10.672  0.2018 -0.7694 -0.8815
  173SOPE   O3119602   1.658   1.638  10.462 -0.5737  0.1990 -0.4803
  173SOPE   C3119603   1.773   1.717  10.465  0.8415 -0.0270 -0.2095
  173SOPE   O3219604   1.812   1.780  10.563  0.2829  0.3978  0.1569
  173SOPE   C3219605   1.847   1.717  10.336  0.1861  0.3983 -0.2690
  173SOPE   H2X19606   1.940   1.661  10.359  0.6590  1.2817  0.0183
  173SOPE   H2Y19607   1.882   1.819  10.311 -2.3982  1.7987  1.4055
  173SOPE   C2319608   1.272   1.785  10.205 -0.3259  0.2265  0.4478
  173SOPE   H3R19609   1.371   1.806  10.159  0.9678 -1.8226  2.0992
  173SOPE   H3S19610   1.217   1.875  10.239 -0.2207  1.5515 -2.5523
  173SOPE   C2419611   1.186   1.718  10.093  0.4028  0.0277 -0.0499
  173SOPE   H4R19612   1.220   1.616  10.065 -0.2853  0.2742 -1.9076
  173SOPE   H4S19613   1.080   1.703  10.124  0.6537 -0.1055  0.7640
  173SOPE   C2519614   1.185   1.786   9.954 -0.2006  0.9347  0.2824
  173SOPE   H5R19615   1.094   1.754   9.900  1.8771 -3.4387 -1.0945
  173SOPE   H5S19616   1.180   1.896   9.972 -0.7077  1.0406 -0.4621
  173SOPE   C2619617   1.307   1.743   9.873 -0.6564  0.3330 -0.1249
  173SOPE   H6R19618   1.408   1.753   9.917 -0.9528 -0.7417  0.8620
  173SOPE   H6S19619   1.318   1.633   9.857  2.6504  0.5483  0.0575
  173SOPE   C2719620   1.303   1.802   9.732 -0.1669 -0.3140  0.2095
  173SOPE   H7R19621   1.287   1.912   9.731  1.0793 -0.0823  1.8195
  173SOPE   H7S19622   1.394   1.796   9.669  0.7259  1.2981  1.2825
  173SOPE   C2819623   1.204   1.743   9.631 -0.2303  1.2417 -0.4142
  173SOPE   H8R19624   1.239   1.639   9.612  1.8935  1.8538 -0.0348
  173SOPE   H8S19625   1.109   1.740   9.690  0.6189  0.8896  0.9734
  173SOPE   C2919626   1.184   1.822   9.508  0.8037  0.3037  0.5510
  173SOPE   H9119627   1.166   1.929   9.525  0.0566  0.7578 -2.4916
  173SOPE  C21019628   1.179   1.779   9.378  0.1655  0.5618  0.0471
  173SOPE  H10119629   1.162   1.859   9.304  2.7170  0.5561 -0.6386
  173SOPE  C21119630   1.198   1.637   9.316  0.3764 -1.1923  0.1393
  173SOPE  H11R19631   1.203   1.563   9.399 -1.2658 -0.8701  0.5401
  173SOPE  H11S19632   1.301   1.639   9.272  0.0399  0.6996 -0.6522
  173SOPE  C21219633   1.103   1.580   9.205  0.6036 -0.2306  0.5424
  173SOPE  H12R19634   0.997   1.599   9.229  0.7007  2.1042 -0.5625
  173SOPE  H12S19635   1.123   1.471   9.207 -0.5192 -0.6166 -2.8626
  173SOPE  C21319636   1.128   1.627   9.064 -0.8742 -0.6077 -1.1190
  173SOPE  H13R19637   1.230   1.595   9.032 -1.8131 -4.4528 -0.7624
  173SOPE  H13S19638   1.119   1.737   9.047 -0.8046 -0.3126  0.6401
  173SOPE  C21419639   1.021   1.554   8.979 -0.2230 -0.0020 -0.3465
  173SOPE  H14R19640   0.925   1.610   8.981  0.8128  2.1050  3.8224
  173SOPE  H14S19641   1.013   1.453   9.024 -2.2311  0.4974  0.5355
  173SOPE  C21519642   1.066   1.547   8.827  0.1810  0.4772 -0.2029
  173SOPE  H15R19643   1.016   1.465   8.771  0.4967  1.7096 -2.4338
  173SOPE  H15S19644   1.175   1.526   8.821  0.0754 -0.7944  1.6148
  173SOPE  C21619645   1.045   1.671   8.741  0.4189  0.1302 -0.3601
  173SOPE  H16R19646   1.126   1.744   8.758  1.9525 -1.6220  0.0972
  173SOPE  H16S19647   0.945   1.712   8.768  0.3871 -1.1346  1.6276
  173SOPE  C21719648   1.060   1.626   8.589 -0.0891  0.0683 -0.2403
  173SOPE  H17R19649   0.981   1.548   8.583  1.3791 -1.3576 -2.7794
  173SOPE  H17S19650   1.162   1.586   8.575 -0.2190 -0.1614 -0.5564
  173SOPE  C21819651   1.040   1.744   8.488 -0.2124  0.4199  0.1219
  173SOPE  H18R19652   0.966   1.821   8.515 -0.3383  0.7037 -0.9749
  173SOPE  H18S19653   1.020   1.714   8.383  0.5191 -0.7193  0.2863
  173SOPE  H18T19654   1.139   1.795   8.485  1.4153 -2.4863 -1.3987
  173SOPE   C3319655   1.762   1.662  10.219 -0.1919  0.7541 -0.6631
  173SOPE   H3X19656   1.679   1.733  10.200  1.2575  3.0639  1.0553
  173SOPE   H3Y19657   1.726   1.558  10.235 -1.4956  1.4088  0.9052
  173SOPE   C3419658   1.840   1.652  10.080 -0.6176 -0.1952 -0.3821
  173SOPE   H4X19659   1.878   1.549  10.066 -3.9414 -1.8257  1.4155
  173SOPE   H4Y19660   1.924   1.724  10.087 -0.5605 -0.2960 -0.0495
  173SOPE   C3519661   1.751   1.688   9.962 -0.1940  0.1589  0.2241
  173SOPE   H5X19662   1.735   1.798   9.974  0.0371  0.1635  0.5172
  173SOPE   H5Y19663   1.662   1.621   9.969 -1.3203  1.1396 -3.0873
  173SOPE   C3619664   1.821   1.661   9.828 -0.3967  0.4599 -0.4824
  173SOPE   H6X19665   1.837   1.551   9.829  0.5098  0.5742  0.9812
  173SOPE   H6Y19666   1.921   1.709   9.824 -1.4959  3.2066  1.5177
  173SOPE   C3719667   1.734   1.708   9.705  0.1108  0.2036 -0.2098
  173SOPE   H7X19668   1.726   1.819   9.706 -3.0771  0.0608 -0.2523
  173SOPE   H7Y19669   1.627   1.682   9.721 -0.1098  0.2414 -1.5091
  173SOPE   C3819670   1.767   1.644   9.569 -0.5562 -0.2282 -0.6966
  173SOPE   H8X19671   1.747   1.535   9.573 -0.9897 -0.1267  0.9589
  173SOPE   H8Y19672   1.876   1.662   9.559  0.0858 -0.8812  3.3699
  173SOPE   C3919673   1.680   1.699   9.446 -0.9984  0.3731 -0.1187
  173SOPE   H9X19674   1.681   1.809   9.435  0.2786  0.4036  0.1094
  173SOPE   H9Y19675   1.576   1.663   9.458 -1.1261  0.3606 -1.2116
  173SOPE  C31019676   1.735   1.644   9.319  0.4310  0.6202  0.6687
  173SOPE  H10X19677   1.729   1.533   9.332  1.1756  0.6533  1.4386
  173SOPE  H10Y19678   1.841   1.670   9.295  1.1177 -0.5888  2.1618
  173SOPE  C31119679   1.649   1.685   9.203 -0.3472  0.0999 -0.6939
  173SOPE  H11X19680   1.543   1.655   9.219 -0.4886  0.2607 -1.3017
  173SOPE  H11Y19681   1.682   1.623   9.117 -2.1122  1.2598 -2.3044
  173SOPE  C31219682   1.661   1.834   9.174  0.5117  0.0012  0.1024
  173SOPE  H12X19683   1.771   1.851   9.174  0.5271 -0.1029  0.7072
  173SOPE  H12Y19684   1.619   1.896   9.256  1.3871 -0.6121  1.0322
  173SOPE  C31319685   1.591   1.870   9.034  0.0605  0.1212  0.1175
  173SOPE  H13X19686   1.639   1.802   8.960 -1.2418 -0.5208 -0.1713
  173SOPE  H13Y19687   1.610   1.979   9.031  0.1724  0.1267  0.9667
  173SOPE  C31419688   1.438   1.847   9.025 -0.8162 -0.1225 -0.2372
  173SOPE  H14X19689   1.389   1.844   9.124 -2.1689  2.1696 -0.7583
  173SOPE  H14Y19690   1.421   1.741   8.995  2.6597 -1.3425  1.5020
  173SOPE  C31519691   1.377   1.928   8.922  0.0816  0.0950  0.1657
  173SOPE  H15X19692   1.422   2.030   8.916 -0.9788  0.5664 -0.0940
  173SOPE  H15Y19693   1.271   1.952   8.944  0.7812  3.0386  0.8079
  173SOPE  C31619694   1.391   1.878   8.774  0.2752 -0.5390  0.9049
  173SOPE  H16X19695   1.335   1.782   8.768 -0.1228 -0.2702  0.1456
  173SOPE  H16Y19696   1.496   1.850   8.749 -0.0645 -1.3420  0.3372
  173SOPE  C31719697   1.329   1.992   8.688  0.1607  0.0090 -0.4517
  173SOPE  H17X19698   1.379   2.088   8.713  1.0036 -0.6856  0.6188
  173SOPE  H17Y19699   1.221   1.993   8.711  0.0972  2.2563 -0.6582
  173SOPE  C31819700   1.346   1.949   8.547 -0.1215  0.4716  0.0390
  173SOPE  H18X19701   1.454   1.953   8.524 -0.2656  1.7275 -0.5495
  173SOPE  H18Y19702   1.304   2.032   8.486 -0.9244  0.2132  0.2338
  173SOPE  H18Z19703   1.299   1.852   8.522 -0.0808  1.0548 -2.6217
  174SOPE     N19704   3.734   5.907  11.004 -0.3710  0.9757  0.2173
  174SOPE   HN119705   3.710   6.003  11.037  1.8619  2.1988 -1.4126
  174SOPE   HN219706   3.705   5.899  10.905 -0.1570 -1.3946  0.2876
  174SOPE   HN319707   3.691   5.834  11.064  3.5975  0.7600  3.2352
  174SOPE   C1219708   3.886   5.890  11.016 -0.2596 -0.5551 -0.2856
  174SOPE  H12A19709   3.922   5.798  10.966  0.6348 -0.4481  0.1493
  174SOPE  H12B19710   3.919   5.891  11.122  1.2214 -0.6382 -0.7235
  174SOPE   C1119711   3.948   6.016  10.948 -0.0485  0.9216 -0.2835
  174SOPE  H11A19712   3.914   6.103  11.007 -0.9226  1.1393 -1.0840
  174SOPE  H11B19713   3.909   6.030  10.845  0.0831 -1.6394 -0.7436
  174SOPE     P19714   4.176   5.947  10.824  0.1795  0.5741 -0.0315
  174SOPE   O1319715   4.209   5.811  10.846  0.4148  0.3628 -0.2634
  174SOPE   O1419716   4.289   6.041  10.790 -0.3329  0.0611 -0.5451
  174SOPE   O1219717   4.095   6.013  10.948 -0.2577  0.0592  0.9267
  174SOPE   O1119718   4.078   5.955  10.705 -0.0735  0.0573 -0.2817
  174SOPE    C119719   4.035   5.841  10.628 -0.0096  0.2342  0.2956
  174SOPE    HA19720   3.973   5.765  10.679 -2.1216  0.9886 -1.0389
  174SOPE    HB19721   4.125   5.796  10.581 -0.7744  0.9319 -1.9430
  174SOPE    C219722   3.951   5.888  10.501 -0.1552 -0.0191 -0.2683
  174SOPE    HS19723   3.969   5.820  10.415  1.4375  0.8532 -0.6493
  174SOPE   O2119724   3.994   6.013  10.454  0.7624 -0.1808 -0.2376
  174SOPE   C2119725   4.123   6.021  10.421 -1.2116 -0.1311 -0.6654
  174SOPE   O2219726   4.187   5.916  10.396  0.4661  0.2173  0.1139
  174SOPE   C2219727   4.178   6.162  10.404  0.6403 -0.1103  0.3467
  174SOPE   H2R19728   4.289   6.157  10.396  0.5434 -1.3406 -0.6384
  174SOPE   H2S19729   4.153   6.225  10.492  0.0163  0.1521 -0.0072
  174SOPE    C319730   3.801   5.877  10.525 -0.0407  0.7980 -0.3241
  174SOPE    HX19731   3.756   5.970  10.567 -3.4778 -1.0053  0.2811
  174SOPE    HY19732   3.793   5.802  10.607  2.5155  0.1669 -0.5635
  174SOPE   O3119733   3.740   5.822  10.403 -0.3000 -0.1073 -0.2337
  174SOPE   C3119734   3.686   5.914  10.327  0.1948 -0.1921 -0.6763
  174SOPE   O3219735   3.670   6.030  10.361  0.3335  0.3417 -0.0503
  174SOPE   C3219736   3.632   5.869  10.192  0.3143 -0.3087 -0.2419
  174SOPE   H2X19737   3.527   5.899  10.175 -0.7916 -3.2624  0.7155
  174SOPE   H2Y19738   3.630   5.758  10.190 -1.9376 -0.2921 -2.4668
  174SOPE   C2319739   4.118   6.224  10.274 -0.1903  0.0646 -0.5273
  174SOPE   H3R19740   4.160   6.327  10.265 -0.1594  0.1454  0.3664
  174SOPE   H3S19741   4.011   6.243  10.295  0.2369  1.9805  0.1507
  174SOPE   C2419742   4.154   6.150  10.149 -0.0963  0.9040 -0.3055
  174SOPE   H4R19743   4.265   6.143  10.146 -0.1863 -1.0232 -0.5860
  174SOPE   H4S19744   4.107   6.051  10.128 -0.5957  0.8783  0.8695
  174SOPE   C2519745   4.115   6.246  10.031  0.3030 -0.3043  0.3621
  174SOPE   H5R19746   4.013   6.280  10.059 -0.1980 -1.2683 -0.2369
  174SOPE   H5S19747   4.181   6.334  10.049 -0.9323  0.3575  1.9369
  174SOPE   C2619748   4.128   6.184   9.892 -1.0890  0.2928 -0.9997
  174SOPE   H6R19749   4.050   6.106   9.882 -2.0842  1.0189  0.5618
  174SOPE   H6S19750   4.106   6.269   9.823 -0.3760  0.9940 -0.3886
  174SOPE   C2719751   4.264   6.125   9.860 -0.0905  0.0129  0.5332
  174SOPE   H7R19752   4.339   6.202   9.886 -0.4953  0.7917 -0.5117
  174SOPE   H7S19753   4.274   6.042   9.932 -2.7743  2.4165  4.0026
  174SOPE   C2819754   4.259   6.069   9.717  0.0395 -0.2171 -0.1439
  174SOPE   H8R19755   4.337   5.990   9.726  1.5734  1.5042  3.6350
  174SOPE   H8S19756   4.157   6.026   9.700 -0.9695  2.2483 -0.6879
  174SOPE   C2919757   4.285   6.169   9.608 -0.0854  0.3091 -0.1314
  174SOPE   H9119758   4.232   6.266   9.613  0.7472  0.8116 -0.7552
  174SOPE  C21019759   4.369   6.150   9.502 -0.2028  0.0865 -0.3478
  174SOPE  H10119760   4.372   6.233   9.430 -0.2894  0.4278  0.0368
  174SOPE  C21119761   4.453   6.033   9.477 -0.4392 -0.2039  0.2237
  174SOPE  H11R19762   4.468   5.959   9.558 -0.4122 -1.0671 -0.5537
  174SOPE  H11S19763   4.554   6.058   9.440 -0.0566 -0.6814  0.9099
  174SOPE  C21219764   4.398   5.947   9.359 -0.2782 -0.2002  0.2561
  174SOPE  H12R19765   4.293   5.919   9.381 -0.4056  0.2681  0.2453
  174SOPE  H12S19766   4.453   5.850   9.355  0.1150  0.0665 -1.5047
  174SOPE  C21319767   4.401   6.012   9.221  0.5621 -0.5174 -0.1767
  174SOPE  H13R19768   4.502   6.053   9.199  0.4258 -0.7441 -1.2836
  174SOPE  H13S19769   4.323   6.092   9.222 -0.8172 -1.8204 -0.3597
  174SOPE  C21419770   4.368   5.912   9.107 -0.5928 -0.4905 -0.2557
  174SOPE  H14R19771   4.382   5.971   9.014 -3.6063  0.8644  0.0205
  174SOPE  H14S19772   4.265   5.881   9.133 -0.4978 -0.1253  0.6019
  174SOPE  C21519773   4.436   5.777   9.093 -0.6154  0.1570 -0.5545
  174SOPE  H15R19774   4.447   5.728   9.192 -2.2369  1.1235  0.1499
  174SOPE  H15S19775   4.536   5.797   9.048 -0.7902  1.4193 -0.4175
  174SOPE  C21619776   4.366   5.684   8.999 -0.3075  0.4824  0.2851
  174SOPE  H16R19777   4.334   5.733   8.905  0.4068  0.5074  0.0525
  174SOPE  H16S19778   4.266   5.661   9.043 -1.0509  2.4983 -0.2174
  174SOPE  C21719779   4.447   5.553   8.968  0.6457  0.1816 -0.2127
  174SOPE  H17R19780   4.452   5.503   9.068 -0.2901  2.1572  0.8872
  174SOPE  H17S19781   4.549   5.577   8.932  0.1663  0.9426 -1.1003
  174SOPE  C21819782   4.369   5.481   8.865 -0.0472  0.8288  0.6692
  174SOPE  H18R19783   4.370   5.372   8.883  1.6524  0.4170 -1.4746
  174SOPE  H18S19784   4.392   5.503   8.758  0.6548  1.5440  0.9555
  174SOPE  H18T19785   4.261   5.504   8.879 -0.4834 -2.0103  2.8036
  174SOPE   C3319786   3.749   5.912  10.084 -0.3098 -0.8836 -0.2786
  174SOPE   H3X19787   3.847   5.865  10.108 -1.2514 -1.7626  2.1579
  174SOPE   H3Y19788   3.760   6.022  10.083  1.6244 -0.9694 -3.3733
  174SOPE   C3419789   3.696   5.877   9.940  0.0682  0.6236 -0.3877
  174SOPE   H4X19790   3.600   5.920   9.906 -1.3869 -1.1881  1.2226
  174SOPE   H4Y19791   3.675   5.768   9.935  1.2572  0.4141 -1.6407
  174SOPE   C3519792   3.809   5.904   9.845 -0.0105  0.5310 -0.7893
  174SOPE   H5X19793   3.885   5.828   9.870 -0.3669  0.0975 -1.0053
  174SOPE   H5Y19794   3.849   6.004   9.873 -0.2431 -0.2721  2.8237
  174SOPE   C3619795   3.774   5.883   9.698  0.0919 -0.4709 -0.0029
  174SOPE   H6X19796   3.684   5.947   9.684 -0.8994 -1.5082  1.3496
  174SOPE   H6Y19797   3.758   5.779   9.662  0.2085 -0.3981 -0.2750
  174SOPE   C3719798   3.888   5.941   9.613 -0.0102 -0.0323 -0.2088
  174SOPE   H7X19799   3.969   5.866   9.626  1.1055  1.0244 -0.8727
  174SOPE   H7Y19800   3.923   6.036   9.658  0.6535 -1.4912  2.6008
  174SOPE   C3819801   3.855   5.959   9.459 -0.5923  0.2412  0.1313
  174SOPE   H8X19802   3.785   6.045   9.465 -0.2204  0.7211 -1.6706
  174SOPE   H8Y19803   3.822   5.854   9.440  0.4511  0.0772 -0.8901
  174SOPE   C3919804   3.985   5.991   9.395  0.3912  0.0261  0.2131
  174SOPE   H9X19805   4.035   5.894   9.375 -1.9408 -1.5077  1.4324
  174SOPE   H9Y19806   4.048   6.049   9.466  1.3815 -2.0986  1.1455
  174SOPE  C31019807   3.962   6.089   9.279 -0.3719  0.2937 -0.2659
  174SOPE  H10X19808   4.058   6.132   9.244 -0.3832  1.6944  1.3004
  174SOPE  H10Y19809   3.900   6.171   9.322 -0.8404 -1.0881  1.8779
  174SOPE  C31119810   3.890   6.016   9.166 -0.1436  0.2199  0.4846
  174SOPE  H11X19811   3.798   5.969   9.208 -1.7352  3.0917  0.4503
  174SOPE  H11Y19812   3.955   5.938   9.120 -1.3416  0.2588 -1.3949
  174SOPE  C31219813   3.838   6.082   9.034  0.0341 -0.0174  0.0848
  174SOPE  H12X19814   3.774   6.165   9.072 -0.5600  0.0733 -1.0714
  174SOPE  H12Y19815   3.778   6.017   8.968  1.1560 -0.1760 -0.7986
  174SOPE  C31319816   3.945   6.137   8.940 -0.3850 -0.4931  0.0788
  174SOPE  H13X19817   4.020   6.205   8.987  3.4779 -2.7615 -2.2219
  174SOPE  H13Y19818   3.897   6.199   8.861 -0.2742 -0.8205 -0.2492
  174SOPE  C31419819   4.020   6.021   8.875 -0.6658 -0.4603 -0.1691
  174SOPE  H14X19820   3.952   5.944   8.833  1.5202 -2.7588  0.2537
  174SOPE  H14Y19821   4.085   5.968   8.948  0.1212  0.5751 -0.0905
  174SOPE  C31519822   4.122   6.074   8.777 -0.1369  0.6321 -0.2781
  174SOPE  H15X19823   4.194   6.129   8.841 -2.4309 -1.2250  4.3189
  174SOPE  H15Y19824   4.075   6.140   8.702 -0.0426  0.9291 -0.0746
  174SOPE  C31619825   4.188   5.956   8.699 -0.5836  0.0679 -0.3971
  174SOPE  H16X19826   4.104   5.890   8.668 -2.1971  2.6372 -1.9141
  174SOPE  H16Y19827   4.248   5.897   8.771 -0.9941  0.9492  0.7004
  174SOPE  C31719828   4.275   6.013   8.588  0.1755 -1.0018 -0.1542
  174SOPE  H17X19829   4.351   6.072   8.644 -0.8873  0.6727 -0.4156
  174SOPE  H17Y19830   4.219   6.079   8.519 -1.7001  0.2864  2.4151
  174SOPE  C31819831   4.356   5.912   8.499 -0.1182  0.5463 -0.7373
  174SOPE  H18X19832   4.296   5.835   8.446  0.0862 -2.2071  2.5961
  174SOPE  H18Y19833   4.434   5.864   8.562 -0.5948 -0.1195 -0.6391
  174SOPE  H18Z19834   4.418   5.972   8.429  0.2799  0.6709 -0.2848
  175SOPE     N19835   5.767   0.963  10.975  0.2661  0.1695  1.1134
  175SOPE   HN119836   5.839   0.891  10.994 -0.4235 -0.6877  0.5791
  175SOPE   HN219837   5.791   1.047  11.030 -2.3326  2.0476 -0.4061
  175SOPE   HN319838   5.678   0.923  11.013 -1.3828  0.2787 -2.2496
  175SOPE   C1219839   5.766   0.990  10.826  0.2515  0.4449  0.1765
  175SOPE  H12A19840   5.873   1.014  10.809  0.9571 -1.7187  1.2036
  175SOPE  H12B19841   5.691   1.069  10.804 -0.1609 -0.1946 -0.7632
  175SOPE   C1119842   5.716   0.871  10.744 -0.3335  0.0532  0.0151
  175SOPE  H11A19843   5.783   0.783  10.755  0.3294  0.4744 -0.5831
  175SOPE  H11B19844   5.729   0.893  10.636 -0.2836 -0.4235 -0.0760
  175SOPE     P19845   5.467   0.901  10.683 -0.1222 -0.0634  0.2789
  175SOPE   O1319846   5.477   1.046  10.697 -0.3085 -0.9021 -0.1887
  175SOPE   O1419847   5.334   0.839  10.715 -0.4841  0.2718 -0.2584
  175SOPE   O1219848   5.580   0.842  10.777 -0.6615  0.1877 -0.5118
  175SOPE   O1119849   5.515   0.855  10.537 -0.0497 -0.4142 -0.1142
  175SOPE    C119850   5.438   0.897  10.422 -0.6140 -0.7552 -0.6400
  175SOPE    HA19851   5.329   0.903  10.437 -0.4915 -1.1050  0.4674
  175SOPE    HB19852   5.450   0.825  10.338  1.6482  1.4474 -2.3598
  175SOPE    C219853   5.487   1.043  10.379  0.3876 -0.2028 -0.1309
  175SOPE    HS19854   5.450   1.110  10.460 -0.9301 -0.9956 -0.0428
  175SOPE   O2119855   5.420   1.067  10.251 -0.0654  0.3670 -0.0088
  175SOPE   C2119856   5.416   1.197  10.213  0.6152 -0.2688 -0.9009
  175SOPE   O2219857   5.442   1.298  10.281  0.0698  0.0569  0.2290
  175SOPE   C2219858   5.345   1.208  10.077  0.4428  0.8524  0.3328
  175SOPE   H2R19859   5.249   1.258  10.102 -0.9144 -0.8907 -1.0667
  175SOPE   H2S19860   5.320   1.105  10.045  1.8935  0.2075  1.1843
  175SOPE    C319861   5.636   1.063  10.364  0.1792  0.3900  0.2666
  175SOPE    HX19862   5.674   1.055  10.468 -1.5303  0.3356  0.9107
  175SOPE    HY19863   5.646   1.166  10.325 -0.1575  0.8536  1.3665
  175SOPE   O3119864   5.700   0.975  10.266 -0.2042  0.3847 -0.3054
  175SOPE   C3119865   5.832   0.973  10.289 -0.0140 -0.3402 -0.1319
  175SOPE   O3219866   5.894   1.053  10.360 -0.2711  0.2212  0.1270
  175SOPE   C3219867   5.884   0.855  10.199  0.3252 -0.2532  0.1292
  175SOPE   H2X19868   5.797   0.789  10.178 -1.6087  1.8678  1.0941
  175SOPE   H2Y19869   5.952   0.790  10.257  0.8051 -0.5240 -0.7107
  175SOPE   C2319870   5.427   1.293   9.984 -0.5703 -0.0463  0.5454
  175SOPE   H3R19871   5.502   1.221   9.943 -1.2830  2.1767 -5.8659
  175SOPE   H3S19872   5.466   1.385  10.031  2.3414 -0.2958 -1.1754
  175SOPE   C2419873   5.349   1.329   9.858 -0.4601 -0.4274  0.6460
  175SOPE   H4R19874   5.285   1.245   9.822 -0.3353  0.9541 -3.3218
  175SOPE   H4S19875   5.281   1.410   9.893 -2.0155 -1.9658  1.3539
  175SOPE   C2519876   5.431   1.401   9.742  0.0359 -0.7725  0.1402
  175SOPE   H5R19877   5.476   1.313   9.690  0.2218 -0.7636  0.2858
  175SOPE   H5S19878   5.370   1.450   9.663  3.3132  0.2253 -2.0025
  175SOPE   C2619879   5.519   1.512   9.786 -0.0628 -0.4619  0.8039
  175SOPE   H6R19880   5.470   1.543   9.880  1.4900  3.0117  0.6187
  175SOPE   H6S19881   5.621   1.487   9.822  0.2297 -0.4345  0.0148
  175SOPE   C2719882   5.532   1.627   9.688 -0.6340 -0.1715 -0.8218
  175SOPE   H7R19883   5.600   1.580   9.614 -2.1396 -0.3375 -2.1620
  175SOPE   H7S19884   5.431   1.646   9.645  0.4978 -1.1405 -4.2252
  175SOPE   C2819885   5.595   1.757   9.744 -0.1365 -0.3051  0.2411
  175SOPE   H8R19886   5.677   1.720   9.809  1.3824 -2.0444 -2.4644
  175SOPE   H8S19887   5.634   1.803   9.651  0.0358  0.0901  0.5084
  175SOPE   C2919888   5.490   1.840   9.819 -0.0881 -0.0131  0.5278
  175SOPE   H9119889   5.430   1.786   9.895  0.5747  1.7468  2.4039
  175SOPE  C21019890   5.473   1.970   9.792 -0.1592 -0.4039  0.2617
  175SOPE  H10119891   5.385   2.014   9.841 -0.3546 -0.6601  0.1440
  175SOPE  C21119892   5.536   2.069   9.701  0.2066 -0.8306  0.3207
  175SOPE  H11R19893   5.639   2.045   9.667  1.1006  1.5320  1.1525
  175SOPE  H11S19894   5.544   2.162   9.761 -1.4214 -1.0840  0.9951
  175SOPE  C21219895   5.457   2.128   9.575  0.0414  0.2313  0.6207
  175SOPE  H12R19896   5.520   2.200   9.519 -2.3428  0.4890 -1.8819
  175SOPE  H12S19897   5.363   2.182   9.597 -0.2057  1.0069 -2.0247
  175SOPE  C21319898   5.423   2.015   9.481  0.1645  0.2173  0.0633
  175SOPE  H13R19899   5.333   1.971   9.529  0.2246  0.5045  0.4495
  175SOPE  H13S19900   5.494   1.930   9.492  0.0200  0.2457  1.3941
  175SOPE  C21419901   5.401   2.048   9.328 -0.0643  0.2863 -0.6098
  175SOPE  H14R19902   5.493   2.078   9.274  0.3533  0.8971  0.4225
  175SOPE  H14S19903   5.325   2.129   9.326 -0.3105  0.0389 -1.9543
  175SOPE  C21519904   5.357   1.927   9.245 -0.1754  0.1643  0.4977
  175SOPE  H15R19905   5.302   1.966   9.157  0.2435 -0.8253 -0.2212
  175SOPE  H15S19906   5.292   1.867   9.313  2.3890 -3.4173  0.1115
  175SOPE  C21619907   5.473   1.843   9.185  0.2522 -0.6577  0.1771
  175SOPE  H16R19908   5.546   1.810   9.262  1.8096 -1.2324 -1.4617
  175SOPE  H16S19909   5.522   1.903   9.105  0.3908 -0.6802  0.2442
  175SOPE  C21719910   5.416   1.710   9.127 -0.7895  0.0902  0.7922
  175SOPE  H17R19911   5.352   1.665   9.206 -1.4533 -1.9171 -0.7880
  175SOPE  H17S19912   5.505   1.644   9.117  0.0589  1.0700  1.7476
  175SOPE  C21819913   5.345   1.713   8.992 -0.4135 -0.1069  0.3454
  175SOPE  H18R19914   5.267   1.791   8.977 -0.7166 -0.4062  0.3583
  175SOPE  H18S19915   5.306   1.610   8.983 -1.3226  0.0491  2.0984
  175SOPE  H18T19916   5.422   1.735   8.915 -0.4288 -0.9127  0.0895
  175SOPE   C3319917   5.951   0.900  10.062  0.2985  0.6132 -0.3972
  175SOPE   H3X19918   5.989   0.805  10.021 -1.5789 -0.6373  0.5884
  175SOPE   H3Y19919   6.033   0.965  10.097  2.1548 -1.0774 -1.4368
  175SOPE   C3419920   5.852   0.968   9.967 -0.7936  0.3988 -0.0003
  175SOPE   H4X19921   5.794   1.035  10.034 -0.2897  2.3986 -1.4805
  175SOPE   H4Y19922   5.789   0.889   9.920 -0.3047  1.0835 -1.8857
  175SOPE   C3519923   5.924   1.055   9.863  0.2010 -0.4305  0.4188
  175SOPE   H5X19924   5.997   0.985   9.818  0.0989 -0.6707  0.6258
  175SOPE   H5Y19925   5.979   1.129   9.926  0.2255 -0.0921  0.0044
  175SOPE   C3619926   5.827   1.130   9.764 -0.2193 -0.3626  0.1013
  175SOPE   H6X19927   5.763   1.195   9.828 -0.4722 -0.9626  0.4640
  175SOPE   H6Y19928   5.752   1.059   9.724  0.2156 -2.1495  2.2772
  175SOPE   C3719929   5.904   1.222   9.656  0.5647 -0.6474 -0.3741
  175SOPE   H7X19930   5.973   1.150   9.607  0.8332  0.0913 -1.1147
  175SOPE   H7Y19931   5.972   1.290   9.712 -0.9311  0.9184 -0.3750
  175SOPE   C3819932   5.817   1.287   9.548 -0.4493  0.5563  0.5290
  175SOPE   H8X19933   5.776   1.382   9.589 -0.7252  0.7344 -0.1580
  175SOPE   H8Y19934   5.729   1.224   9.524  0.2362 -0.4483  0.5962
  175SOPE   C3919935   5.898   1.316   9.419 -0.2883 -0.7844  0.2120
  175SOPE   H9X19936   5.928   1.215   9.384 -1.2887 -1.0081 -0.0423
  175SOPE   H9Y19937   5.983   1.386   9.431  0.3181 -0.9712 -2.3348
  175SOPE  C31019938   5.817   1.390   9.319  0.2792 -0.2999  0.4828
  175SOPE  H10X19939   5.780   1.491   9.349  0.4137 -0.5320  1.4708
  175SOPE  H10Y19940   5.734   1.322   9.291  1.5914 -1.3312 -1.0696
  175SOPE  C31119941   5.899   1.421   9.190  0.5072 -0.3466 -0.0401
  175SOPE  H11X19942   5.931   1.321   9.154  1.4217  0.1718 -0.7004
  175SOPE  H11Y19943   5.975   1.494   9.223  0.0951 -1.0410  2.7123
  175SOPE  C31219944   5.823   1.485   9.071 -0.3090  0.0783 -0.1790
  175SOPE  H12X19945   5.892   1.505   8.987  1.4166 -0.3999  1.0623
  175SOPE  H12Y19946   5.773   1.574   9.114  2.3856  1.1919  0.8423
  175SOPE  C31319947   5.719   1.390   9.000  0.5598 -0.6081 -0.4636
  175SOPE  H13X19948   5.648   1.358   9.079 -1.3137 -0.2775 -1.9403
  175SOPE  H13Y19949   5.772   1.299   8.966 -1.1004 -2.8778  2.4983
  175SOPE  C31419950   5.642   1.455   8.884  0.1672 -0.3212 -0.1336
  175SOPE  H14X19951   5.728   1.475   8.817  0.4272 -0.2653  0.2135
  175SOPE  H14Y19952   5.600   1.543   8.937  0.5804 -1.0111  1.3788
  175SOPE  C31519953   5.533   1.380   8.812 -0.4026 -0.7356 -0.1307
  175SOPE  H15X19954   5.454   1.357   8.887 -0.7428 -1.1897 -0.6225
  175SOPE  H15Y19955   5.569   1.284   8.769 -0.6845 -1.2915  0.8265
  175SOPE  C31619956   5.463   1.467   8.707 -0.0566 -0.3374 -0.3877
  175SOPE  H16X19957   5.540   1.484   8.629  0.5131  0.3313  0.3131
  175SOPE  H16Y19958   5.421   1.564   8.741 -1.4302 -0.0290 -2.7210
  175SOPE  C31719959   5.346   1.392   8.639  0.1335  0.6489  0.4034
  175SOPE  H17X19960   5.284   1.374   8.730  1.3819 -0.2109  1.1216
  175SOPE  H17Y19961   5.376   1.294   8.597 -1.5334 -0.5161  1.7647
  175SOPE  C31819962   5.263   1.473   8.529 -0.0307 -0.0344 -0.6606
  175SOPE  H18X19963   5.163   1.429   8.506 -0.0870 -0.5610  0.5000
  175SOPE  H18Y19964   5.312   1.486   8.430 -0.4050 -2.5032 -1.2508
  175SOPE  H18Z19965   5.229   1.569   8.573 -1.9449 -1.7066  1.7688
  176SOPE     N19966   6.754   0.801  10.989 -0.4124  0.5431 -0.9812
  176SOPE   HN119967   6.758   0.887  11.047 -1.5193 -0.9631  1.4803
  176SOPE   HN219968   6.739   0.829  10.890 -1.3017 -0.8673 -1.2719
  176SOPE   HN319969   6.664   0.758  11.018 -1.7086  1.8110 -2.8909
  176SOPE   C1219970   6.864   0.704  11.022 -0.3041 -0.2234  0.4644
  176SOPE  H12A19971   6.822   0.607  10.987  1.4450 -0.9198  0.2132
  176SOPE  H12B19972   6.877   0.696  11.132 -0.7497 -0.7000  0.4873
  176SOPE   C1119973   6.992   0.738  10.950  0.4827 -0.5692 -0.1855
  176SOPE  H11A19974   7.080   0.677  10.980  2.2118  1.6236 -0.4992
  176SOPE  H11B19975   7.021   0.840  10.982 -2.5288  0.5643 -0.7657
  176SOPE     P19976   7.033   0.631  10.716 -0.3940 -0.0188 -0.3017
  176SOPE   O1319977   6.956   0.507  10.745 -0.2929  0.2968  0.2689
  176SOPE   O1419978   7.175   0.615  10.737 -0.2282 -0.1979 -0.1598
  176SOPE   O1219979   6.973   0.748  10.807  0.2614  0.0970 -0.0138
  176SOPE   O1119980   7.010   0.678  10.570  0.3664 -0.4066  0.4508
  176SOPE    C119981   7.066   0.801  10.525  0.7391  0.3214 -0.0200
  176SOPE    HA19982   7.153   0.841  10.581  2.0834  0.5606 -2.1757
  176SOPE    HB19983   6.990   0.881  10.538 -0.1061 -0.1175 -1.8487
  176SOPE    C219984   7.110   0.801  10.374  0.7499 -0.1171  0.2592
  176SOPE    HS19985   7.138   0.905  10.348  2.4947 -0.1693  1.7664
  176SOPE   O2119986   7.008   0.743  10.291  0.2000  0.2989 -0.1055
  176SOPE   C2119987   6.918   0.823  10.223  0.0986 -0.1400  0.3281
  176SOPE   O2219988   6.919   0.946  10.220  0.4181 -0.0175  0.0188
  176SOPE   C2219989   6.800   0.741  10.167 -0.4002 -0.4486 -0.0198
  176SOPE   H2R19990   6.733   0.816  10.120  0.0282  2.1176  3.0760
  176SOPE   H2S19991   6.738   0.703  10.251 -0.6514 -0.3419 -0.1552
  176SOPE    C319992   7.242   0.730  10.350 -0.5457  0.2574 -0.5261
  176SOPE    HX19993   7.250   0.642  10.417  0.8391  0.7494  0.0097
  176SOPE    HY19994   7.314   0.809  10.382  0.8306 -0.8021 -0.9328
  176SOPE   O3119995   7.279   0.691  10.210 -0.6594  0.0925 -0.7144
  176SOPE   C3119996   7.247   0.571  10.180 -0.5386  0.8281 -0.2237
  176SOPE   O3219997   7.185   0.497  10.254 -0.3120  0.5417  0.0265
  176SOPE   C3219998   7.316   0.537  10.052 -0.0473 -0.5004  0.3971
  176SOPE   H2X19999   7.427   0.548  10.050 -0.1435  0.5535  0.2240
  176SOPE   H2Y20000   7.285   0.620   9.986  0.9021 -0.0418  0.5130
  176SOPE   C2320001   6.859   0.629  10.079  0.1108  0.1377 -0.6491
  176SOPE   H3R20002   6.788   0.544  10.071 -0.4385  0.6436 -1.3766
  176SOPE   H3S20003   6.949   0.587  10.128 -0.9363  1.8249  3.0029
  176SOPE   C2420004   6.874   0.672   9.929  0.4551  0.5850  0.1481
  176SOPE   H4R20005   6.866   0.573   9.878 -1.2301 -0.0166  1.4888
  176SOPE   H4S20006   6.780   0.726   9.903  1.7425  2.5073 -0.6909
  176SOPE   C2520007   7.003   0.745   9.888 -0.9621  0.3608  0.2748
  176SOPE   H5R20008   7.042   0.818   9.963  0.3162  0.0649 -0.0798
  176SOPE   H5S20009   7.075   0.661   9.897 -1.3983  0.1481  2.1786
  176SOPE   C2620010   6.997   0.804   9.741 -0.6520 -0.9868  0.1684
  176SOPE   H6R20011   6.935   0.896   9.738  0.4346 -0.2306  0.3015
  176SOPE   H6S20012   7.105   0.820   9.720 -0.9403 -1.9618 -2.3876
  176SOPE   C2720013   6.940   0.703   9.639 -0.1899  0.1700 -0.5700
  176SOPE   H7R20014   6.995   0.606   9.635  2.2636  1.5016 -2.5545
  176SOPE   H7S20015   6.835   0.679   9.667 -0.1422  0.2325 -0.3304
  176SOPE   C2820016   6.943   0.743   9.495  0.4258 -0.1411  0.9573
  176SOPE   H8R20017   6.932   0.851   9.472 -3.4192 -0.2240  1.7077
  176SOPE   H8S20018   7.045   0.731   9.452 -0.1232  0.0594 -0.4443
  176SOPE   C2920019   6.834   0.682   9.404 -0.2257  0.7548 -0.2609
  176SOPE   H9120020   6.744   0.745   9.399 -0.3909  0.6034  0.6255
  176SOPE  C21020021   6.832   0.564   9.335 -0.1290 -0.2514  0.2454
  176SOPE  H10120022   6.740   0.539   9.279 -0.1819 -2.1921  1.1414
  176SOPE  C21120023   6.943   0.462   9.320  0.1624 -0.3189 -0.6173
  176SOPE  H11R20024   6.950   0.397   9.410  1.7863  0.7967  0.1243
  176SOPE  H11S20025   7.039   0.518   9.323 -0.1700  0.2320  0.1934
  176SOPE  C21220026   6.941   0.403   9.173  0.0410 -0.6777  0.0835
  176SOPE  H12R20027   6.845   0.347   9.169 -0.1063 -0.6562  2.1461
  176SOPE  H12S20028   7.023   0.329   9.162  0.5574 -0.0728 -0.1660
  176SOPE  C21320029   6.956   0.499   9.057  0.7936  0.0048 -0.2998
  176SOPE  H13R20030   7.054   0.550   9.055  0.2034  1.1368 -2.0452
  176SOPE  H13S20031   6.873   0.572   9.059  0.5909 -0.2348  0.7719
  176SOPE  C21420032   6.950   0.428   8.920 -0.5298  0.5213  0.3461
  176SOPE  H14R20033   6.847   0.417   8.881 -0.2617  1.6030 -0.7628
  176SOPE  H14S20034   6.998   0.329   8.933  1.2504  1.3658  0.4943
  176SOPE  C21520035   7.031   0.507   8.817 -0.2029 -1.0183 -0.4851
  176SOPE  H15R20036   7.126   0.535   8.867 -1.8197  0.1782  2.0930
  176SOPE  H15S20037   6.968   0.595   8.791  1.9786  0.3242 -1.5835
  176SOPE  C21620038   7.070   0.431   8.694 -0.5141  0.7099 -0.7321
  176SOPE  H16R20039   6.978   0.425   8.632 -0.9187 -2.2691 -0.0166
  176SOPE  H16S20040   7.104   0.331   8.730 -0.2975  0.9987 -0.1361
  176SOPE  C21720041   7.177   0.501   8.610  0.3663 -0.3533  0.6095
  176SOPE  H17R20042   7.267   0.503   8.675 -0.0292 -0.0935  1.1576
  176SOPE  H17S20043   7.147   0.605   8.584  1.0004 -0.6781 -1.6551
  176SOPE  C21820044   7.225   0.427   8.481  0.0295 -0.7633 -0.3758
  176SOPE  H18R20045   7.322   0.469   8.448  0.0413 -1.0362 -0.6852
  176SOPE  H18S20046   7.157   0.441   8.394  1.0856  3.9296 -0.7072
  176SOPE  H18T20047   7.217   0.321   8.512 -0.3234 -0.3148  1.1935
  176SOPE   C3320048   7.261   0.409  10.004 -0.9572  0.3540  0.6376
  176SOPE   H3X20049   7.150   0.406  10.005 -0.9763 -1.6048 -0.6704
  176SOPE   H3Y20050   7.294   0.325  10.070 -3.0331 -0.3858  0.7919
  176SOPE   C3420051   7.313   0.363   9.865  0.9179 -0.1062  0.1998
  176SOPE   H4X20052   7.295   0.254   9.871 -0.5534  0.1756  2.4936
  176SOPE   H4Y20053   7.423   0.369   9.852  0.8439 -1.4057 -1.3295
  176SOPE   C3520054   7.226   0.421   9.751  0.0717  0.3439 -0.8866
  176SOPE   H5X20055   7.260   0.524   9.726  0.0116  0.4438 -0.5724
  176SOPE   H5Y20056   7.122   0.437   9.787  0.3182 -0.6541  0.3369
  176SOPE   C3620057   7.217   0.342   9.625 -0.5211 -0.3889  0.7489
  176SOPE   H6X20058   7.113   0.359   9.589 -0.5780 -2.9751 -0.5032
  176SOPE   H6Y20059   7.223   0.232   9.636 -0.3634 -0.8041 -2.4815
  176SOPE   C3720060   7.311   0.402   9.510  0.3402  0.2532  0.0916
  176SOPE   H7X20061   7.417   0.404   9.545  0.4385 -0.0122 -0.1888
  176SOPE   H7Y20062   7.300   0.512   9.504  1.8299  0.3362 -1.9367
  176SOPE   C3820063   7.292   0.331   9.377 -0.6533  0.2490  0.4263
  176SOPE   H8X20064   7.186   0.328   9.343 -1.2925 -1.3329  2.2983
  176SOPE   H8Y20065   7.311   0.223   9.394 -2.4745 -0.0466  0.8028
  176SOPE   C3920066   7.371   0.397   9.267 -0.4824  0.5335 -0.3414
  176SOPE   H9X20067   7.474   0.411   9.307  0.3244  0.0516 -2.1488
  176SOPE   H9Y20068   7.329   0.498   9.251  2.4013  1.6560 -1.4590
  176SOPE  C31020069   7.374   0.322   9.130 -0.5365 -0.2379  0.2036
  176SOPE  H10X20070   7.268   0.300   9.105 -1.1411  0.1139  2.2847
  176SOPE  H10Y20071   7.421   0.222   9.144 -0.5440 -0.2943 -0.1537
  176SOPE  C31120072   7.466   0.401   9.035 -0.4822 -0.2805 -0.3549
  176SOPE  H11X20073   7.567   0.398   9.080 -0.4452  2.5774 -0.0740
  176SOPE  H11Y20074   7.436   0.508   9.041 -0.8371 -0.3322 -1.1269
  176SOPE  C31220075   7.459   0.354   8.891  0.5325  0.2115  0.0826
  176SOPE  H12X20076   7.516   0.424   8.827  2.6039  0.3927  2.0175
  176SOPE  H12Y20077   7.352   0.369   8.863  0.4160  0.1071  0.4596
  176SOPE  C31320078   7.510   0.208   8.877 -0.0931 -0.2002  0.1406
  176SOPE  H13X20079   7.470   0.143   8.958  0.2272  1.3280  1.5939
  176SOPE  H13Y20080   7.620   0.218   8.886 -0.1543  3.2483 -1.2237
  176SOPE  C31420081   7.473   0.156   8.742  0.1031  0.4077  0.4218
  176SOPE  H14X20082   7.538   0.200   8.663 -0.0199 -4.0946 -2.5661
  176SOPE  H14Y20083   7.374   0.197   8.717  1.3157  2.6836 -0.9909
  176SOPE  C31520084   7.466  -0.002   8.738 -0.4125 -0.2431 -0.2017
  176SOPE  H15X20085   7.404  -0.049   8.659 -1.9037  0.1559  0.6874
  176SOPE  H15Y20086   7.424  -0.036   8.834 -0.4263  0.2427 -0.0327
  176SOPE  C31620087   7.608  -0.058   8.737  0.0158 -0.6185  0.0905
  176SOPE  H16X20088   7.669  -0.006   8.814  1.6649 -1.2651 -0.7342
  176SOPE  H16Y20089   7.659  -0.017   8.647 -0.1473 -0.0024  0.2706
  176SOPE  C31720090   7.623  -0.204   8.741  0.2944  0.1173  0.1072
  176SOPE  H17X20091   7.584  -0.238   8.839 -0.9336  1.0381 -0.0333
  176SOPE  H17Y20092   7.732  -0.224   8.747  0.1725 -1.1410 -1.3292
  176SOPE  C31820093   7.579  -0.277   8.615  0.3945  0.0755  0.5120
  176SOPE  H18X20094   7.631  -0.244   8.523 -0.6367 -0.4904 -0.2927
  176SOPE  H18Y20095   7.470  -0.261   8.601  0.0790  0.1937  2.7887
  176SOPE  H18Z20096   7.587  -0.387   8.632 -1.5359 -0.4165 -1.3179
  177SOPE     N20097   5.715   5.993  10.935  0.1181 -0.5353 -0.4757
  177SOPE   HN120098   5.612   6.011  10.938  0.2502  0.5690 -1.7719
  177SOPE   HN220099   5.723   5.947  11.028 -1.8287  1.2133  0.6451
  177SOPE   HN320100   5.770   6.081  10.938  0.3534 -0.6887  1.8511
  177SOPE   C1220101   5.768   5.905  10.824  0.0249  0.1176  0.4718
  177SOPE  H12A20102   5.867   5.863  10.851 -1.0387 -1.9420  1.4816
  177SOPE  H12B20103   5.774   5.967  10.732 -0.5622 -0.1670  0.2366
  177SOPE   C1120104   5.676   5.782  10.806  0.4401  0.6352  0.0270
  177SOPE  H11A20105   5.712   5.719  10.722  1.2604  1.5309 -0.3162
  177SOPE  H11B20106   5.572   5.812  10.783 -0.4455  0.1657  2.9673
  177SOPE     P20107   5.759   5.586  10.961 -0.0617 -0.8344  0.3446
  177SOPE   O1320108   5.756   5.551  11.103  0.1622  0.3618 -0.1076
  177SOPE   O1420109   5.888   5.614  10.898 -0.1076  0.5773  0.1261
  177SOPE   O1220110   5.680   5.719  10.930  0.4579  0.8682 -0.3439
  177SOPE   O1120111   5.673   5.489  10.871 -0.3968  0.3341  0.0381
  177SOPE    C120112   5.736   5.375  10.808 -0.4214  0.0537 -0.4347
  177SOPE    HA20113   5.660   5.296  10.789 -1.1629  0.8516 -0.8513
  177SOPE    HB20114   5.803   5.339  10.889 -0.1974  2.5181  0.5538
  177SOPE    C220115   5.807   5.388  10.665 -0.2053 -0.0476  0.3357
  177SOPE    HS20116   5.891   5.459  10.682  1.8355 -1.2344 -3.4467
  177SOPE   O2120117   5.703   5.442  10.571  0.0208 -0.7753 -0.8785
  177SOPE   C2120118   5.748   5.521  10.478 -0.0371 -0.1933 -0.5543
  177SOPE   O2220119   5.860   5.565  10.474  0.1400 -0.2579  0.1040
  177SOPE   C2220120   5.637   5.571  10.396  1.2443 -0.6329  0.5147
  177SOPE   H2R20121   5.654   5.680  10.377  2.3166 -0.9907 -0.7460
  177SOPE   H2S20122   5.544   5.552  10.454  1.2332 -2.7925 -0.1308
  177SOPE    C320123   5.866   5.256  10.615  0.3663  0.1270 -0.1002
  177SOPE    HX20124   5.789   5.176  10.611  0.1241  0.4129 -1.6310
  177SOPE    HY20125   5.943   5.219  10.686  1.1664 -1.4679 -1.7100
  177SOPE   O3120126   5.919   5.272  10.481  0.1646  0.1872 -0.1834
  177SOPE   C3120127   6.038   5.324  10.475  0.9112 -0.5192 -0.8779
  177SOPE   O3220128   6.110   5.357  10.571  0.2860 -0.2406 -0.7134
  177SOPE   C3220129   6.072   5.353  10.339  0.0045 -0.0295  0.4002
  177SOPE   H2X20130   5.982   5.351  10.274  0.1308 -1.3747  0.2513
  177SOPE   H2Y20131   6.133   5.270  10.300 -2.6527 -1.1750 -1.6422
  177SOPE   C2320132   5.631   5.502  10.261 -0.1687 -0.5491  0.2327
  177SOPE   H3R20133   5.525   5.515  10.229 -0.5803  0.6218  1.9833
  177SOPE   H3S20134   5.642   5.391  10.270  0.2394 -0.4934  0.4311
  177SOPE   C2420135   5.715   5.558  10.154 -0.0189 -0.4806 -0.2515
  177SOPE   H4R20136   5.666   5.646  10.106  0.6709  0.9213  1.5336
  177SOPE   H4S20137   5.813   5.592  10.194 -0.7632  0.3568  0.9117
  177SOPE   C2520138   5.729   5.451  10.052  1.3247 -0.0379 -0.3797
  177SOPE   H5R20139   5.778   5.366  10.105 -1.6034 -0.8617  1.2588
  177SOPE   H5S20140   5.632   5.412  10.013  1.8924  0.5956 -2.5456
  177SOPE   C2620141   5.825   5.486   9.939  0.4517  1.0335 -0.5382
  177SOPE   H6R20142   5.772   5.555   9.870 -0.5549 -0.4227 -1.2548
  177SOPE   H6S20143   5.910   5.535   9.991  0.3892  0.2483  0.3383
  177SOPE   C2720144   5.879   5.369   9.875  0.5556  0.4015  0.1156
  177SOPE   H7R20145   5.923   5.300   9.950 -1.4236  0.1312  1.1128
  177SOPE   H7S20146   5.812   5.302   9.817  1.3416  0.8938 -1.4332
  177SOPE   C2820147   5.990   5.385   9.766 -0.3482 -0.6535  0.1251
  177SOPE   H8R20148   6.064   5.453   9.813  0.1964 -1.4573  0.4402
  177SOPE   H8S20149   6.044   5.290   9.749 -1.5509 -1.0635 -1.8273
  177SOPE   C2920150   5.931   5.442   9.637  0.9763  0.1225  0.9280
  177SOPE   H9120151   5.845   5.510   9.647 -0.2165 -1.3337  0.9518
  177SOPE  C21020152   5.952   5.404   9.510  0.0211 -0.4033 -0.0267
  177SOPE  H10120153   5.887   5.451   9.435  2.1949  2.4246 -0.3181
  177SOPE  C21120154   6.050   5.298   9.454 -0.2450  0.0532 -0.7573
  177SOPE  H11R20155   5.993   5.213   9.410  1.1000 -0.4594 -1.5800
  177SOPE  H11S20156   6.115   5.254   9.532 -2.3047 -0.6196  0.6783
  177SOPE  C21220157   6.136   5.359   9.341  0.1121 -0.2790  0.2371
  177SOPE  H12R20158   6.197   5.447   9.370 -1.2349  1.3830 -1.6636
  177SOPE  H12S20159   6.077   5.404   9.258  3.2625  0.9080 -1.5336
  177SOPE  C21320160   6.223   5.257   9.273  0.0804  0.4529  0.8565
  177SOPE  H13R20161   6.168   5.170   9.232  2.4659 -0.6163 -0.2903
  177SOPE  H13S20162   6.284   5.216   9.357 -0.4566  0.6985  1.3771
  177SOPE  C21420163   6.322   5.316   9.164  0.4730  0.8504  0.1019
  177SOPE  H14R20164   6.371   5.394   9.225 -0.9822 -0.3472  2.9817
  177SOPE  H14S20165   6.257   5.366   9.089  1.2367 -0.3756 -1.4367
  177SOPE  C21520166   6.408   5.212   9.099  0.6596  0.3622 -0.2884
  177SOPE  H15R20167   6.344   5.147   9.036  1.9308  0.2831 -1.5355
  177SOPE  H15S20168   6.475   5.155   9.168  1.1176 -0.1423 -1.1414
  177SOPE  C21620169   6.501   5.274   8.995  0.5639  0.5248 -0.5068
  177SOPE  H16R20170   6.567   5.354   9.036  0.7274 -0.5578  1.4828
  177SOPE  H16S20171   6.443   5.323   8.914  0.9969  0.4396 -0.8659
  177SOPE  C21720172   6.594   5.171   8.932 -0.0207 -0.7050 -0.5383
  177SOPE  H17R20173   6.540   5.082   8.894  0.0721 -1.0613  0.1433
  177SOPE  H17S20174   6.671   5.140   9.007  0.6954 -0.4511 -1.1511
  177SOPE  C21820175   6.668   5.235   8.810  0.3263 -0.4806 -0.1127
  177SOPE  H18R20176   6.753   5.175   8.771 -0.0215 -0.4304 -0.9813
  177SOPE  H18S20177   6.700   5.340   8.828 -3.4400  0.9417 -0.7786
  177SOPE  H18T20178   6.591   5.246   8.731 -0.0424 -2.2405 -0.0403
  177SOPE   C3320179   6.148   5.495  10.324 -0.3429  0.6081 -0.7798
  177SOPE   H3X20180   6.219   5.505  10.409 -0.0115  0.8679 -1.0859
  177SOPE   H3Y20181   6.071   5.574  10.334 -0.8133 -0.1434  2.4500
  177SOPE   C3420182   6.215   5.515  10.192 -0.2750 -1.2173  0.2794
  177SOPE   H4X20183   6.252   5.620  10.187 -0.0001 -1.3458 -0.4966
  177SOPE   H4Y20184   6.139   5.501  10.113  0.4208  2.4993 -1.2531
  177SOPE   C3520185   6.345   5.430  10.167  0.2477  0.3935 -0.4976
  177SOPE   H5X20186   6.314   5.323  10.160  0.2770  0.4379 -1.5805
  177SOPE   H5Y20187   6.406   5.441  10.259  0.6752  2.2284 -0.9579
  177SOPE   C3620188   6.433   5.472  10.049  0.0727  0.4105  0.0677
  177SOPE   H6X20189   6.537   5.433  10.038  0.2180  1.1833 -1.6827
  177SOPE   H6Y20190   6.443   5.581  10.067 -5.1764  0.8937  1.7264
  177SOPE   C3720191   6.361   5.477   9.910  0.2115  0.3100 -0.7488
  177SOPE   H7X20192   6.266   5.533   9.919 -0.4052 -0.9395  1.2142
  177SOPE   H7Y20193   6.337   5.376   9.869 -0.3082 -0.1618  0.6611
  177SOPE   C3820194   6.463   5.530   9.804  0.3501  0.8316 -0.2833
  177SOPE   H8X20195   6.550   5.461   9.806 -0.7297 -0.5387  1.0437
  177SOPE   H8Y20196   6.504   5.627   9.841  0.5370  0.8417 -0.5134
  177SOPE   C3920197   6.410   5.538   9.666 -0.2644  0.3810  0.2665
  177SOPE   H9X20198   6.311   5.589   9.664 -0.3633  0.2231 -1.7579
  177SOPE   H9Y20199   6.400   5.436   9.621  0.4743 -0.2346  1.4550
  177SOPE  C31020200   6.500   5.607   9.561  0.0232  0.2837  0.5477
  177SOPE  H10X20201   6.607   5.578   9.561  0.8660  2.9048 -1.8664
  177SOPE  H10Y20202   6.507   5.715   9.586 -0.6129  0.0921  1.6393
  177SOPE  C31120203   6.442   5.602   9.421  0.4740 -0.6851  0.0652
  177SOPE  H11X20204   6.333   5.619   9.421  0.0590 -2.2598  4.0704
  177SOPE  H11Y20205   6.455   5.500   9.378 -0.7218  0.5945 -3.7130
  177SOPE  C31220206   6.498   5.703   9.318  0.1436  0.3572 -0.4168
  177SOPE  H12X20207   6.608   5.685   9.323  0.1596  0.7105  1.2026
  177SOPE  H12Y20208   6.472   5.810   9.333  1.6153  0.9382 -1.6839
  177SOPE  C31320209   6.446   5.688   9.169 -0.2210 -0.1374 -0.3631
  177SOPE  H13X20210   6.339   5.672   9.190 -0.1495  1.3650  1.4123
  177SOPE  H13Y20211   6.493   5.594   9.133  1.7583  0.4098  0.6315
  177SOPE  C31420212   6.468   5.804   9.082  0.4891 -0.1560  0.8062
  177SOPE  H14X20213   6.577   5.825   9.091  0.6358  0.1622 -1.1990
  177SOPE  H14Y20214   6.414   5.891   9.125  2.1812  0.6838  1.3148
  177SOPE  C31520215   6.417   5.787   8.937 -0.4242  0.3741 -0.1011
  177SOPE  H15X20216   6.408   5.886   8.886  0.9718 -0.1971 -1.5275
  177SOPE  H15Y20217   6.323   5.731   8.915 -1.4924  2.0013  0.0623
  177SOPE  C31620218   6.526   5.713   8.860  0.5086  0.1109  1.1282
  177SOPE  H16X20219   6.545   5.612   8.903 -0.4306 -0.1705  0.9092
  177SOPE  H16Y20220   6.620   5.770   8.869  0.0499  0.9385  0.7561
  177SOPE  C31720221   6.486   5.675   8.709 -0.7342  1.0761 -0.1136
  177SOPE  H17X20222   6.462   5.774   8.665 -1.6698  1.8181  1.9310
  177SOPE  H17Y20223   6.391   5.616   8.707  0.7034 -1.3761 -2.2909
  177SOPE  C31820224   6.601   5.597   8.638 -0.5555 -0.4315 -0.4544
  177SOPE  H18X20225   6.559   5.542   8.551  0.6378 -0.0820 -1.2826
  177SOPE  H18Y20226   6.662   5.528   8.700 -0.0418  0.6959  0.3232
  177SOPE  H18Z20227   6.671   5.671   8.592 -0.5547 -0.8181 -1.0938
  178SOPE     N20228   1.860   0.031  11.001 -0.1769  0.6995  0.1325
  178SOPE   HN120229   1.911  -0.041  11.057  1.1314 -0.2730 -2.1889
  178SOPE   HN220230   1.932   0.092  10.956 -1.0933  1.4141 -0.3970
  178SOPE   HN320231   1.817   0.098  11.068  0.8957 -0.2501  1.8410
  178SOPE   C1220232   1.766  -0.030  10.905  0.9654 -0.4303  0.1761
  178SOPE  H12A20233   1.734   0.056  10.843  1.4031  0.1377  0.7211
  178SOPE  H12B20234   1.685  -0.079  10.963  2.6483 -2.3418  1.0746
  178SOPE   C1120235   1.827  -0.144  10.827  0.0165 -0.3011 -0.0078
  178SOPE  H11A20236   1.905  -0.115  10.753 -1.6764 -2.6638 -2.9130
  178SOPE  H11B20237   1.740  -0.187  10.773 -0.8339 -0.4738  1.4490
  178SOPE     P20238   1.805  -0.351  10.982 -0.0973 -0.0443 -0.1028
  178SOPE   O1320239   1.687  -0.300  11.060 -0.2345  0.3631  0.3313
  178SOPE   O1420240   1.898  -0.433  11.065  0.3514  0.1547 -0.0508
  178SOPE   O1220241   1.890  -0.238  10.913  0.3775 -0.4038 -0.4202
  178SOPE   O1120242   1.759  -0.443  10.857 -0.0771  0.2572  0.2246
  178SOPE    C120243   1.860  -0.497  10.774 -0.0416  0.1531 -0.1660
  178SOPE    HA20244   1.905  -0.589  10.817  1.3667 -0.3170 -2.4531
  178SOPE    HB20245   1.945  -0.426  10.761  0.2872 -0.3355 -0.7654
  178SOPE    C220246   1.815  -0.554  10.643 -0.0825 -0.0967 -0.5267
  178SOPE    HS20247   1.898  -0.611  10.597 -0.8166  0.3798 -2.5796
  178SOPE   O2120248   1.765  -0.448  10.563  0.1569  0.1090  0.6847
  178SOPE   C2120249   1.838  -0.365  10.508 -0.7687 -0.0063 -0.0418
  178SOPE   O2220250   1.961  -0.354  10.516  0.5645 -0.1630 -0.5121
  178SOPE   C2220251   1.758  -0.280  10.417 -0.5738 -0.0337 -0.3671
  178SOPE   H2R20252   1.794  -0.179  10.447  2.8492 -1.4945  0.9878
  178SOPE   H2S20253   1.650  -0.289  10.440 -0.6109 -1.4184 -0.9883
  178SOPE    C320254   1.708  -0.670  10.656  0.5457 -0.0890  0.9055
  178SOPE    HX20255   1.631  -0.638  10.729 -0.5977  1.0654 -0.7422
  178SOPE    HY20256   1.762  -0.756  10.702 -0.2563  0.1411  2.3305
  178SOPE   O3120257   1.649  -0.713  10.530  0.0079 -0.6577  0.0285
  178SOPE   C3120258   1.539  -0.657  10.477 -0.0317 -0.0066  0.5701
  178SOPE   O3220259   1.480  -0.562  10.520 -0.2756  0.1580  0.2341
  178SOPE   C3220260   1.501  -0.743  10.356 -0.3414  0.0108  0.4919
  178SOPE   H2X20261   1.392  -0.728  10.343  0.0504  2.6118 -0.5524
  178SOPE   H2Y20262   1.532  -0.848  10.372 -2.1758 -0.6995 -0.3392
  178SOPE   C2320263   1.809  -0.308  10.276  0.0811  0.3817  0.9951
  178SOPE   H3R20264   1.805  -0.417  10.255  3.1448  0.3874 -0.0632
  178SOPE   H3S20265   1.915  -0.283  10.254  0.0288 -0.5405 -0.4300
  178SOPE   C2420266   1.737  -0.229  10.169 -0.2043  0.4718 -1.2094
  178SOPE   H4R20267   1.626  -0.234  10.179 -0.0985 -0.5536 -0.3171
  178SOPE   H4S20268   1.770  -0.125  10.192 -0.6830  0.2270  0.7678
  178SOPE   C2520269   1.775  -0.264  10.028  0.4227 -0.7106 -0.1759
  178SOPE   H5R20270   1.884  -0.282  10.031  0.3191 -1.2017  1.5913
  178SOPE   H5S20271   1.721  -0.358  10.003 -2.2556  0.9861 -1.2078
  178SOPE   C2620272   1.744  -0.150   9.928 -0.6368  0.6595 -0.4175
  178SOPE   H6R20273   1.634  -0.139   9.919 -0.6456  1.2711  0.3368
  178SOPE   H6S20274   1.783  -0.059   9.978 -3.5907  2.6305 -1.4631
  178SOPE   C2720275   1.790  -0.180   9.787 -0.2228  0.0812 -0.1182
  178SOPE   H7R20276   1.900  -0.197   9.795 -0.1382  1.3102  4.6957
  178SOPE   H7S20277   1.752  -0.279   9.754  0.9453 -0.4861  0.1717
  178SOPE   C2820278   1.754  -0.068   9.684  0.1411  0.2078  0.1149
  178SOPE   H8R20279   1.774  -0.095   9.578 -0.8438  3.9050 -1.2008
  178SOPE   H8S20280   1.644  -0.053   9.693  0.3178  1.1715  0.8118
  178SOPE   C2920281   1.819   0.061   9.717  0.4871  0.2665 -0.3972
  178SOPE   H9120282   1.828   0.079   9.826 -2.1464  0.0857 -0.0761
  178SOPE  C21020283   1.872   0.154   9.637 -0.6995 -0.0833  0.1523
  178SOPE  H10120284   1.904   0.249   9.682 -1.2331  0.4434 -0.5626
  178SOPE  C21120285   1.875   0.159   9.487 -0.2870  0.1161  0.3180
  178SOPE  H11R20286   1.787   0.220   9.458 -0.8803 -1.6586 -1.8722
  178SOPE  H11S20287   1.856   0.059   9.443 -0.9868  0.1086  0.6270
  178SOPE  C21220288   1.995   0.228   9.414  0.4480  0.2630  0.0565
  178SOPE  H12R20289   2.087   0.168   9.431  0.9894  0.6020 -1.5230
  178SOPE  H12S20290   2.018   0.330   9.449  0.9612  0.0549  0.3348
  178SOPE  C21320291   1.966   0.224   9.265  0.4368 -0.2941 -0.2788
  178SOPE  H13R20292   1.875   0.276   9.226  1.0294 -0.5988 -2.1962
  178SOPE  H13S20293   1.958   0.118   9.233 -0.4751  0.0180 -1.1498
  178SOPE  C21420294   2.074   0.292   9.186 -0.4823 -0.0408  0.1645
  178SOPE  H14R20295   2.162   0.227   9.201 -0.4215 -0.2395 -0.9503
  178SOPE  H14S20296   2.078   0.396   9.224 -0.5318  0.5464 -1.3921
  178SOPE  C21520297   2.032   0.300   9.037  0.3967 -0.4758  0.0834
  178SOPE  H15R20298   1.941   0.363   9.024  0.8821  0.4495  1.0094
  178SOPE  H15S20299   2.011   0.196   9.006  1.5568 -0.5848 -0.3985
  178SOPE  C21620300   2.140   0.369   8.958  0.0426 -0.1642  0.1269
  178SOPE  H16R20301   2.235   0.332   9.002  1.1298  2.9622  0.6881
  178SOPE  H16S20302   2.132   0.479   8.973 -3.2906 -0.3082  0.0976
  178SOPE  C21720303   2.143   0.339   8.810  0.2464  0.1813  0.4351
  178SOPE  H17R20304   2.061   0.383   8.750  1.5385 -1.1770 -2.5133
  178SOPE  H17S20305   2.157   0.229   8.800  1.0840  0.2815  0.4106
  178SOPE  C21820306   2.267   0.414   8.748 -0.0476 -1.0228  0.0000
  178SOPE  H18R20307   2.247   0.522   8.763 -0.0371 -0.8848 -0.9522
  178SOPE  H18S20308   2.273   0.394   8.639  0.7298  0.8414 -0.3313
  178SOPE  H18T20309   2.365   0.405   8.801  0.0328  2.1681  0.5621
  178SOPE   C3320310   1.565  -0.707  10.218  0.0412  0.1642  0.5612
  178SOPE   H3X20311   1.550  -0.598  10.206  0.2049  0.4170  2.3396
  178SOPE   H3Y20312   1.518  -0.766  10.136  0.1308  2.5281 -1.2854
  178SOPE   C3420313   1.719  -0.731  10.212  0.2459  0.4290 -0.2117
  178SOPE   H4X20314   1.749  -0.837  10.225  0.2677  0.1522 -2.2148
  178SOPE   H4Y20315   1.764  -0.675  10.297  1.1096 -0.0518 -0.3361
  178SOPE   C3520316   1.781  -0.685  10.079  0.5884 -0.0708 -0.0401
  178SOPE   H5X20317   1.881  -0.733  10.081 -0.6092 -2.8304 -1.2147
  178SOPE   H5Y20318   1.784  -0.575  10.088  3.2370 -0.1840  1.3547
  178SOPE   C3620319   1.713  -0.707   9.944  0.1473 -0.4863  0.5650
  178SOPE   H6X20320   1.621  -0.644   9.944  0.3734 -0.0315 -2.0375
  178SOPE   H6Y20321   1.684  -0.814   9.940 -0.7324 -0.2330 -1.0970
  178SOPE   C3720322   1.804  -0.689   9.821  0.0750  0.0576 -0.7299
  178SOPE   H7X20323   1.744  -0.728   9.736 -1.4155  0.0189  0.2862
  178SOPE   H7Y20324   1.893  -0.751   9.842 -0.2502 -0.0873  0.2981
  178SOPE   C3820325   1.857  -0.542   9.798  0.3090  0.0957  0.0351
  178SOPE   H8X20326   1.911  -0.510   9.889 -0.0595  0.8519 -0.0019
  178SOPE   H8Y20327   1.764  -0.483   9.786  1.0745  1.5370  1.0092
  178SOPE   C3920328   1.955  -0.522   9.684  0.3703 -0.2638  0.2763
  178SOPE   H9X20329   2.049  -0.578   9.705 -0.4495 -1.8316 -0.0105
  178SOPE   H9Y20330   1.984  -0.416   9.674  1.8174 -0.7505 -1.2650
  178SOPE  C31020331   1.895  -0.576   9.553 -0.2766 -0.3432 -0.2983
  178SOPE  H10X20332   1.844  -0.671   9.581 -2.2809  0.9722  0.8486
  178SOPE  H10Y20333   1.978  -0.584   9.480  2.1931  2.2135  1.9919
  178SOPE  C31120334   1.780  -0.476   9.499 -0.1371  0.8457  0.1214
  178SOPE  H11X20335   1.825  -0.378   9.477  0.0735  0.9911  1.1576
  178SOPE  H11Y20336   1.705  -0.455   9.578 -1.5015  1.3280 -1.2533
  178SOPE  C31220337   1.721  -0.534   9.372  0.0956 -0.2290  0.0775
  178SOPE  H12X20338   1.667  -0.628   9.397 -0.5912  0.8275  2.9724
  178SOPE  H12Y20339   1.811  -0.568   9.317  0.5001  2.0161 -0.7337
  178SOPE  C31320340   1.632  -0.443   9.289 -0.3179  0.3366  0.4441
  178SOPE  H13X20341   1.695  -0.357   9.256 -0.2642  0.5518  1.1005
  178SOPE  H13Y20342   1.563  -0.380   9.348  0.7053  2.5113 -0.5553
  178SOPE  C31420343   1.567  -0.518   9.169 -0.1020 -0.6623 -0.2919
  178SOPE  H14X20344   1.483  -0.569   9.220  0.1260  0.7271  1.5971
  178SOPE  H14Y20345   1.635  -0.594   9.125  0.3248 -0.3384 -0.1975
  178SOPE  C31520346   1.511  -0.413   9.067 -0.1659 -0.8972 -0.0312
  178SOPE  H15X20347   1.535  -0.455   8.967  0.1026  0.3637 -0.5087
  178SOPE  H15Y20348   1.571  -0.322   9.087  0.4038 -1.0529 -0.9717
  178SOPE  C31620349   1.365  -0.367   9.080  0.1912 -0.1575 -0.1040
  178SOPE  H16X20350   1.358  -0.314   9.177  1.1876 -0.0920 -0.0519
  178SOPE  H16Y20351   1.291  -0.450   9.082 -0.1802  0.1332 -1.0793
  178SOPE  C31720352   1.319  -0.267   8.975 -0.3061  0.2419 -0.2839
  178SOPE  H17X20353   1.361  -0.307   8.880  0.6590  2.7536 -1.0086
  178SOPE  H17Y20354   1.361  -0.165   8.990 -0.3471  0.3351 -0.7747
  178SOPE  C31820355   1.167  -0.256   8.967  0.0590  0.1266  0.0352
  178SOPE  H18X20356   1.120  -0.353   8.943 -0.6398  0.7988 -1.4281
  178SOPE  H18Y20357   1.152  -0.195   8.875  1.0915  0.5001  0.0956
  178SOPE  H18Z20358   1.120  -0.204   9.054 -0.5477 -0.5145  0.0913
  179SOPE     N20359   3.033   1.461   6.502 -0.4707 -0.9062 -0.0760
  179SOPE   HN120360   3.033   1.402   6.588 -0.7937  1.5389  1.7195
  179SOPE   HN220361   3.120   1.515   6.520  0.2432 -2.5000  1.5268
  179SOPE   HN320362   2.944   1.515   6.515  0.6783  0.6874  1.7233
  179SOPE   C1220363   3.055   1.388   6.381 -0.3371  0.3058  0.4244
  179SOPE  H12A20364   3.002   1.443   6.300 -0.7776  1.2936  1.3714
  179SOPE  H12B20365   3.009   1.288   6.395 -3.2737  1.7806  2.2356
  179SOPE   C1120366   3.201   1.374   6.343 -0.1691  0.1201 -0.2145
  179SOPE  H11A20367   3.249   1.465   6.299  1.6844 -0.9291 -0.4656
  179SOPE  H11B20368   3.208   1.308   6.254  4.7112  1.2627 -0.9734
  179SOPE     P20369   3.370   1.400   6.542 -0.0588 -0.4027 -0.2565
  179SOPE   O1320370   3.300   1.531   6.562 -0.1086  0.6631 -0.3794
  179SOPE   O1420371   3.497   1.410   6.469 -0.2815 -0.0591 -0.2419
  179SOPE   O1220372   3.271   1.308   6.455 -0.4253  0.3896  0.0473
  179SOPE   O1120373   3.403   1.326   6.680 -0.5789 -0.1708  0.2814
  179SOPE    C120374   3.442   1.186   6.679  0.0637  0.8540 -0.8217
  179SOPE    HA20375   3.551   1.178   6.662  0.3122  1.1190  0.4825
  179SOPE    HB20376   3.383   1.126   6.607 -0.9639  0.8042  0.0408
  179SOPE    C220377   3.421   1.115   6.811 -0.8263 -1.4483 -0.6407
  179SOPE    HS20378   3.478   1.019   6.802 -0.8558 -1.6852  1.2586
  179SOPE   O2120379   3.277   1.109   6.829 -0.0878 -0.1531 -0.0568
  179SOPE   C2120380   3.251   1.002   6.900  0.6368  0.6923 -0.8219
  179SOPE   O2220381   3.335   0.915   6.932  0.0264  0.4101  0.3398
  179SOPE   C2220382   3.109   0.992   6.928  0.8712  0.0278  0.0003
  179SOPE   H2R20383   3.074   0.919   6.852 -0.1767  0.7304 -0.2155
  179SOPE   H2S20384   3.056   1.088   6.908  0.2804 -0.2873  0.0352
  179SOPE    C320385   3.474   1.205   6.921 -0.0597  0.1218 -0.4301
  179SOPE    HX20386   3.425   1.305   6.919 -1.0970 -0.3890 -1.8281
  179SOPE    HY20387   3.581   1.205   6.892 -0.4585  2.6957 -2.1633
  179SOPE   O3120388   3.447   1.151   7.050  0.0763 -1.2939  0.0034
  179SOPE   C3120389   3.552   1.170   7.136  0.4302  0.0119 -0.1681
  179SOPE   O3220390   3.652   1.231   7.109 -0.4657 -0.4478  0.3878
  179SOPE   C3220391   3.523   1.098   7.263 -0.2906 -0.0160  0.5601
  179SOPE   H2X20392   3.560   0.994   7.253 -0.6750 -0.0361 -0.9383
  179SOPE   H2Y20393   3.415   1.097   7.289 -0.3571 -2.8023  0.4963
  179SOPE   C2320394   3.074   0.938   7.072  0.2879 -0.1116  0.3927
  179SOPE   H3R20395   3.141   0.853   7.096  1.0639  0.8466  1.7525
  179SOPE   H3S20396   2.967   0.914   7.054  0.3174  0.4505 -0.6327
  179SOPE   C2420397   3.086   1.050   7.177 -0.3064  0.0883  0.4313
  179SOPE   H4R20398   3.189   1.088   7.193  0.1009 -1.1914  0.9707
  179SOPE   H4S20399   3.026   1.141   7.155 -0.1690  0.8166  2.7890
  179SOPE   C2520400   3.057   0.983   7.314 -0.9483  0.3970  0.0052
  179SOPE   H5R20401   2.956   0.938   7.309 -1.3677  1.3171 -0.0454
  179SOPE   H5S20402   3.130   0.900   7.323 -1.4471  0.0707  1.1985
  179SOPE   C2620403   3.065   1.081   7.431 -0.1145  0.4713 -0.0898
  179SOPE   H6R20404   3.172   1.111   7.440 -0.1649  1.4201 -2.0271
  179SOPE   H6S20405   3.010   1.175   7.406  2.3905  2.1496  0.2991
  179SOPE   C2720406   3.013   1.024   7.562  0.2024 -0.4508 -0.0867
  179SOPE   H7R20407   2.910   0.985   7.543  0.5681 -0.1690 -3.1740
  179SOPE   H7S20408   3.079   0.940   7.592  0.7956  0.4747  1.2765
  179SOPE   C2820409   3.021   1.129   7.669 -0.1594 -0.0400  0.1947
  179SOPE   H8R20410   3.127   1.139   7.701 -0.3178 -2.2353  1.6479
  179SOPE   H8S20411   2.997   1.233   7.639  1.8779  0.1464 -0.9489
  179SOPE   C2920412   2.920   1.094   7.780  0.1509  0.1560 -0.5657
  179SOPE   H9120413   2.816   1.097   7.744  0.0611  1.3524 -0.2801
  179SOPE  C21020414   2.940   1.084   7.918  0.7815  0.8732  0.0873
  179SOPE  H10120415   2.854   1.037   7.968 -0.0229 -1.0644 -2.8810
  179SOPE  C21120416   3.078   1.076   7.978  0.2175 -0.0945  0.2442
  179SOPE  H11R20417   3.153   1.111   7.904  1.3625 -1.6601  0.6131
  179SOPE  H11S20418   3.097   0.973   8.014 -3.5829 -0.3095  2.1773
  179SOPE  C21220419   3.091   1.170   8.109  0.3371 -0.4286 -0.1841
  179SOPE  H12R20420   3.190   1.169   8.160  2.1696  3.1939 -3.1786
  179SOPE  H12S20421   3.020   1.131   8.184  0.2751  0.6815  0.3545
  179SOPE  C21320422   3.074   1.322   8.079 -0.2445  0.2914  0.2085
  179SOPE  H13R20423   2.974   1.324   8.029 -1.2881 -1.0136  2.1024
  179SOPE  H13S20424   3.135   1.373   8.001 -2.6044  3.1729  0.0319
  179SOPE  C21420425   3.070   1.428   8.198 -0.5159 -0.6061  0.1704
  179SOPE  H14R20426   2.978   1.395   8.251 -0.1847 -4.3866 -1.3263
  179SOPE  H14S20427   3.047   1.528   8.156  1.9551  0.4297  1.0358
  179SOPE  C21520428   3.186   1.428   8.291 -0.7686  0.1974  0.5008
  179SOPE  H15R20429   3.208   1.328   8.332  0.4340  0.7812  1.3449
  179SOPE  H15S20430   3.178   1.493   8.381  2.1630 -0.3764  1.2675
  179SOPE  C21620431   3.313   1.487   8.225 -0.1516  0.4008 -0.2106
  179SOPE  H16R20432   3.284   1.585   8.182 -1.5934 -0.4120 -1.1581
  179SOPE  H16S20433   3.341   1.433   8.132 -0.2543  1.2958 -0.7672
  179SOPE  C21720434   3.444   1.509   8.305  0.0644 -0.6367 -1.1402
  179SOPE  H17R20435   3.472   1.405   8.331  2.1571 -0.1780 -1.3700
  179SOPE  H17S20436   3.425   1.577   8.391  1.0352  0.2287 -1.5930
  179SOPE  C21820437   3.554   1.574   8.222  0.8970 -0.3523  0.1533
  179SOPE  H18R20438   3.526   1.677   8.190 -0.4632 -0.7865 -0.1330
  179SOPE  H18S20439   3.567   1.514   8.129 -0.4639 -1.3055  0.5465
  179SOPE  H18T20440   3.652   1.579   8.274  0.6840 -0.0243  0.5217
  179SOPE   C3320441   3.611   1.158   7.381  0.8796  0.0893 -0.1675
  179SOPE   H3X20442   3.712   1.198   7.358  0.7541  1.1871  1.1017
  179SOPE   H3Y20443   3.623   1.067   7.445 -0.8136 -0.7507 -0.9814
  179SOPE   C3420444   3.540   1.273   7.451 -0.1430  0.8555  0.1950
  179SOPE   H4X20445   3.433   1.262   7.476 -0.0256  2.4241  1.5146
  179SOPE   H4Y20446   3.537   1.357   7.378 -1.5411  0.7668  0.1228
  179SOPE   C3520447   3.617   1.332   7.577 -0.5314  0.0632  0.5898
  179SOPE   H5X20448   3.599   1.442   7.576 -1.5754 -0.0582 -1.8905
  179SOPE   H5Y20449   3.726   1.312   7.567 -0.5435  0.2822 -0.0731
  179SOPE   C3620450   3.564   1.278   7.715  0.3335 -0.7610 -0.6974
  179SOPE   H6X20451   3.543   1.173   7.686  0.5174 -0.7322 -0.9453
  179SOPE   H6Y20452   3.467   1.323   7.743  0.2599 -1.6256  0.5411
  179SOPE   C3720453   3.663   1.293   7.823  0.0730  0.2724 -0.1383
  179SOPE   H7X20454   3.669   1.397   7.862 -0.3989 -0.5287  2.2924
  179SOPE   H7Y20455   3.763   1.254   7.794  0.5293  0.7228  0.7749
  179SOPE   C3820456   3.603   1.215   7.938 -0.4184 -0.1406  0.1832
  179SOPE   H8X20457   3.595   1.106   7.920  0.0762  0.1057 -1.7378
  179SOPE   H8Y20458   3.496   1.240   7.954 -0.9690 -2.5021  0.5033
  179SOPE   C3920459   3.691   1.234   8.062  0.0680 -0.1197 -0.6603
  179SOPE   H9X20460   3.708   1.343   8.075  1.2842 -0.5428  1.8583
  179SOPE   H9Y20461   3.788   1.184   8.047 -0.3570 -1.1460 -0.0962
  179SOPE  C31020462   3.619   1.175   8.184  0.1647 -0.0837  0.0524
  179SOPE  H10X20463   3.583   1.071   8.171 -0.4700  0.3263 -1.8288
  179SOPE  H10Y20464   3.526   1.229   8.210  0.2215 -1.1591  2.8063
  179SOPE  C31120465   3.703   1.194   8.311  0.6620 -0.1408 -0.9651
  179SOPE  H11X20466   3.710   1.302   8.333  0.7628 -0.5662  1.3440
  179SOPE  H11Y20467   3.808   1.161   8.292  0.7825 -1.7485  1.9158
  179SOPE  C31220468   3.651   1.116   8.431  0.6152 -0.3209  0.4442
  179SOPE  H12X20469   3.706   1.020   8.435 -1.7197 -1.7682 -0.1063
  179SOPE  H12Y20470   3.544   1.094   8.409 -0.3338  3.6769  0.4104
  179SOPE  C31320471   3.652   1.200   8.561 -0.6167  0.1237  0.3640
  179SOPE  H13X20472   3.622   1.306   8.550  3.1277  1.3509  0.7015
  179SOPE  H13Y20473   3.756   1.198   8.599 -0.4223  2.7480  0.1405
  179SOPE  C31420474   3.556   1.132   8.656 -0.0538  0.0855 -0.1052
  179SOPE  H14X20475   3.456   1.133   8.606  0.2634 -0.8575 -0.7885
  179SOPE  H14Y20476   3.553   1.195   8.747 -0.0379  0.7724 -0.5719
  179SOPE  C31520477   3.594   0.988   8.688 -0.1143 -0.0479  0.4095
  179SOPE  H15X20478   3.617   0.928   8.597 -1.1638  1.7065 -1.1111
  179SOPE  H15Y20479   3.496   0.947   8.721  0.3040 -1.7312 -0.3242
  179SOPE  C31620480   3.691   0.971   8.804 -1.2302 -0.2505 -0.2965
  179SOPE  H16X20481   3.648   1.016   8.896  0.3767  1.7503 -0.4646
  179SOPE  H16Y20482   3.776   1.041   8.796  0.1176 -1.3113  3.1171
  179SOPE  C31720483   3.737   0.826   8.840  1.1034  0.2124 -0.4893
  179SOPE  H17X20484   3.821   0.804   8.770  3.5168  1.2596  1.9026
  179SOPE  H17Y20485   3.656   0.751   8.829 -1.6033  3.0623 -1.4232
  179SOPE  C31820486   3.793   0.819   8.981  0.2921  0.1251 -0.3093
  179SOPE  H18X20487   3.716   0.804   9.060  1.0176 -0.4135  0.3079
  179SOPE  H18Y20488   3.852   0.903   9.025  1.0825 -0.3065 -0.5376
  179SOPE  H18Z20489   3.865   0.735   8.985 -0.6881 -0.7086  0.5265
  180SOPE     N20490   1.950   4.207   6.350  0.0231 -0.4761  0.2713
  180SOPE   HN120491   1.865   4.249   6.306  2.7832  2.9866 -2.3007
  180SOPE   HN220492   2.018   4.262   6.296 -1.7474  0.3269 -1.2404
  180SOPE   HN320493   1.961   4.111   6.311  0.4206 -0.6000  0.6779
  180SOPE   C1220494   1.971   4.209   6.495  0.3611 -0.1003 -0.1844
  180SOPE  H12A20495   2.026   4.117   6.524 -0.1770 -0.2713  0.3045
  180SOPE  H12B20496   1.869   4.205   6.538  0.1969  1.7494 -0.3481
  180SOPE   C1120497   2.036   4.344   6.548  0.9188  0.0506  0.3620
  180SOPE  H11A20498   2.111   4.381   6.475  0.6949 -1.4304 -0.6430
  180SOPE  H11B20499   2.080   4.314   6.646  1.3216  1.6451  0.7079
  180SOPE     P20500   1.918   4.575   6.499 -0.3089  0.2320  0.6242
  180SOPE   O1320501   1.780   4.625   6.498 -0.4238 -0.0478  0.1787
  180SOPE   O1420502   1.982   4.562   6.364 -0.3038 -0.7803 -0.1841
  180SOPE   O1220503   1.933   4.440   6.577  0.3215 -0.0952 -0.5878
  180SOPE   O1120504   2.000   4.680   6.582  0.6320 -0.2972  0.2283
  180SOPE    C120505   2.112   4.640   6.660 -1.0729  0.6124 -0.8520
  180SOPE    HA20506   2.186   4.590   6.593  0.2044 -0.5214  1.2756
  180SOPE    HB20507   2.070   4.571   6.737 -0.0121  2.1582  1.2120
  180SOPE    C220508   2.181   4.754   6.728  0.8437 -0.5320 -0.5666
  180SOPE    HS20509   2.288   4.734   6.751  1.0368  1.2402  0.2622
  180SOPE   O2120510   2.110   4.782   6.850  0.8964  0.1667 -0.2169
  180SOPE   C2120511   2.161   4.738   6.956 -0.1741 -0.2424 -0.7508
  180SOPE   O2220512   2.258   4.662   6.971  0.2808  0.8556 -0.5931
  180SOPE   C2220513   2.075   4.793   7.071  0.4065 -0.3458 -0.5704
  180SOPE   H2R20514   2.011   4.715   7.116 -0.0448  0.6283  0.5347
  180SOPE   H2S20515   2.016   4.878   7.031  1.5507  0.5070 -0.5073
  180SOPE    C320516   2.181   4.873   6.634  0.0715 -0.6180  0.0288
  180SOPE    HX20517   2.086   4.905   6.587  0.6274 -0.3043 -0.9185
  180SOPE    HY20518   2.241   4.833   6.549 -0.5464  0.8082 -1.1198
  180SOPE   O3120519   2.239   4.981   6.688 -0.5580 -0.6890 -0.2684
  180SOPE   C3120520   2.255   5.085   6.606 -0.8654 -0.3306 -0.0795
  180SOPE   O3220521   2.227   5.092   6.491 -0.1052  0.3830  0.4989
  180SOPE   C3220522   2.327   5.203   6.678  0.1663  0.1323 -0.1918
  180SOPE   H2X20523   2.255   5.286   6.689  2.3674  2.1396 -0.0938
  180SOPE   H2Y20524   2.409   5.224   6.606 -0.8516  2.2468 -0.8010
  180SOPE   C2320525   2.170   4.843   7.191  0.2338  0.5968  0.0631
  180SOPE   H3R20526   2.237   4.923   7.153  0.9991 -0.1134 -0.1287
  180SOPE   H3S20527   2.240   4.763   7.226 -1.2243 -0.6665  0.1935
  180SOPE   C2420528   2.093   4.887   7.319 -0.5523 -0.2522  0.5408
  180SOPE   H4R20529   2.159   4.925   7.399  0.2633 -1.2160  0.3473
  180SOPE   H4S20530   2.024   4.969   7.289 -1.1222 -0.5569  0.9804
  180SOPE   C2520531   1.995   4.779   7.382  0.1074 -0.4112  0.2183
  180SOPE   H5R20532   1.904   4.757   7.322  0.9252 -0.1609 -1.1728
  180SOPE   H5S20533   2.051   4.684   7.396  3.1266  1.6523  4.5955
  180SOPE   C2620534   1.955   4.820   7.530  1.0162 -0.3446  1.5764
  180SOPE   H6R20535   1.940   4.930   7.525  2.4701 -0.1667 -1.5939
  180SOPE   H6S20536   1.861   4.770   7.561  0.4075 -1.7595 -1.9675
  180SOPE   C2720537   2.057   4.785   7.638  0.4460  0.5229 -0.1079
  180SOPE   H7R20538   2.055   4.676   7.657 -1.6715  0.6583  0.7101
  180SOPE   H7S20539   2.158   4.817   7.604  0.6356  1.7549  1.4933
  180SOPE   C2820540   2.036   4.880   7.766  0.0500  0.3131  0.0758
  180SOPE   H8R20541   2.038   4.985   7.731  0.0009  1.2946  2.7419
  180SOPE   H8S20542   1.930   4.868   7.798 -0.2275 -0.3002 -1.0086
  180SOPE   C2920543   2.139   4.860   7.876  0.4346 -0.0322  1.1014
  180SOPE   H9120544   2.226   4.926   7.880  0.1694  0.6328 -1.8107
  180SOPE  C21020545   2.136   4.766   7.976  0.6100  0.0548  0.1395
  180SOPE  H10120546   2.215   4.761   8.052  1.5356 -0.6581 -0.8349
  180SOPE  C21120547   2.020   4.675   8.005 -0.5493  0.0497 -0.4536
  180SOPE  H11R20548   2.057   4.571   7.991 -1.1028 -0.6723  2.5782
  180SOPE  H11S20549   1.936   4.682   7.933 -0.9297  0.1013 -0.0135
  180SOPE  C21220550   1.963   4.705   8.148  0.8241 -0.2846  0.2701
  180SOPE  H12R20551   1.876   4.638   8.162  0.3657  0.3690  0.5970
  180SOPE  H12S20552   1.937   4.812   8.161  0.2204 -0.3264 -0.5120
  180SOPE  C21320553   2.070   4.666   8.251 -0.1591  0.4642 -0.1998
  180SOPE  H13R20554   2.158   4.734   8.252  0.1684  0.1971  3.7857
  180SOPE  H13S20555   2.115   4.565   8.237 -3.2542 -1.3088  1.4905
  180SOPE  C21420556   2.014   4.658   8.396  0.0514 -0.0877  0.4780
  180SOPE  H14R20557   1.976   4.754   8.437  0.4816 -0.6145  2.2080
  180SOPE  H14S20558   2.090   4.614   8.464 -0.9083  1.0797  2.3758
  180SOPE  C21520559   1.900   4.553   8.415 -0.5301  0.6297 -0.2218
  180SOPE  H15R20560   1.910   4.461   8.354  0.1790 -0.1262  0.9880
  180SOPE  H15S20561   1.799   4.593   8.394 -1.0876 -0.6990 -0.1521
  180SOPE  C21620562   1.878   4.515   8.565  0.2703  0.0093  0.1043
  180SOPE  H16R20563   1.820   4.603   8.600 -2.2828 -1.0362 -1.2657
  180SOPE  H16S20564   1.972   4.512   8.624  0.5929 -1.8458 -0.4496
  180SOPE  C21720565   1.791   4.388   8.590  0.1108 -0.1962 -0.0529
  180SOPE  H17R20566   1.851   4.296   8.576  1.1069  0.7053 -2.0966
  180SOPE  H17S20567   1.713   4.401   8.512 -1.8401 -2.3871  1.3900
  180SOPE  C21820568   1.729   4.398   8.730 -0.0806  0.2569 -0.8171
  180SOPE  H18R20569   1.688   4.498   8.755  3.5936  1.4613  1.2016
  180SOPE  H18S20570   1.812   4.382   8.803 -1.0217 -2.4927 -0.2433
  180SOPE  H18T20571   1.653   4.319   8.747  0.6412  0.0164  1.6862
  180SOPE   C3320572   2.384   5.173   6.816 -0.6650  0.3646  0.0408
  180SOPE   H3X20573   2.307   5.111   6.866  2.3826 -2.7688  1.2192
  180SOPE   H3Y20574   2.401   5.266   6.875  3.6850  0.8663 -1.6179
  180SOPE   C3420575   2.508   5.091   6.816 -0.2320  0.1629 -0.3045
  180SOPE   H4X20576   2.597   5.147   6.781  1.2148 -1.6544  0.2999
  180SOPE   H4Y20577   2.497   5.013   6.738 -1.0369 -0.9324  0.8612
  180SOPE   C3520578   2.529   5.034   6.957 -0.9252  0.6196 -0.0580
  180SOPE   H5X20579   2.578   4.936   6.941 -4.0326 -0.5457 -3.9753
  180SOPE   H5Y20580   2.429   5.021   7.003 -1.4239 -2.2062 -1.6948
  180SOPE   C3620581   2.614   5.120   7.055  0.0392 -0.3547 -0.1835
  180SOPE   H6X20582   2.563   5.218   7.042  0.7421  0.2811  1.5490
  180SOPE   H6Y20583   2.717   5.130   7.015  0.2596 -0.6307  0.3079
  180SOPE   C3720584   2.617   5.079   7.198 -0.7173  0.2360 -0.0197
  180SOPE   H7X20585   2.711   5.110   7.250 -0.3751 -2.4600  1.1222
  180SOPE   H7Y20586   2.625   4.969   7.212  0.5864  0.3925  0.6721
  180SOPE   C3820587   2.493   5.126   7.279  0.5833 -0.4160 -1.5111
  180SOPE   H8X20588   2.404   5.069   7.244  0.2992 -0.8082 -0.2035
  180SOPE   H8Y20589   2.462   5.232   7.266  0.7514 -0.3620 -1.4661
  180SOPE   C3920590   2.520   5.086   7.426  0.1492  0.4812  0.5349
  180SOPE   H9X20591   2.608   5.146   7.457  2.1919 -0.9258 -2.0608
  180SOPE   H9Y20592   2.551   4.979   7.423 -1.8303 -0.1278 -1.6526
  180SOPE  C31020593   2.396   5.115   7.512  0.0962  0.9654 -0.3429
  180SOPE  H10X20594   2.308   5.066   7.465  0.6286 -0.2273 -0.1196
  180SOPE  H10Y20595   2.374   5.224   7.503  1.5734  1.3259  0.1100
  180SOPE  C31120596   2.391   5.078   7.657 -0.4620 -0.1308  0.3668
  180SOPE  H11X20597   2.369   4.969   7.659  1.8362 -0.6255  1.0090
  180SOPE  H11Y20598   2.305   5.116   7.717  0.9009 -1.2899  3.2644
  180SOPE  C31220599   2.513   5.109   7.749 -0.0659 -0.4251 -0.4573
  180SOPE  H12X20600   2.512   5.220   7.757  2.6982 -0.3494 -0.2848
  180SOPE  H12Y20601   2.599   5.078   7.687  0.8870  1.3566 -0.1087
  180SOPE  C31320602   2.507   5.041   7.889 -0.1238  0.9287  0.5968
  180SOPE  H13X20603   2.519   4.937   7.851 -1.6806  0.8537  0.2391
  180SOPE  H13Y20604   2.408   5.058   7.936 -0.4683  0.6668 -0.0264
  180SOPE  C31420605   2.621   5.086   7.978  0.8297  0.7849 -0.0167
  180SOPE  H14X20606   2.597   5.187   8.016 -0.5483  0.4541  0.0593
  180SOPE  H14Y20607   2.720   5.080   7.928  0.7753 -0.1721 -0.0341
  180SOPE  C31520608   2.633   4.986   8.089 -0.9549  0.0437  0.4678
  180SOPE  H15X20609   2.650   4.881   8.058  2.1113  0.7610 -0.6581
  180SOPE  H15Y20610   2.542   4.997   8.152 -0.5452  1.3213  0.8734
  180SOPE  C31620611   2.755   5.027   8.168  0.9120 -0.5813  0.1638
  180SOPE  H16X20612   2.751   5.137   8.184 -0.8958 -0.6946  0.6099
  180SOPE  H16Y20613   2.848   5.001   8.111  0.3109  1.1403 -1.7076
  180SOPE  C31720614   2.765   4.953   8.302 -0.0994  0.1009 -0.3098
  180SOPE  H17X20615   2.780   4.844   8.287 -1.6206  0.0392 -1.7432
  180SOPE  H17Y20616   2.667   4.952   8.355 -0.4399  1.2868 -0.8690
  180SOPE  C31820617   2.867   5.014   8.395  0.7565 -0.5288  0.2361
  180SOPE  H18X20618   2.862   4.955   8.489 -2.3584 -0.8141 -0.0188
  180SOPE  H18Y20619   2.835   5.120   8.403  1.2330 -0.0699 -2.6764
  180SOPE  H18Z20620   2.973   5.023   8.363  0.4063 -0.9265 -1.1511
  181SOPE     N20621   6.355   3.684   6.220  0.4682 -0.0753 -0.3874
  181SOPE   HN120622   6.292   3.646   6.292  0.3506 -0.1899 -0.5496
  181SOPE   HN220623   6.289   3.690   6.140 -0.6443 -0.7634  0.4568
  181SOPE   HN320624   6.433   3.626   6.182 -0.1495  0.3424 -2.4102
  181SOPE   C1220625   6.423   3.809   6.261  0.0662  0.5516  0.0068
  181SOPE  H12A20626   6.527   3.777   6.280  0.1445  0.7408 -0.0988
  181SOPE  H12B20627   6.367   3.851   6.348  1.8547  2.7205  0.2075
  181SOPE   C1120628   6.434   3.910   6.143  0.1323  0.0682 -1.3105
  181SOPE  H11A20629   6.515   3.859   6.087 -0.3703 -3.0397  0.5602
  181SOPE  H11B20630   6.476   4.004   6.184 -0.0893  0.0588 -1.0582
  181SOPE     P20631   6.228   4.045   6.057  0.2678  0.0515  0.5723
  181SOPE   O1320632   6.083   4.006   6.065  0.1992  0.4502  0.0010
  181SOPE   O1420633   6.274   4.114   5.939 -0.5427 -0.3506 -0.3579
  181SOPE   O1220634   6.308   3.909   6.070  0.1472 -0.6883 -0.1629
  181SOPE   O1120635   6.261   4.128   6.182 -0.0484 -0.8006  0.0458
  181SOPE    C120636   6.168   4.178   6.280  0.3280  0.1012 -0.1454
  181SOPE    HA20637   6.073   4.205   6.228  0.8223  0.0411 -1.1102
  181SOPE    HB20638   6.193   4.278   6.321  0.4741 -0.3771  0.9698
  181SOPE    C220639   6.138   4.077   6.397 -0.2349 -0.1281 -0.2637
  181SOPE    HS20640   6.065   4.130   6.463 -0.4120 -1.1664  0.3881
  181SOPE   O2120641   6.256   4.056   6.477 -0.1792 -0.1483 -0.0652
  181SOPE   C2120642   6.284   4.151   6.562 -0.2231  0.8041  0.7620
  181SOPE   O2220643   6.218   4.247   6.592  0.1856  0.7225 -0.4108
  181SOPE   C2220644   6.410   4.124   6.638 -0.2215 -0.2663 -0.1507
  181SOPE   H2R20645   6.491   4.145   6.565 -0.8504  1.3832 -0.4240
  181SOPE   H2S20646   6.417   4.018   6.669 -0.7263 -0.4650 -0.6802
  181SOPE    C320647   6.075   3.942   6.357 -0.0503 -0.2189  0.6455
  181SOPE    HX20648   6.143   3.892   6.284  0.3957  0.9733  0.2226
  181SOPE    HY20649   5.981   3.971   6.305 -0.1206 -0.9942  0.3259
  181SOPE   O3120650   6.037   3.869   6.469  0.4751 -0.0503  0.0434
  181SOPE   C3120651   6.098   3.750   6.489 -0.3328  0.1195 -0.3707
  181SOPE   O3220652   6.181   3.696   6.419  0.1590  0.2390  0.2811
  181SOPE   C3220653   6.047   3.695   6.619 -0.3142 -0.8046  0.7613
  181SOPE   H2X20654   5.947   3.646   6.610  0.3189 -1.9868 -0.0188
  181SOPE   H2Y20655   6.041   3.782   6.688 -0.5927 -0.5419  0.4135
  181SOPE   C2320656   6.423   4.211   6.759 -0.7637  0.4942 -1.1150
  181SOPE   H3R20657   6.339   4.183   6.827 -0.3096 -2.0022 -1.4706
  181SOPE   H3S20658   6.429   4.317   6.728 -0.0931  0.3887 -1.3505
  181SOPE   C2420659   6.555   4.179   6.832  1.4033  0.0803  0.2501
  181SOPE   H4R20660   6.596   4.083   6.791 -0.8114  0.0484 -2.1346
  181SOPE   H4S20661   6.638   4.253   6.828  1.6953 -0.2406  0.2634
  181SOPE   C2520662   6.539   4.144   6.983 -0.4053  0.0767  0.0139
  181SOPE   H5R20663   6.511   4.235   7.040 -0.1329 -0.4433  1.0143
  181SOPE   H5S20664   6.455   4.071   6.985 -0.6518  0.3341 -0.6762
  181SOPE   C2620665   6.665   4.078   7.043  0.8301 -0.2205 -0.1591
  181SOPE   H6R20666   6.693   3.990   6.982 -0.8394 -0.8086 -0.1372
  181SOPE   H6S20667   6.749   4.149   7.025 -2.5227  4.5794  1.2226
  181SOPE   C2720668   6.664   4.037   7.192 -0.2431  0.7443 -0.3164
  181SOPE   H7R20669   6.587   3.958   7.197 -2.0411  2.2928 -1.8261
  181SOPE   H7S20670   6.764   3.991   7.207 -0.0958  0.3804 -2.1424
  181SOPE   C2820671   6.631   4.161   7.282 -0.3334  0.5285 -0.1388
  181SOPE   H8R20672   6.539   4.204   7.237 -0.6469 -0.4116 -0.4439
  181SOPE   H8S20673   6.610   4.125   7.385 -0.2892 -1.1600 -0.6882
  181SOPE   C2920674   6.746   4.255   7.273 -0.5268  0.2062  0.0561
  181SOPE   H9120675   6.749   4.315   7.181 -0.3664 -0.3102 -0.2792
  181SOPE  C21020676   6.845   4.277   7.364 -0.2858  0.1793  0.1001
  181SOPE  H10120677   6.930   4.337   7.328  0.2293 -1.0062 -0.7358
  181SOPE  C21120678   6.869   4.209   7.496 -0.7008 -0.5947  0.2020
  181SOPE  H11R20679   6.950   4.134   7.486 -0.9285 -0.7250 -0.7630
  181SOPE  H11S20680   6.777   4.148   7.510 -0.2323 -1.4741 -0.5195
  181SOPE  C21220681   6.907   4.314   7.601 -0.5180  0.1125 -0.3268
  181SOPE  H12R20682   6.841   4.404   7.594 -0.9358 -0.2345 -0.9403
  181SOPE  H12S20683   7.011   4.345   7.576 -0.5217 -1.1499 -2.1093
  181SOPE  C21320684   6.902   4.262   7.745 -0.8912  0.0100 -0.2970
  181SOPE  H13R20685   6.945   4.337   7.816  1.2901 -0.2138 -1.2872
  181SOPE  H13S20686   6.961   4.168   7.742 -1.4127 -0.2917 -1.6484
  181SOPE  C21420687   6.756   4.236   7.783 -0.2418  0.0768  0.4223
  181SOPE  H14R20688   6.714   4.150   7.725  0.6730  0.2337 -0.5126
  181SOPE  H14S20689   6.691   4.321   7.753  2.7987  1.9996 -1.2652
  181SOPE  C21520690   6.736   4.181   7.927 -0.0571  0.1356 -0.1018
  181SOPE  H15R20691   6.813   4.110   7.964 -0.4980  0.6990  2.1025
  181SOPE  H15S20692   6.640   4.125   7.928 -0.9821  1.4928 -2.7086
  181SOPE  C21620693   6.729   4.295   8.023  0.2901  0.6110  0.3196
  181SOPE  H16R20694   6.648   4.365   7.993 -0.2442  0.0107  0.3255
  181SOPE  H16S20695   6.825   4.350   8.028  1.4898 -1.2117 -1.4744
  181SOPE  C21720696   6.696   4.257   8.170  0.5284 -0.5608 -0.1627
  181SOPE  H17R20697   6.588   4.246   8.192  0.1751  0.2485 -1.3812
  181SOPE  H17S20698   6.718   4.344   8.237 -2.3410 -1.4775  2.1525
  181SOPE  C21820699   6.778   4.143   8.227  0.1260  0.2036  0.6704
  181SOPE  H18R20700   6.755   4.118   8.333 -0.8325 -0.3259  0.3521
  181SOPE  H18S20701   6.885   4.172   8.223  0.1433  0.0337 -0.1871
  181SOPE  H18T20702   6.769   4.049   8.169 -0.6050  1.3365 -1.1319
  181SOPE   C3320703   6.144   3.593   6.677 -0.0519 -1.4190 -0.6253
  181SOPE   H3X20704   6.246   3.637   6.677 -1.0694  1.1511 -1.4196
  181SOPE   H3Y20705   6.130   3.498   6.622 -0.9516 -2.9527  2.0751
  181SOPE   C3420706   6.103   3.560   6.823  0.5288  0.0969  0.4811
  181SOPE   H4X20707   6.179   3.490   6.862 -0.2720 -1.2321 -0.2703
  181SOPE   H4Y20708   6.012   3.496   6.812  0.6707 -1.2717  5.1313
  181SOPE   C3520709   6.080   3.667   6.923  0.1421 -0.3720  0.0085
  181SOPE   H5X20710   5.976   3.701   6.905  0.2330 -0.7691 -1.4201
  181SOPE   H5Y20711   6.144   3.757   6.917 -2.3595  1.9370  3.7411
  181SOPE   C3620712   6.070   3.611   7.070 -0.6059 -0.5096 -0.3101
  181SOPE   H6X20713   6.168   3.571   7.104  1.0944  2.8071 -0.8425
  181SOPE   H6Y20714   5.988   3.537   7.066 -1.5891  0.6255 -2.1843
  181SOPE   C3720715   6.049   3.723   7.172  0.4854 -0.2281 -0.1057
  181SOPE   H7X20716   5.959   3.774   7.132  0.1372 -0.3231  0.5479
  181SOPE   H7Y20717   6.124   3.805   7.173 -0.8851  1.0684 -0.1698
  181SOPE   C3820718   6.027   3.675   7.313 -0.2440  0.1651 -0.3481
  181SOPE   H8X20719   5.945   3.601   7.309 -2.3758  2.4636 -3.3134
  181SOPE   H8Y20720   5.980   3.760   7.368 -0.0588  0.4214 -0.5871
  181SOPE   C3920721   6.145   3.612   7.385 -0.0339 -0.5552  0.3678
  181SOPE   H9X20722   6.213   3.696   7.412 -2.4675  1.7235 -0.1124
  181SOPE   H9Y20723   6.201   3.541   7.321  1.9689  0.1269  1.2644
  181SOPE  C31020724   6.109   3.511   7.496  0.8780 -0.0168 -0.9193
  181SOPE  H10X20725   6.193   3.441   7.514  0.4305  0.1780  2.7567
  181SOPE  H10Y20726   6.014   3.456   7.477 -0.0238  1.4746 -0.8820
  181SOPE  C31120727   6.082   3.582   7.627  0.6093 -0.2726  0.1124
  181SOPE  H11X20728   6.008   3.664   7.621 -0.4725 -1.2917 -0.8313
  181SOPE  H11Y20729   6.175   3.632   7.662  2.1518 -2.0723 -1.1960
  181SOPE  C31220730   6.026   3.480   7.729  0.3119 -0.1340  0.1657
  181SOPE  H12X20731   6.103   3.399   7.727  1.5681  0.9780  1.3081
  181SOPE  H12Y20732   5.927   3.446   7.691 -0.1763  2.9716 -1.6526
  181SOPE  C31320733   5.993   3.524   7.869  0.5983 -0.9604 -0.1511
  181SOPE  H13X20734   5.944   3.443   7.928 -0.9855 -0.7746 -1.1378
  181SOPE  H13Y20735   5.909   3.596   7.876  0.6294 -1.0059  0.8149
  181SOPE  C31420736   6.099   3.603   7.953  0.0236  0.0731 -0.1946
  181SOPE  H14X20737   6.118   3.702   7.905  0.6736  0.6695  1.2296
  181SOPE  H14Y20738   6.192   3.544   7.961 -0.1070 -0.0180  0.7528
  181SOPE  C31520739   6.031   3.640   8.087 -0.6246 -0.6411  0.2088
  181SOPE  H15X20740   5.921   3.651   8.072 -0.6073  0.3776  0.6941
  181SOPE  H15Y20741   6.081   3.731   8.128  0.4977 -0.4924 -1.3869
  181SOPE  C31620742   6.040   3.522   8.187  0.1240  0.3961  0.2238
  181SOPE  H16X20743   6.150   3.501   8.190  0.1778 -0.1023 -2.4347
  181SOPE  H16Y20744   6.000   3.425   8.151 -0.9409  1.2083 -0.8878
  181SOPE  C31720745   5.982   3.555   8.326 -0.2473  0.6680 -0.1714
  181SOPE  H17X20746   5.975   3.458   8.380 -1.1250 -0.4679 -2.2253
  181SOPE  H17Y20747   5.878   3.591   8.310 -1.5387 -2.4023  0.5515
  181SOPE  C31820748   6.069   3.650   8.401 -0.2531 -0.0742  0.2349
  181SOPE  H18X20749   6.171   3.608   8.416 -0.8533 -1.6568  0.0051
  181SOPE  H18Y20750   6.018   3.666   8.498 -2.4342  1.1367 -1.0304
  181SOPE  H18Z20751   6.087   3.754   8.364  0.6349  0.1949  1.3777
  182SOPE     N20752   3.581   6.036   6.437 -0.0400 -0.3733  0.5008
  182SOPE   HN120753   3.483   6.008   6.414 -0.1454  0.3857 -0.0460
  182SOPE   HN220754   3.632   5.954   6.473  0.6778 -1.0268 -1.8525
  182SOPE   HN320755   3.575   6.107   6.513 -2.2051 -0.0495  0.0924
  182SOPE   C1220756   3.659   6.095   6.319 -0.5140 -0.3542  0.5567
  182SOPE  H12A20757   3.622   6.197   6.299  1.3725  0.5942  1.6385
  182SOPE  H12B20758   3.651   6.025   6.233 -2.6859 -0.4938  0.8157
  182SOPE   C1120759   3.808   6.110   6.368 -0.1354  0.5858 -0.1639
  182SOPE  H11A20760   3.802   6.201   6.431 -1.4028  0.9229 -0.7375
  182SOPE  H11B20761   3.876   6.132   6.283 -0.7583  2.6537 -0.1839
  182SOPE     P20762   3.990   5.984   6.498  0.6284 -0.1486  0.2213
  182SOPE   O1320763   4.096   5.996   6.396  0.3627 -0.0024 -0.1552
  182SOPE   O1420764   4.000   5.860   6.577 -0.5750  0.2660 -0.3903
  182SOPE   O1220765   3.842   5.995   6.444 -0.4885  0.4469  0.6846
  182SOPE   O1120766   4.014   6.106   6.600  0.6613 -0.2872  0.1599
  182SOPE    C120767   3.930   6.146   6.706  0.5326  0.5094  0.0042
  182SOPE    HA20768   3.862   6.065   6.738  0.3210  1.0439  0.9149
  182SOPE    HB20769   3.863   6.222   6.660  0.6421 -0.7242 -2.3883
  182SOPE    C220770   4.010   6.182   6.841  0.2176  0.1682  0.8586
  182SOPE    HS20771   3.933   6.181   6.921 -1.0501 -3.5400 -0.1988
  182SOPE   O2120772   4.078   6.310   6.826  0.5482  0.1971  0.1276
  182SOPE   C2120773   3.997   6.408   6.825  0.3869 -0.4064 -0.2335
  182SOPE   O2220774   3.876   6.406   6.858 -0.1771 -0.6595  0.5842
  182SOPE   C2220775   4.080   6.529   6.797  0.0470  0.0240  0.4305
  182SOPE   H2R20776   4.074   6.533   6.686 -0.9048 -1.1974  0.4221
  182SOPE   H2S20777   4.186   6.512   6.825  0.1625  1.0535  0.6572
  182SOPE    C320778   4.119   6.070   6.874  0.0867 -0.5411  0.3133
  182SOPE    HX20779   4.179   6.061   6.780 -0.3945  0.5810 -0.1144
  182SOPE    HY20780   4.079   5.967   6.888  0.6169 -0.6652  0.9707
  182SOPE   O3120781   4.201   6.110   6.995  0.5472  0.8365 -0.1333
  182SOPE   C3120782   4.125   6.073   7.103  0.1493 -0.2814 -0.3809
  182SOPE   O3220783   4.028   6.006   7.101  0.5337  0.2065  0.1267
  182SOPE   C3220784   4.189   6.136   7.225  0.2149  0.2891 -0.2983
  182SOPE   H2X20785   4.199   6.245   7.206  2.2458  0.4372  1.3035
  182SOPE   H2Y20786   4.293   6.099   7.230  0.0617 -0.2510 -0.9627
  182SOPE   C2320787   4.016   6.659   6.854 -0.3309  0.0558 -0.2462
  182SOPE   H3R20788   3.912   6.645   6.890 -0.1206 -0.0624  0.3380
  182SOPE   H3S20789   4.025   6.744   6.784  3.5871 -1.0831 -1.3824
  182SOPE   C2420790   4.092   6.718   6.974 -0.4441 -0.0805  0.3558
  182SOPE   H4R20791   4.078   6.652   7.062  0.2595 -0.7278 -0.0103
  182SOPE   H4S20792   4.199   6.729   6.946 -0.6917  0.6921 -0.3179
  182SOPE   C2520793   4.027   6.858   7.000 -0.5881  0.0125  1.0117
  182SOPE   H5R20794   4.060   6.928   6.920 -1.2022 -0.9534 -0.1183
  182SOPE   H5S20795   3.917   6.850   6.989 -0.5998 -1.6602  1.9855
  182SOPE   C2620796   4.054   6.922   7.140 -0.1071 -0.3221  0.4168
  182SOPE   H6R20797   4.158   6.904   7.176  0.0322  0.7580  0.5851
  182SOPE   H6S20798   4.038   7.032   7.132 -2.6874 -0.5764  1.3214
  182SOPE   C2720799   3.955   6.887   7.256  0.0733 -0.3985  0.4005
  182SOPE   H7R20800   3.850   6.912   7.227  0.7125  2.2413  0.1141
  182SOPE   H7S20801   3.958   6.776   7.263  1.4801 -0.3774  0.2662
  182SOPE   C2820802   4.007   6.947   7.389 -0.2525  0.8137  0.0516
  182SOPE   H8R20803   3.972   6.889   7.476  1.4929 -0.9536 -0.3615
  182SOPE   H8S20804   4.118   6.941   7.396 -0.3577 -0.0103  1.0931
  182SOPE   C2920805   3.976   7.096   7.406  0.0066  0.7602 -0.4308
  182SOPE   H9120806   3.986   7.154   7.313  0.2168  2.1552  0.4316
  182SOPE  C21020807   3.924   7.152   7.513  0.1470  0.5135  0.6921
  182SOPE  H10120808   3.911   7.261   7.516  1.1581  0.6989 -0.6550
  182SOPE  C21120809   3.899   7.078   7.644  0.3342  0.5272  0.1340
  182SOPE  H11R20810   3.966   6.992   7.663  1.6160  1.6467  0.8951
  182SOPE  H11S20811   3.796   7.042   7.620  0.3300 -0.4872  1.5427
  182SOPE  C21220812   3.907   7.159   7.769 -0.1707  0.1359 -0.1826
  182SOPE  H12R20813   3.860   7.258   7.748 -0.0798 -0.3288 -2.9762
  182SOPE  H12S20814   4.014   7.178   7.789 -0.4212  0.6153  0.7654
  182SOPE  C21320815   3.841   7.079   7.891 -0.0215 -0.2639  0.7473
  182SOPE  H13R20816   3.877   6.975   7.882  0.4920 -0.1893  1.7665
  182SOPE  H13S20817   3.732   7.080   7.871  0.3139  1.4673 -1.3973
  182SOPE  C21420818   3.870   7.147   8.028 -0.3647 -0.8205 -0.1883
  182SOPE  H14R20819   3.849   7.256   8.025 -0.3805 -0.7721  1.1532
  182SOPE  H14S20820   3.977   7.150   8.057 -0.7316  1.1124  1.1400
  182SOPE  C21520821   3.786   7.085   8.138 -0.4011  0.5395  0.1935
  182SOPE  H15R20822   3.811   6.978   8.153  0.6266  0.6996 -0.3272
  182SOPE  H15S20823   3.676   7.098   8.129 -0.8800 -3.0431 -0.5869
  182SOPE  C21620824   3.818   7.138   8.277 -0.1533 -1.4074 -0.3563
  182SOPE  H16R20825   3.926   7.158   8.295 -0.1909  0.7697 -2.0698
  182SOPE  H16S20826   3.791   7.071   8.361 -1.1497 -0.6879 -0.0890
  182SOPE  C21720827   3.733   7.268   8.314 -0.1213 -0.2462 -0.2605
  182SOPE  H17R20828   3.657   7.298   8.239  1.7940  3.4165 -0.9691
  182SOPE  H17S20829   3.809   7.349   8.301 -0.7937  0.5178  0.4418
  182SOPE  C21820830   3.688   7.284   8.455  0.2383 -0.2322 -0.4022
  182SOPE  H18R20831   3.585   7.245   8.462 -0.3787  1.3201 -0.3497
  182SOPE  H18S20832   3.686   7.391   8.484  1.7850 -0.4450  0.6310
  182SOPE  H18T20833   3.751   7.220   8.520  0.7390  0.1266 -0.5256
  182SOPE   C3320834   4.109   6.110   7.354 -0.6387  0.3304 -0.7500
  182SOPE   H3X20835   4.114   6.005   7.389 -1.2948  1.2111  2.2400
  182SOPE   H3Y20836   4.000   6.121   7.333 -0.2124  1.5530 -2.6018
  182SOPE   C3420837   4.156   6.198   7.471  0.2963 -0.0455  0.1314
  182SOPE   H4X20838   4.095   6.187   7.564  0.6123  2.8064  0.7810
  182SOPE   H4Y20839   4.142   6.306   7.448  0.8463 -0.2885 -1.4266
  182SOPE   C3520840   4.301   6.174   7.526 -0.8866  0.2430 -0.0101
  182SOPE   H5X20841   4.375   6.239   7.473 -0.1186  0.5475  1.3860
  182SOPE   H5Y20842   4.317   6.064   7.528 -1.8744  0.0665 -0.8670
  182SOPE   C3620843   4.305   6.223   7.671 -0.0903  0.0659 -1.0418
  182SOPE   H6X20844   4.225   6.172   7.728 -2.3077  0.7211 -3.3740
  182SOPE   H6Y20845   4.274   6.330   7.676 -1.4954 -0.3434 -0.2708
  182SOPE   C3720846   4.450   6.202   7.719 -0.2799  0.2410 -0.6585
  182SOPE   H7X20847   4.530   6.243   7.654  2.0446 -1.3663  1.0117
  182SOPE   H7Y20848   4.470   6.094   7.735 -1.1879  0.3683  1.7761
  182SOPE   C3820849   4.487   6.267   7.853 -0.3098  0.2174  0.7634
  182SOPE   H8X20850   4.481   6.378   7.855  0.7608  0.2817  2.3683
  182SOPE   H8Y20851   4.590   6.229   7.868  0.5026  0.8404 -2.4511
  182SOPE   C3920852   4.401   6.221   7.970  0.5288 -0.2913 -0.0769
  182SOPE   H9X20853   4.399   6.110   7.971  2.1724 -0.3707 -1.3626
  182SOPE   H9Y20854   4.293   6.241   7.952  0.8706 -0.8308 -3.2781
  182SOPE  C31020855   4.447   6.273   8.108 -0.1535  0.4791 -0.1247
  182SOPE  H10X20856   4.465   6.383   8.108 -1.0690  0.6374  0.2768
  182SOPE  H10Y20857   4.534   6.213   8.142 -0.4608 -1.0054 -1.8092
  182SOPE  C31120858   4.334   6.257   8.215  0.1843 -0.2036  0.2547
  182SOPE  H11X20859   4.317   6.152   8.245  2.7520 -0.7893 -0.1709
  182SOPE  H11Y20860   4.238   6.299   8.178  1.2563  1.9254 -0.3178
  182SOPE  C31220861   4.348   6.348   8.332  0.4343 -0.2647 -0.2132
  182SOPE  H12X20862   4.266   6.325   8.403  1.3742  0.0049  0.9960
  182SOPE  H12Y20863   4.335   6.458   8.317  2.7449 -0.0375 -1.0685
  182SOPE  C31320864   4.485   6.336   8.399 -0.0658  0.3755 -0.0108
  182SOPE  H13X20865   4.562   6.385   8.336  0.4588 -1.0938 -0.5577
  182SOPE  H13Y20866   4.508   6.227   8.399  1.5443  0.6927  0.0626
  182SOPE  C31420867   4.496   6.389   8.538 -0.3178  0.6176  0.7003
  182SOPE  H14X20868   4.605   6.388   8.561  0.5639 -0.1953 -2.8685
  182SOPE  H14Y20869   4.436   6.333   8.612 -1.9026  1.3386 -0.0047
  182SOPE  C31520870   4.464   6.537   8.544  0.4028  0.2237 -0.3983
  182SOPE  H15X20871   4.439   6.561   8.650  0.1812 -2.5498  0.2537
  182SOPE  H15Y20872   4.368   6.548   8.488 -1.0985 -2.7370  1.3425
  182SOPE  C31620873   4.568   6.628   8.485 -0.2106 -0.6351  0.3439
  182SOPE  H16X20874   4.667   6.601   8.527  0.5335  0.6833 -0.4686
  182SOPE  H16Y20875   4.553   6.727   8.534  1.6547 -0.6406  0.9939
  182SOPE  C31720876   4.566   6.666   8.333 -0.3703 -0.2099  0.5172
  182SOPE  H17X20877   4.461   6.691   8.308  0.3986  0.9008 -1.9398
  182SOPE  H17Y20878   4.599   6.586   8.262 -0.5747  0.6517 -0.5723
  182SOPE  C31820879   4.661   6.792   8.299 -0.1719 -0.0352  0.2112
  182SOPE  H18X20880   4.647   6.832   8.196 -0.8750 -1.6652 -0.3629
  182SOPE  H18Y20881   4.767   6.762   8.305 -0.0282  0.6257  1.2753
  182SOPE  H18Z20882   4.650   6.874   8.373  0.3748  0.3461 -0.1199
  183SOPE     N20883   4.109   5.060   6.219 -0.0368 -0.1635 -0.0690
  183SOPE   HN120884   4.021   5.105   6.251 -0.0683  0.2092 -0.6616
  183SOPE   HN220885   4.170   5.125   6.167 -1.7005 -1.0968 -3.4683
  183SOPE   HN320886   4.084   4.991   6.145  0.7990 -0.1923 -0.3328
  183SOPE   C1220887   4.188   4.994   6.325  0.3650  0.0798 -0.8745
  183SOPE  H12A20888   4.133   4.908   6.368  1.8555 -0.5493 -0.1546
  183SOPE  H12B20889   4.201   5.065   6.409  1.3511 -0.9685 -0.1063
  183SOPE   C1120890   4.323   4.961   6.273  0.0515  0.6933  0.4058
  183SOPE  H11A20891   4.392   4.933   6.356  1.5491 -1.3896 -1.4058
  183SOPE  H11B20892   4.372   5.050   6.229 -0.0591 -0.8234 -3.1778
  183SOPE     P20893   4.388   4.710   6.203 -0.3663 -0.5951 -0.1191
  183SOPE   O1320894   4.507   4.694   6.119 -0.3141  0.0724  0.1733
  183SOPE   O1420895   4.283   4.612   6.165 -0.2878  0.2134 -0.9121
  183SOPE   O1220896   4.327   4.850   6.175  0.3949  0.3429  0.2013
  183SOPE   O1120897   4.429   4.706   6.359  0.0233  0.5187  0.0473
  183SOPE    C120898   4.378   4.600   6.448  0.3343 -0.0351  0.0524
  183SOPE    HA20899   4.458   4.565   6.517 -1.1731 -1.6655  1.0629
  183SOPE    HB20900   4.345   4.513   6.386 -1.5079  0.4219  0.3251
  183SOPE    C220901   4.258   4.652   6.546 -0.0441  0.3010  0.0869
  183SOPE    HS20902   4.186   4.700   6.476  1.0014  3.2714  0.9022
  183SOPE   O2120903   4.309   4.741   6.638  0.4243 -0.1977 -0.2033
  183SOPE   C2120904   4.217   4.832   6.676  0.3681 -0.3453 -0.3830
  183SOPE   O2220905   4.117   4.865   6.615 -0.0373  1.0181  0.1684
  183SOPE   C2220906   4.247   4.866   6.820 -0.6642  0.6050  0.4818
  183SOPE   H2R20907   4.181   4.954   6.835  1.0761  2.1956 -0.6610
  183SOPE   H2S20908   4.355   4.893   6.822 -0.2052 -1.1311  2.2952
  183SOPE    C320909   4.187   4.540   6.623  0.1390 -0.4078  0.4802
  183SOPE    HX20910   4.234   4.503   6.717 -1.9974 -0.1873  1.7140
  183SOPE    HY20911   4.177   4.454   6.553 -0.6905  0.2593 -0.2365
  183SOPE   O3120912   4.054   4.577   6.655  0.0534 -0.5504  0.6480
  183SOPE   C3120913   3.957   4.561   6.570  0.3014  0.4669  0.6676
  183SOPE   O3220914   3.965   4.521   6.455 -0.1252 -0.2450 -0.0781
  183SOPE   C3220915   3.824   4.585   6.639  0.9741  0.2512 -0.4881
  183SOPE   H2X20916   3.781   4.484   6.652  1.9636  0.0743  1.7278
  183SOPE   H2Y20917   3.753   4.645   6.578  0.1273  2.4957  2.4344
  183SOPE   C2320918   4.229   4.746   6.916  0.2191 -0.1182 -0.1255
  183SOPE   H3R20919   4.276   4.655   6.873 -1.2798 -0.0490 -2.0376
  183SOPE   H3S20920   4.120   4.721   6.915  0.3529 -0.6975 -0.4235
  183SOPE   C2420921   4.280   4.782   7.055 -0.4622  0.4856 -0.7177
  183SOPE   H4R20922   4.381   4.737   7.068 -1.0905 -0.6739  0.3827
  183SOPE   H4S20923   4.287   4.892   7.069 -0.7987  0.3014  1.2739
  183SOPE   C2520924   4.189   4.727   7.169  0.0708 -0.8305  0.2890
  183SOPE   H5R20925   4.083   4.759   7.171  0.1626 -0.4255 -0.6407
  183SOPE   H5S20926   4.186   4.616   7.176 -0.3583 -0.7160  3.2610
  183SOPE   C2620927   4.244   4.771   7.309 -0.9064  0.1781 -0.2437
  183SOPE   H6R20928   4.323   4.699   7.338 -0.2210  1.5279  1.4261
  183SOPE   H6S20929   4.291   4.871   7.298 -1.0197  0.4051  1.2178
  183SOPE   C2720930   4.140   4.760   7.419  0.4383  0.4603 -0.2880
  183SOPE   H7R20931   4.059   4.831   7.390  1.5636  1.0135 -2.2470
  183SOPE   H7S20932   4.095   4.659   7.430 -0.0117  0.9353  3.9374
  183SOPE   C2820933   4.176   4.819   7.554 -0.3377 -0.7126 -0.3003
  183SOPE   H8R20934   4.280   4.794   7.584  0.6333  1.3160 -1.7117
  183SOPE   H8S20935   4.159   4.928   7.538 -2.4444 -0.4973  2.6396
  183SOPE   C2920936   4.088   4.770   7.665  0.4510 -0.0807 -0.5973
  183SOPE   H9120937   4.069   4.661   7.671 -1.8713  0.2614 -0.9700
  183SOPE  C21020938   4.032   4.839   7.767 -0.5421  0.3533  0.1974
  183SOPE  H10120939   3.969   4.788   7.841  1.6256 -0.3631  1.6288
  183SOPE  C21120940   4.052   4.991   7.781  0.3657  0.4013  0.3935
  183SOPE  H11R20941   4.021   5.048   7.690  3.1237  1.5513  0.0980
  183SOPE  H11S20942   4.159   5.012   7.800  0.7452 -0.6159 -0.5261
  183SOPE  C21220943   3.964   5.042   7.897  0.5794 -0.0720  0.2457
  183SOPE  H12R20944   3.985   5.150   7.884  0.5508  0.0638  1.2889
  183SOPE  H12S20945   4.014   5.002   7.988  1.1174 -2.4253 -0.9841
  183SOPE  C21320946   3.808   5.015   7.883  0.1844 -0.6729 -0.5102
  183SOPE  H13R20947   3.789   4.907   7.867 -2.3803 -0.2748 -0.5913
  183SOPE  H13S20948   3.779   5.075   7.794 -0.8007  0.6642  0.6700
  183SOPE  C21420949   3.724   5.075   7.995 -0.5365 -0.0999  0.2205
  183SOPE  H14R20950   3.617   5.074   7.966 -0.8642 -0.5434  1.3635
  183SOPE  H14S20951   3.764   5.178   8.007  1.0294 -0.6404 -0.0669
  183SOPE  C21520952   3.754   5.014   8.131 -0.7119 -0.3253 -0.5261
  183SOPE  H15R20953   3.865   5.013   8.138 -0.8091 -1.6480  1.9944
  183SOPE  H15S20954   3.715   4.912   8.111  2.2261 -1.2099 -2.3849
  183SOPE  C21620955   3.689   5.088   8.253 -0.2771  0.4819  0.0273
  183SOPE  H16R20956   3.724   5.193   8.253  0.7807  0.1380  0.3366
  183SOPE  H16S20957   3.734   5.030   8.337 -0.6952  0.1667  0.0407
  183SOPE  C21720958   3.537   5.083   8.252  0.0733 -0.4481  1.1885
  183SOPE  H17R20959   3.492   4.998   8.195  0.9892  0.1005 -0.4372
  183SOPE  H17S20960   3.507   5.168   8.187  0.7372 -1.0332  0.0837
  183SOPE  C21820961   3.467   5.115   8.381  0.0288  0.9090  0.5659
  183SOPE  H18R20962   3.492   5.034   8.453  1.7002 -0.4149 -1.4232
  183SOPE  H18S20963   3.357   5.117   8.366 -0.1235 -2.0936  0.7795
  183SOPE  H18T20964   3.494   5.214   8.425  2.1943  0.6909 -0.1876
  183SOPE   C3320965   3.839   4.658   6.782 -0.4626  0.4881  0.0261
  183SOPE   H3X20966   3.736   4.689   6.810 -0.5986  0.1765 -0.1287
  183SOPE   H3Y20967   3.915   4.739   6.778 -0.7112  0.6962 -0.8370
  183SOPE   C3420968   3.873   4.551   6.881  0.2814  0.5034 -0.4850
  183SOPE   H4X20969   3.982   4.538   6.864 -0.0049  0.1210 -2.2255
  183SOPE   H4Y20970   3.829   4.453   6.853  0.6141  0.0425  0.5573
  183SOPE   C3520971   3.841   4.586   7.029 -0.5776  0.2613 -0.5287
  183SOPE   H5X20972   3.737   4.602   7.064  0.2825  0.9637  1.8736
  183SOPE   H5Y20973   3.882   4.684   7.061 -0.4198  0.3448 -0.9729
  183SOPE   C3620974   3.900   4.482   7.126  0.0075  0.3469  0.3308
  183SOPE   H6X20975   4.011   4.485   7.137  0.2183 -2.7712 -0.0734
  183SOPE   H6Y20976   3.863   4.381   7.099  2.8319 -1.0004  1.1180
  183SOPE   C3720977   3.847   4.511   7.270 -0.1315  0.1861  1.0670
  183SOPE   H7X20978   3.737   4.496   7.274 -0.0005 -0.5586  3.0530
  183SOPE   H7Y20979   3.872   4.618   7.288 -0.4103  1.1260 -3.0965
  183SOPE   C3820980   3.907   4.429   7.374  0.9097 -0.4216  0.0374
  183SOPE   H8X20981   4.017   4.417   7.361  0.5690 -1.4693 -2.5210
  183SOPE   H8Y20982   3.865   4.326   7.374  2.2835 -1.0111  0.4262
  183SOPE   C3920983   3.889   4.483   7.516  0.5999 -0.7525  0.3055
  183SOPE   H9X20984   3.779   4.496   7.527  0.0829 -2.6588 -1.9035
  183SOPE   H9Y20985   3.934   4.585   7.517  0.4810 -0.6512 -1.6049
  183SOPE  C31020986   3.931   4.386   7.632  0.3838 -0.3621  0.5741
  183SOPE  H10X20987   4.040   4.364   7.632  0.5804  0.4947  1.9877
  183SOPE  H10Y20988   3.883   4.292   7.598  1.1131 -0.2245 -0.9617
  183SOPE  C31120989   3.879   4.421   7.764  0.3835  0.3887  0.3370
  183SOPE  H11X20990   3.768   4.431   7.765  0.2575 -0.1456  3.5125
  183SOPE  H11Y20991   3.916   4.522   7.794 -0.7185  1.3939 -1.5141
  183SOPE  C31220992   3.925   4.317   7.869  0.1802  0.6103 -0.2949
  183SOPE  H12X20993   3.925   4.362   7.970 -3.2049 -0.5754  0.3785
  183SOPE  H12Y20994   4.028   4.287   7.839 -0.1772 -0.5079 -0.4564
  183SOPE  C31320995   3.827   4.199   7.867  0.6762  0.1047  0.0160
  183SOPE  H13X20996   3.833   4.162   7.762  0.0173 -1.0526  0.3742
  183SOPE  H13Y20997   3.724   4.226   7.898  0.5130 -0.2788 -0.1840
  183SOPE  C31420998   3.862   4.078   7.952 -0.3414  0.2136 -0.5504
  183SOPE  H14X20999   3.879   4.118   8.053 -0.8882  1.1447 -0.8167
  183SOPE  H14Y21000   3.951   4.033   7.904  0.7209  1.1585  0.5049
  183SOPE  C31521001   3.742   3.976   7.961  0.1492  0.2717  0.5789
  183SOPE  H15X21002   3.716   3.943   7.858  0.8558 -0.1206  0.5232
  183SOPE  H15Y21003   3.657   4.037   7.998  0.4046  0.7260  0.4201
  183SOPE  C31621004   3.771   3.848   8.037  0.9877  0.0062 -0.4982
  183SOPE  H16X21005   3.843   3.783   7.983  0.3147 -0.7301 -0.5424
  183SOPE  H16Y21006   3.681   3.783   8.049  2.3154 -1.6274  1.5423
  183SOPE  C31721007   3.823   3.870   8.183  0.2121 -0.2022  0.0350
  183SOPE  H17X21008   3.749   3.932   8.237  0.4392  1.0409 -1.0455
  183SOPE  H17Y21009   3.916   3.931   8.178  0.0004  0.1678  0.5790
  183SOPE  C31821010   3.837   3.743   8.259  0.3536 -0.2925 -0.5239
  183SOPE  H18X21011   3.736   3.697   8.250 -0.5065  1.0244  1.6818
  183SOPE  H18Y21012   3.868   3.762   8.364 -3.0206  1.5871  0.2895
  183SOPE  H18Z21013   3.916   3.694   8.199  0.6221  0.5284 -0.8562
  184SOPE     N21014   2.192   3.017   6.062  0.3427  0.1300 -0.0666
  184SOPE   HN121015   2.089   3.003   6.070  0.4913 -0.9956  0.1630
  184SOPE   HN221016   2.220   2.976   5.970  0.9197 -3.3847  1.4744
  184SOPE   HN321017   2.237   2.955   6.133 -0.7202 -1.3330 -0.6065
  184SOPE   C1221018   2.219   3.166   6.079  1.7216  0.0795 -0.0465
  184SOPE  H12A21019   2.189   3.194   6.182 -3.3328  0.4339 -1.3459
  184SOPE  H12B21020   2.161   3.217   5.999 -0.3012 -0.3849  1.0863
  184SOPE   C1121021   2.369   3.191   6.050  0.7690 -0.6348 -0.4085
  184SOPE  H11A21022   2.370   3.302   6.058  0.9310 -0.6373 -0.3848
  184SOPE  H11B21023   2.391   3.156   5.947 -3.0219 -1.6026 -1.0048
  184SOPE     P21024   2.585   3.066   6.130 -0.2155 -0.3981 -0.0824
  184SOPE   O1321025   2.621   3.069   5.984  0.1502  0.0703  0.2513
  184SOPE   O1421026   2.582   2.936   6.194  0.1224  0.1330 -0.6671
  184SOPE   O1221027   2.447   3.130   6.156  0.1619 -0.9841 -0.4520
  184SOPE   O1121028   2.702   3.152   6.211 -0.0855  0.4465 -0.2959
  184SOPE    C121029   2.669   3.255   6.302  0.2776  0.1342 -0.4961
  184SOPE    HA21030   2.590   3.219   6.372 -0.2848  1.1940 -0.5521
  184SOPE    HB21031   2.625   3.337   6.240 -2.0702 -1.7096 -1.4140
  184SOPE    C221032   2.792   3.297   6.377  0.3746 -0.2502  0.1102
  184SOPE    HS21033   2.821   3.207   6.435 -1.5619 -1.3550 -0.5415
  184SOPE   O2121034   2.742   3.412   6.452 -0.8905  0.3443 -0.1335
  184SOPE   C2121035   2.778   3.404   6.580 -0.6711 -0.1816  0.3133
  184SOPE   O2221036   2.811   3.306   6.643 -0.0984 -0.2693  0.1833
  184SOPE   C2221037   2.755   3.540   6.639 -0.4538  0.6139 -0.4388
  184SOPE   H2R21038   2.652   3.581   6.638 -0.4811  0.5475 -0.3469
  184SOPE   H2S21039   2.827   3.605   6.585  0.1036  2.6603  2.4959
  184SOPE    C321040   2.906   3.337   6.288 -0.7179  0.3023  0.5539
  184SOPE    HX21041   2.871   3.419   6.222  0.7650 -0.3750 -1.1547
  184SOPE    HY21042   2.925   3.256   6.214 -1.1624 -0.6351  1.4370
  184SOPE   O3121043   3.017   3.385   6.358  0.3611  0.4133 -0.0951
  184SOPE   C3121044   3.098   3.295   6.398 -0.2773 -0.7049  0.8590
  184SOPE   O3221045   3.097   3.174   6.369 -0.0647 -0.5291  0.7661
  184SOPE   C3221046   3.200   3.359   6.487 -0.2365  0.0608 -0.5319
  184SOPE   H2X21047   3.276   3.414   6.427  0.8169 -2.4326 -1.6451
  184SOPE   H2Y21048   3.256   3.274   6.531 -0.5358 -0.3081 -0.8520
  184SOPE   C2321049   2.812   3.533   6.779 -0.0003  0.6982  0.2409
  184SOPE   H3R21050   2.912   3.485   6.791 -0.6119 -0.8575 -0.5231
  184SOPE   H3S21051   2.744   3.466   6.835 -0.8264  0.7057 -0.7247
  184SOPE   C2421052   2.822   3.660   6.859  0.7983 -0.1949  0.0804
  184SOPE   H4R21053   2.922   3.699   6.830  2.3310 -1.9671  2.5342
  184SOPE   H4S21054   2.739   3.730   6.834  0.7804  0.0423  0.7870
  184SOPE   C2521055   2.821   3.656   7.011  0.7861 -0.5630 -0.6080
  184SOPE   H5R21056   2.853   3.752   7.056  1.8416 -1.2217  0.0990
  184SOPE   H5S21057   2.717   3.637   7.043  0.9271  0.4781  0.5562
  184SOPE   C2621058   2.928   3.556   7.060  0.0052  0.6428  0.2143
  184SOPE   H6R21059   2.894   3.454   7.031 -1.2099  1.1672 -0.2802
  184SOPE   H6S21060   3.033   3.569   7.027 -0.2540  2.6796  0.0610
  184SOPE   C2721061   2.921   3.563   7.215  0.1812  0.6790 -0.0337
  184SOPE   H7R21062   2.936   3.667   7.250 -2.4841  1.6022 -1.3893
  184SOPE   H7S21063   2.820   3.520   7.232  1.4628 -1.7326  2.3160
  184SOPE   C2821064   3.018   3.462   7.274 -0.4748  0.8291 -0.1725
  184SOPE   H8R21065   3.119   3.488   7.236 -0.4268  0.3641 -0.3655
  184SOPE   H8S21066   3.031   3.497   7.379  0.5218  1.2604 -0.4208
  184SOPE   C2921067   2.985   3.310   7.258 -0.3626 -0.5228 -0.2039
  184SOPE   H9121068   2.989   3.274   7.155  2.1526  1.2317 -0.8280
  184SOPE  C21021069   2.953   3.225   7.356  0.3091  0.5252 -0.0027
  184SOPE  H10121070   2.951   3.119   7.327 -1.5040  0.5777 -0.1782
  184SOPE  C21121071   2.943   3.247   7.505 -0.3935 -0.1104 -0.3618
  184SOPE  H11R21072   2.843   3.234   7.551  0.3853 -1.5064  0.9978
  184SOPE  H11S21073   2.977   3.351   7.529  0.8755 -0.8005  1.0275
  184SOPE  C21221074   3.043   3.156   7.580  0.2374  0.2456  0.9080
  184SOPE  H12R21075   3.147   3.155   7.540  0.0860  0.2656  0.5074
  184SOPE  H12S21076   2.996   3.056   7.569 -1.3871  1.1077 -0.5618
  184SOPE  C21321077   3.071   3.198   7.727 -0.3779  0.6790 -0.0375
  184SOPE  H13R21078   2.974   3.234   7.769  0.1578  1.3260  0.6720
  184SOPE  H13S21079   3.131   3.291   7.737  0.3744 -0.0149  2.8020
  184SOPE  C21421080   3.122   3.085   7.821  1.0081 -0.1183  0.3824
  184SOPE  H14R21081   3.212   3.041   7.771  0.6510  0.7719 -1.1168
  184SOPE  H14S21082   3.051   3.000   7.833  0.5574  0.3540  1.0964
  184SOPE  C21521083   3.156   3.147   7.956 -0.0066  0.1429  0.1258
  184SOPE  H15R21084   3.069   3.178   8.018  0.3707 -0.5892  1.0449
  184SOPE  H15S21085   3.216   3.240   7.944 -0.9795  0.5718 -2.0156
  184SOPE  C21621086   3.223   3.039   8.045 -0.3400 -0.6714  0.1451
  184SOPE  H16R21087   3.315   2.997   7.997  2.2622  2.3139  2.1214
  184SOPE  H16S21088   3.156   2.951   8.059  1.9171 -2.4655  0.3933
  184SOPE  C21721089   3.259   3.089   8.185  0.1135  0.1217 -1.3331
  184SOPE  H17R21090   3.163   3.074   8.239  1.9819 -1.4422  1.8659
  184SOPE  H17S21091   3.286   3.197   8.190 -0.1824  0.1410  0.3158
  184SOPE  C21821092   3.360   3.012   8.261 -0.2957 -0.4125  0.2980
  184SOPE  H18R21093   3.373   3.054   8.362 -1.4952 -1.9760  1.1561
  184SOPE  H18S21094   3.458   3.010   8.208  0.0481  1.4563  0.8190
  184SOPE  H18T21095   3.336   2.905   8.283  0.6055 -1.1037 -1.7930
  184SOPE   C3321096   3.131   3.440   6.594 -0.0114 -0.9744 -0.8630
  184SOPE   H3X21097   3.048   3.385   6.643 -0.5105 -1.2898 -2.0402
  184SOPE   H3Y21098   3.090   3.531   6.546 -0.6531 -0.7929  0.0024
  184SOPE   C3421099   3.219   3.499   6.705 -0.3501  0.0891  0.4150
  184SOPE   H4X21100   3.171   3.582   6.762 -2.6063  0.8776 -2.3721
  184SOPE   H4Y21101   3.309   3.547   6.663 -1.2106  0.5143 -1.0382
  184SOPE   C3521102   3.266   3.386   6.795 -0.7374  0.6156  0.4521
  184SOPE   H5X21103   3.323   3.308   6.740  0.2110 -0.7939  3.2413
  184SOPE   H5Y21104   3.170   3.339   6.828 -0.4235 -1.5307 -1.4639
  184SOPE   C3621105   3.331   3.436   6.923 -0.0789  0.0323 -1.0849
  184SOPE   H6X21106   3.257   3.509   6.963 -1.9394 -2.0282 -0.6021
  184SOPE   H6Y21107   3.429   3.483   6.900  0.7650 -1.1689 -0.1124
  184SOPE   C3721108   3.350   3.323   7.017  0.3009  0.5182 -0.1234
  184SOPE   H7X21109   3.406   3.243   6.964  0.0936  1.1792 -1.3910
  184SOPE   H7Y21110   3.254   3.274   7.044  1.6654 -2.3910 -0.2452
  184SOPE   C3821111   3.420   3.358   7.156  0.7369 -0.1539 -0.3377
  184SOPE   H8X21112   3.358   3.410   7.232 -2.1209  0.7528 -3.0762
  184SOPE   H8Y21113   3.495   3.435   7.130 -0.7369  1.5221  0.1965
  184SOPE   C3921114   3.484   3.231   7.214  0.0331 -0.2749  0.7582
  184SOPE   H9X21115   3.547   3.182   7.137  0.8835 -0.5060  1.5863
  184SOPE   H9Y21116   3.397   3.165   7.235 -0.1539 -0.3762 -0.2580
  184SOPE  C31021117   3.587   3.245   7.324 -0.0054 -0.5247 -0.9598
  184SOPE  H10X21118   3.682   3.284   7.281 -0.2218  0.2951 -0.7145
  184SOPE  H10Y21119   3.610   3.145   7.367 -0.3876 -0.1594  0.1212
  184SOPE  C31121120   3.550   3.335   7.445 -0.3791  0.1888 -0.3806
  184SOPE  H11X21121   3.520   3.434   7.405 -2.4563 -0.3289 -0.1759
  184SOPE  H11Y21122   3.642   3.340   7.507 -1.7120 -1.4866  1.8735
  184SOPE  C31221123   3.444   3.287   7.539 -0.3209  0.6129  0.2594
  184SOPE  H12X21124   3.456   3.181   7.571  1.0346 -0.2526 -2.7421
  184SOPE  H12Y21125   3.361   3.272   7.467  0.7003  1.6175 -1.1724
  184SOPE  C31321126   3.400   3.378   7.653  0.3188 -0.6449  0.3469
  184SOPE  H13X21127   3.313   3.332   7.703 -0.5324 -0.2256 -0.6980
  184SOPE  H13Y21128   3.363   3.478   7.621  0.7713 -0.8258 -0.8299
  184SOPE  C31421129   3.511   3.402   7.760  0.5235  0.0924  0.0078
  184SOPE  H14X21130   3.482   3.486   7.826 -1.9969 -0.1343 -0.7150
  184SOPE  H14Y21131   3.605   3.436   7.710  0.7715  1.2037  1.1994
  184SOPE  C31521132   3.549   3.275   7.843  0.1129 -0.0187 -0.5040
  184SOPE  H15X21133   3.543   3.199   7.762 -1.1705 -0.8062  0.3001
  184SOPE  H15Y21134   3.462   3.256   7.909  0.4903  0.2574  0.0804
  184SOPE  C31621135   3.684   3.293   7.915  0.0439 -0.4347 -0.2729
  184SOPE  H16X21136   3.684   3.391   7.968  0.0983 -0.3133 -0.4977
  184SOPE  H16Y21137   3.759   3.312   7.836  0.6090  1.5236  0.6668
  184SOPE  C31721138   3.723   3.180   8.005  0.4112 -0.1873  0.3555
  184SOPE  H17X21139   3.756   3.095   7.941 -1.6132 -0.5092 -0.3187
  184SOPE  H17Y21140   3.631   3.145   8.057 -0.4016  0.8603 -0.3294
  184SOPE  C31821141   3.835   3.210   8.110 -0.5054  0.7015 -0.5201
  184SOPE  H18X21142   3.789   3.243   8.206  1.2185 -0.0763  0.6131
  184SOPE  H18Y21143   3.903   3.289   8.072  1.1340 -0.9931 -1.2543
  184SOPE  H18Z21144   3.885   3.112   8.126 -2.8983 -0.8688 -1.9323
  185SAPI   C1221145   3.275   6.312  10.721 -0.5476  0.2624  0.1602
  185SAPI    H221146   3.345   6.332  10.638 -2.9369  3.4411 -1.3256
  185SAPI    O221147   3.232   6.437  10.761  0.8062  0.0855  0.3016
  185SAPI   HO221148   3.164   6.472  10.704  4.6220  1.9054 -3.7449
  185SAPI   C1321149   3.163   6.226  10.655 -0.7807  0.0452  0.4336
  185SAPI    H321150   3.207   6.133  10.614 -3.0686 -0.0535 -2.0958
  185SAPI    O321151   3.101   6.295  10.549 -0.2031  0.1805  0.1627
  185SAPI   HO321152   3.114   6.235  10.474  3.0788  1.2319 -0.2953
  185SAPI   C1421153   3.070   6.175  10.763  0.7105  0.0609  0.1820
  185SAPI    H421154   3.024   6.271  10.794 -2.7820 -1.3173 -0.2515
  185SAPI    O421155   2.975   6.086  10.700 -0.0398  0.0253  0.6555
  185SAPI   HO421156   2.894   6.126  10.668 -1.2125 -1.5501  1.4896
  185SAPI   C1521157   3.147   6.098  10.869  0.4544 -0.1628  0.0704
  185SAPI    H521158   3.192   6.010  10.818 -1.9467 -0.1162 -2.3836
  185SAPI    O521159   3.059   6.036  10.960  0.4202  0.0696 -0.0810
  185SAPI   HO521160   3.109   6.019  11.041 -0.4932 -3.2680 -0.0616
  185SAPI   C1621161   3.261   6.176  10.929  0.5149  0.1977 -0.1168
  185SAPI    H621162   3.217   6.257  10.991 -1.9233 -0.7134 -0.5232
  185SAPI    O621163   3.339   6.088  11.014  0.0807  0.2477 -0.4263
  185SAPI   HO621164   3.426   6.123  11.036 -0.2864  0.9579 -0.0572
  185SAPI   C1121165   3.356   6.233  10.821  0.3948  0.2922 -0.5160
  185SAPI    H121166   3.390   6.147  10.760 -2.5252 -1.8642  0.7061
  185SAPI     P21167   3.616   6.249  10.912  0.0857  0.4165  0.3466
  185SAPI   O1321168   3.596   6.138  11.010 -0.2127 -0.0196  0.1187
  185SAPI   O1421169   3.714   6.356  10.946 -0.0187  0.4165 -0.6939
  185SAPI   O1221170   3.462   6.313  10.872  0.1975 -0.0957 -0.0913
  185SAPI   O1121171   3.668   6.182  10.781 -0.3252  0.5036  0.4652
  185SAPI    C121172   3.662   6.237  10.643  0.0564 -0.2697 -0.6280
  185SAPI    HA21173   3.671   6.153  10.571  1.4711 -0.0014 -0.7822
  185SAPI    HB21174   3.560   6.278  10.625  0.4118  1.2770  0.7081
  185SAPI    C221175   3.765   6.342  10.604 -0.2539 -0.0691 -0.7950
  185SAPI    HS21176   3.749   6.431  10.669  3.2955 -0.0983  0.3442
  185SAPI   O2121177   3.753   6.375  10.463 -0.0516  0.0100 -0.5473
  185SAPI   C2121178   3.660   6.464  10.430  0.0041  0.0214 -0.1824
  185SAPI   O2221179   3.579   6.516  10.501  0.0398  0.0981 -0.7182
  185SAPI   C2221180   3.660   6.481  10.281  0.1321  0.3477  0.4127
  185SAPI   H2R21181   3.637   6.380  10.241  0.2286 -0.5119  2.4147
  185SAPI   H2S21182   3.575   6.551  10.263 -0.1066 -0.3134 -1.2212
  185SAPI    C321183   3.906   6.291  10.635  0.0567  0.1451 -0.2326
  185SAPI    HX21184   3.917   6.193  10.585 -2.9033 -0.6680  0.5342
  185SAPI    HY21185   3.910   6.269  10.744  1.5662 -3.4501 -0.8571
  185SAPI   O3121186   4.018   6.370  10.594 -0.0892  0.0168  0.4025
  185SAPI   C3121187   4.050   6.472  10.663  0.2936  0.5443 -0.6293
  185SAPI   O3221188   4.005   6.516  10.767 -0.4858 -0.3743  0.6793
  185SAPI   C3221189   4.154   6.541  10.577  0.4905  0.3484  0.5196
  185SAPI   H2X21190   4.250   6.485  10.574 -0.0851 -0.7066  1.2636
  185SAPI   H2Y21191   4.183   6.633  10.631  2.0744  1.6675 -2.3185
  185SAPI   C2321192   3.798   6.531  10.225  0.2633 -0.4033  0.2354
  185SAPI   H3R21193   3.870   6.482  10.293  1.5520  0.9523 -0.1069
  185SAPI   H3S21194   3.814   6.641  10.231 -0.7163 -0.0331 -2.4254
  185SAPI   C2421195   3.824   6.467  10.088  0.0020 -0.1955  0.7852
  185SAPI   H4R21196   3.815   6.358  10.108 -1.5819 -0.6075 -1.8100
  185SAPI   H4S21197   3.929   6.493  10.063  0.0541 -0.1734  1.0161
  185SAPI   C2521198   3.724   6.513   9.981  0.4952 -0.7389 -0.5598
  185SAPI   H5R21199   3.628   6.540  10.026  1.7565  0.6056  1.5355
  185SAPI   C2621200   3.749   6.518   9.847  0.1682 -0.2746 -0.3258
  185SAPI   H6R21201   3.663   6.556   9.790  1.2273 -0.9449 -2.5068
  185SAPI   C2721202   3.880   6.493   9.777  0.2781  0.8338 -0.3195
  185SAPI   H7R21203   3.963   6.488   9.851 -0.7225  0.9421  0.8447
  185SAPI   H7S21204   3.897   6.579   9.709  1.5452  0.1062 -0.9641
  185SAPI   C2821205   3.874   6.365   9.696  0.2171 -0.3177  0.3590
  185SAPI   H8R21206   3.854   6.271   9.750 -0.8110 -0.9293 -1.0470
  185SAPI   C2921207   3.897   6.346   9.564 -0.2872 -0.3865  0.0698
  185SAPI   H9R21208   3.904   6.242   9.531  1.5150 -0.6286  1.0794
  185SAPI  C21021209   3.942   6.461   9.461 -0.4722  0.6337  0.5738
  185SAPI  H10R21210   4.050   6.453   9.440 -1.0041  0.8068 -2.7005
  185SAPI  H10S21211   3.929   6.561   9.509 -0.4584  0.1713  1.5589
  185SAPI  C21121212   3.865   6.453   9.329 -0.3455  0.4403 -0.1249
  185SAPI  H11R21213   3.756   6.437   9.338 -0.3927  0.5751 -0.4536
  185SAPI  C21221214   3.907   6.468   9.205  1.0818  0.9226  0.0445
  185SAPI  H12R21215   3.835   6.446   9.125  1.1863 -0.8776  0.4177
  185SAPI  C21321216   4.047   6.493   9.165  0.4105  0.4026  0.9030
  185SAPI  H13R21217   4.099   6.395   9.175 -0.6208 -0.1566  0.8709
  185SAPI  H13S21218   4.104   6.557   9.235 -0.5669  0.2270  1.8901
  185SAPI  C21421219   4.080   6.543   9.025  0.1952 -0.0333 -0.2910
  185SAPI  H14R21220   4.016   6.625   8.987 -0.8711 -1.5034 -1.8678
  185SAPI  C21521221   4.170   6.496   8.934  0.1514  0.0432 -0.0695
  185SAPI  H15R21222   4.179   6.542   8.835  0.7477 -0.7767 -0.3993
  185SAPI  C21621223   4.266   6.376   8.944  0.1737 -0.7626 -0.0987
  185SAPI  H16R21224   4.288   6.330   8.846  1.6772  1.0507 -0.6765
  185SAPI  H16S21225   4.227   6.297   9.012 -2.0324  2.3750  2.6240
  185SAPI  C21721226   4.396   6.417   9.018 -0.2141  0.6835 -0.8087
  185SAPI  H17R21227   4.379   6.447   9.123 -0.9674 -0.7242 -0.5034
  185SAPI  H17S21228   4.433   6.513   8.975  0.5987  1.1209  0.7823
  185SAPI  C21821229   4.498   6.304   9.016 -0.7646 -0.1350 -0.7516
  185SAPI  H18R21230   4.445   6.212   9.049 -0.7517  0.4687  1.0281
  185SAPI  H18S21231   4.565   6.322   9.103 -1.4469 -0.2614 -0.1931
  185SAPI  C21921232   4.576   6.290   8.888  0.2034 -0.3118 -0.0187
  185SAPI  H19R21233   4.638   6.381   8.870  2.3595 -1.3988  1.4430
  185SAPI  H19S21234   4.505   6.275   8.805 -0.4835  0.4316  0.4241
  185SAPI  C22021235   4.682   6.182   8.890  0.4386 -0.0575  0.0623
  185SAPI  H20R21236   4.756   6.188   8.972  2.1958 -2.6213 -1.2013
  185SAPI  H20S21237   4.745   6.188   8.799 -0.0580  2.8435 -0.1977
  185SAPI  H20T21238   4.636   6.084   8.913  0.4836 -0.5076 -1.6424
  185SAPI   C3321239   4.111   6.573  10.435  0.0802  0.0302  0.0814
  185SAPI   H3X21240   4.025   6.643  10.434 -0.8021 -1.0282  0.2316
  185SAPI   H3Y21241   4.082   6.479  10.383  2.6572  0.6719 -2.8691
  185SAPI   C3421242   4.233   6.627  10.353 -0.1712 -0.3023 -0.2078
  185SAPI   H4X21243   4.322   6.561  10.352 -1.1804 -1.7197 -1.9428
  185SAPI   H4Y21244   4.265   6.725  10.395 -0.5317 -0.6476  0.9244
  185SAPI   C3521245   4.195   6.642  10.208  0.3318 -0.3897 -0.1402
  185SAPI   H5X21246   4.113   6.716  10.200  0.3650 -0.2976  0.3891
  185SAPI   H5Y21247   4.181   6.541  10.163 -0.1768 -0.3511 -0.0719
  185SAPI   C3621248   4.314   6.706  10.127  0.6604  0.3680  0.3893
  185SAPI   H6X21249   4.402   6.638  10.137  2.3936  2.4417  0.0228
  185SAPI   H6Y21250   4.339   6.796  10.187  1.5234  1.0590 -0.9817
  185SAPI   C3721251   4.297   6.748   9.982 -0.5356 -0.3345 -0.3784
  185SAPI   H7X21252   4.380   6.803   9.931 -1.4348  0.4224 -1.0573
  185SAPI   H7Y21253   4.212   6.820   9.986  1.0339  1.6627 -0.9369
  185SAPI   C3821254   4.286   6.631   9.884  0.2106 -0.1627  0.1436
  185SAPI   H8X21255   4.200   6.566   9.913  0.1753  0.3834  1.3244
  185SAPI   H8Y21256   4.372   6.563   9.901 -0.2084 -0.1226  3.0018
  185SAPI   C3921257   4.278   6.668   9.735  0.6223  0.7947 -0.3725
  185SAPI   H9X21258   4.367   6.730   9.713 -0.4850  2.6861  0.2682
  185SAPI   H9Y21259   4.197   6.743   9.723  0.1133  0.8522  2.6306
  185SAPI  C31021260   4.248   6.551   9.640 -0.8317  0.1009  0.3500
  185SAPI  H10X21261   4.139   6.536   9.650 -0.8079  0.3967  1.1823
  185SAPI  H10Y21262   4.302   6.459   9.671  1.6023  1.1652 -0.4928
  185SAPI  C31121263   4.307   6.592   9.501  0.4963 -0.6291  0.0101
  185SAPI  H11X21264   4.274   6.521   9.422 -2.7517  0.3768  0.3262
  185SAPI  H11Y21265   4.415   6.579   9.520  0.5837  1.9852  1.7157
  185SAPI  C31221266   4.280   6.733   9.454 -0.4874 -0.7807  0.0581
  185SAPI  H12X21267   4.342   6.807   9.508 -0.8978  0.0930 -0.6400
  185SAPI  H12Y21268   4.174   6.764   9.470 -0.2031  0.2261  0.0506
  185SAPI  C31321269   4.312   6.750   9.307 -0.2150  0.0160 -0.6072
  185SAPI  H13X21270   4.257   6.675   9.247 -0.3398 -1.1051  0.8642
  185SAPI  H13Y21271   4.421   6.731   9.294 -0.5501 -2.2889 -0.4546
  185SAPI  C31421272   4.267   6.886   9.249  0.6682 -0.7345 -0.0488
  185SAPI  H14X21273   4.301   6.950   9.333 -1.5160 -0.8197  0.9760
  185SAPI  H14Y21274   4.157   6.891   9.237  0.7057  1.8514  0.0511
  185SAPI  C31521275   4.341   6.925   9.117 -0.1514 -0.2041 -0.2526
  185SAPI  H15X21276   4.450   6.916   9.136 -0.0455  0.7189 -0.3936
  185SAPI  H15Y21277   4.332   7.028   9.076 -1.9341 -0.8604 -1.6468
  185SAPI  C31621278   4.301   6.830   9.002 -0.6751  1.0641 -0.4360
  185SAPI  H16X21279   4.198   6.853   8.966 -0.5621  2.6308  0.1336
  185SAPI  H16Y21280   4.291   6.722   9.027  0.4433  0.5530 -2.0778
  185SAPI  C31721281   4.392   6.834   8.886  0.5870 -0.0582  0.0702
  185SAPI  H17X21282   4.361   6.751   8.820  0.8521 -0.9374  1.0341
  185SAPI  H17Y21283   4.494   6.808   8.922  1.1810 -0.3930 -1.7501
  185SAPI  C31821284   4.396   6.968   8.813 -0.0964 -0.4747  0.4460
  185SAPI  H18X21285   4.305   6.971   8.749 -0.7808 -0.3939  1.3993
  185SAPI  H18Y21286   4.490   6.965   8.755  0.5256  1.9638  1.2091
  185SAPI  H18Z21287   4.405   7.055   8.882 -0.8142 -1.1908  1.4846
  186SAPI   C1221288   0.803   5.408  10.965 -0.5157 -0.2802 -0.1457
  186SAPI    H221289   0.863   5.464  11.040  0.4373 -2.4313  0.8065
  186SAPI    O221290   0.881   5.388  10.850  0.2398 -0.5207  0.9304
  186SAPI   HO221291   0.877   5.474  10.807  1.3088  0.9892  3.6078
  186SAPI   C1321292   0.756   5.282  11.037  0.0992 -0.5003 -0.7310
  186SAPI    H321293   0.683   5.316  11.113  0.6845 -0.3910 -0.2056
  186SAPI    O321294   0.863   5.204  11.098  0.5908 -0.8402  0.2698
  186SAPI   HO321295   0.877   5.240  11.186  1.9683 -0.4445 -0.0827
  186SAPI   C1421296   0.676   5.197  10.933  0.3570  0.4024 -0.7719
  186SAPI    H421297   0.746   5.180  10.849  0.6203 -0.4884 -0.3813
  186SAPI    O421298   0.638   5.064  10.983 -0.1459  0.1785 -0.0000
  186SAPI   HO421299   0.690   4.996  10.940 -2.5534 -1.8175  0.0802
  186SAPI   C1521300   0.554   5.274  10.891 -0.0308 -0.7982  0.6662
  186SAPI    H521301   0.479   5.290  10.972 -2.5075 -0.9998 -1.4480
  186SAPI    O521302   0.481   5.197  10.794  0.4633  0.0185 -0.4877
  186SAPI   HO521303   0.387   5.213  10.802 -0.1209 -2.1175 -2.1581
  186SAPI   C1621304   0.597   5.404  10.832 -0.0481 -0.1567 -0.2235
  186SAPI    H621305   0.653   5.395  10.736  1.4459  1.3911  0.4579
  186SAPI    O621306   0.482   5.478  10.800 -0.4408 -0.2688  0.3122
  186SAPI   HO621307   0.514   5.565  10.775  2.1788 -0.9079  1.0978
  186SAPI   C1121308   0.676   5.490  10.925  0.3086  0.6883 -0.2157
  186SAPI    H121309   0.632   5.515  11.024  1.9044  1.0736  0.4357
  186SAPI     P21310   0.665   5.753  10.896  0.0958  0.0199  0.1035
  186SAPI   O1321311   0.746   5.854  10.826  0.0046  0.2020  0.0797
  186SAPI   O1421312   0.655   5.756  11.044  0.0550 -0.5675  0.9364
  186SAPI   O1221313   0.728   5.605  10.860 -0.4698  0.0103 -0.5678
  186SAPI   O1121314   0.521   5.740  10.826 -0.3050  0.2803 -0.3280
  186SAPI    C121315   0.448   5.866  10.801  0.3070 -0.3152 -0.5652
  186SAPI    HA21316   0.393   5.906  10.888  3.0151  0.1799  1.0344
  186SAPI    HB21317   0.514   5.952  10.775 -0.2530  0.8784  1.7638
  186SAPI    C221318   0.344   5.853  10.686  0.1749  0.6197  0.3061
  186SAPI    HS21319   0.273   5.776  10.721  1.8469 -0.1125  2.2223
  186SAPI   O2121320   0.415   5.824  10.566 -0.2014  0.1998 -0.8107
  186SAPI   C2121321   0.355   5.732  10.492  0.3312  0.1397 -0.4347
  186SAPI   O2221322   0.263   5.664  10.527 -0.3137 -0.4146 -0.3180
  186SAPI   C2221323   0.431   5.730  10.359  0.9255  0.1836 -0.9705
  186SAPI   H2R21324   0.540   5.723  10.378  0.7328  2.5347  1.7165
  186SAPI   H2S21325   0.385   5.655  10.291 -1.9921  1.4055 -0.4713
  186SAPI    C321326   0.274   5.991  10.665 -0.5291  0.0089 -0.3470
  186SAPI    HX21327   0.360   6.060  10.664 -0.4484 -0.0482 -2.6052
  186SAPI    HY21328   0.210   6.007  10.755 -1.4293 -0.8956 -0.8043
  186SAPI   O3121329   0.209   6.001  10.535 -0.0340  0.1645 -0.1875
  186SAPI   C3121330   0.074   5.963  10.549 -0.2300 -0.1616 -0.3846
  186SAPI   O3221331   0.028   5.924  10.654 -0.4533 -0.4643  0.4973
  186SAPI   C3221332  -0.000   5.965  10.410  0.3276  0.1160  0.5157
  186SAPI   H2X21333   0.051   5.884  10.354  1.0900  0.8728  0.0877
  186SAPI   H2Y21334   0.027   6.062  10.364  0.1335  0.0904  0.3446
  186SAPI   C2321335   0.404   5.865  10.285  0.3298 -0.3529 -1.0502
  186SAPI   H3R21336   0.390   5.948  10.357  1.1507 -0.5136 -0.6913
  186SAPI   H3S21337   0.305   5.843  10.239 -0.4012  0.1269  0.2413
  186SAPI   C2421338   0.515   5.911  10.182 -0.5059  0.7306 -0.0117
  186SAPI   H4R21339   0.609   5.933  10.237 -0.5744 -3.5160  2.1853
  186SAPI   H4S21340   0.470   5.994  10.122 -0.1539 -0.5807 -2.1898
  186SAPI   C2521341   0.552   5.785  10.105 -0.2612  0.5238  0.7523
  186SAPI   H5R21342   0.608   5.710  10.163 -1.7193  1.4562  3.5703
  186SAPI   C2621343   0.514   5.761   9.977 -1.1585  0.1179  0.4140
  186SAPI   H6R21344   0.549   5.669   9.927 -1.2055 -0.3285  1.1867
  186SAPI   C2721345   0.436   5.861   9.895 -0.2344  0.6845 -0.1587
  186SAPI   H7R21346   0.481   5.963   9.901 -0.1121  0.6170  0.0992
  186SAPI   H7S21347   0.337   5.875   9.944 -0.0769  1.6563 -0.0920
  186SAPI   C2821348   0.439   5.823   9.745  0.8541 -0.0136  0.5298
  186SAPI   H8R21349   0.531   5.773   9.709  0.1634 -1.4122  0.6108
  186SAPI   C2921350   0.346   5.844   9.650 -0.3834  0.1251 -0.0985
  186SAPI   H9R21351   0.367   5.808   9.548 -0.7463  0.3208 -0.2431
  186SAPI  C21021352   0.218   5.917   9.669  0.5077  0.3540 -0.1771
  186SAPI  H10R21353   0.228   6.022   9.634  0.8109  0.6549  0.7880
  186SAPI  H10S21354   0.199   5.914   9.778  0.1477  1.0588 -0.2123
  186SAPI  C21121355   0.098   5.851   9.612  0.4355 -0.0923  0.6439
  186SAPI  H11R21356   0.029   5.809   9.687  0.0567  2.5295  1.8770
  186SAPI  C21221357   0.063   5.821   9.485  0.1850 -0.1481  0.0961
  186SAPI  H12R21358  -0.023   5.753   9.475  0.9442 -1.1727  0.3191
  186SAPI  C21321359   0.133   5.855   9.361 -0.1266 -0.2888 -0.3410
  186SAPI  H13R21360   0.224   5.917   9.375 -0.9062  0.5797  1.1481
  186SAPI  H13S21361   0.069   5.928   9.307 -0.8753  0.5485  1.5943
  186SAPI  C21421362   0.169   5.738   9.286  0.0823 -0.2237  0.2059
  186SAPI  H14R21363   0.217   5.666   9.354 -0.2460 -0.3583  0.2960
  186SAPI  C21521364   0.137   5.706   9.157  0.6623  0.0038 -0.1291
  186SAPI  H15R21365   0.170   5.613   9.109 -1.3135 -1.3302  0.9203
  186SAPI  C21621366   0.063   5.792   9.052  0.0438  0.2653 -0.5549
  186SAPI  H16R21367   0.030   5.884   9.104 -0.2738 -0.6071  0.8500
  186SAPI  H16S21368  -0.035   5.749   9.023 -0.3245  0.7844 -0.0951
  186SAPI  C21721369   0.148   5.812   8.932  0.0730 -0.3721  0.0109
  186SAPI  H17R21370   0.248   5.856   8.950 -0.1789  1.9038 -3.1771
  186SAPI  H17S21371   0.100   5.881   8.859  1.1224  1.5290  1.0359
  186SAPI  C21821372   0.177   5.675   8.851 -0.5412  0.8320  0.1816
  186SAPI  H18R21373   0.088   5.609   8.856  0.5657 -0.6333  3.7988
  186SAPI  H18S21374   0.261   5.630   8.908  0.2969  0.3480 -1.3953
  186SAPI  C21921375   0.234   5.694   8.707  0.4638  0.6398 -0.5265
  186SAPI  H19R21376   0.314   5.769   8.717 -0.3571  1.4475  0.1395
  186SAPI  H19S21377   0.149   5.742   8.653  0.5215  0.0253 -1.1834
  186SAPI  C22021378   0.273   5.567   8.627  0.5961 -0.3277 -0.0418
  186SAPI  H20R21379   0.303   5.484   8.695 -1.2280  0.5243  1.9161
  186SAPI  H20S21380   0.350   5.598   8.554 -0.1091  0.8108 -0.3201
  186SAPI  H20T21381   0.190   5.519   8.570  0.8303 -2.1918  1.0763
  186SAPI   C3321382  -0.155   5.935  10.424 -0.2113 -0.3521 -0.0379
  186SAPI   H3X21383  -0.200   6.018  10.483 -0.8454 -0.5172 -0.2796
  186SAPI   H3Y21384  -0.162   5.845  10.488 -1.1962  0.6057  1.2454
  186SAPI   C3421385  -0.227   5.938  10.285  0.4197  0.3999  0.1557
  186SAPI   H4X21386  -0.187   5.860  10.218 -1.4299  0.5550 -1.2104
  186SAPI   H4Y21387  -0.207   6.041  10.248  0.3403  0.2379 -0.3407
  186SAPI   C3521388  -0.380   5.916  10.289  0.3883 -0.2565  1.0018
  186SAPI   H5X21389  -0.431   5.985  10.358  0.5260 -0.1829  1.0301
  186SAPI   H5Y21390  -0.393   5.810  10.321 -0.1268 -0.5613 -0.1415
  186SAPI   C3621391  -0.447   5.930  10.149 -0.4107  0.8369  0.3028
  186SAPI   H6X21392  -0.553   5.914  10.176 -0.7829  2.9600  0.2414
  186SAPI   H6Y21393  -0.405   5.848  10.087 -0.3170  1.5281 -0.5694
  186SAPI   C3721394  -0.420   6.056  10.076 -1.0197 -0.2858  0.1822
  186SAPI   H7X21395  -0.313   6.050  10.044 -1.2620 -0.2257 -0.6604
  186SAPI   H7Y21396  -0.406   6.144  10.143 -0.1929 -0.7930  0.6933
  186SAPI   C3821397  -0.505   6.081   9.953  1.1106  0.3922 -0.1884
  186SAPI   H8X21398  -0.612   6.076   9.982  1.0993 -1.6475 -0.4146
  186SAPI   H8Y21399  -0.489   5.997   9.882  0.6014 -1.6086  1.9055
  186SAPI   C3921400  -0.464   6.202   9.875  0.0389 -0.4493  0.4761
  186SAPI   H9X21401  -0.354   6.211   9.872  0.0086 -0.3331 -0.8812
  186SAPI   H9Y21402  -0.507   6.287   9.932 -0.9223 -1.9599  2.1053
  186SAPI  C31021403  -0.501   6.218   9.725  0.1299  0.0680  1.1692
  186SAPI  H10X21404  -0.609   6.193   9.720  0.7998 -3.3035 -2.5486
  186SAPI  H10Y21405  -0.442   6.142   9.668 -0.3069  0.2839  0.4079
  186SAPI  C31121406  -0.483   6.357   9.657  0.1471 -0.2483 -0.3036
  186SAPI  H11X21407  -0.378   6.393   9.653  1.0344 -2.7671 -1.4788
  186SAPI  H11Y21408  -0.537   6.432   9.720  1.2481 -0.1871  0.6056
  186SAPI  C31221409  -0.522   6.362   9.514  0.0854  0.5073 -0.6142
  186SAPI  H12X21410  -0.629   6.334   9.508  0.5550 -2.3397  1.6528
  186SAPI  H12Y21411  -0.461   6.305   9.441 -2.0640  0.6475 -2.6299
  186SAPI  C31321412  -0.524   6.511   9.462 -0.3558 -0.5141 -0.1435
  186SAPI  H13X21413  -0.429   6.566   9.482  0.9071 -1.2551 -3.4012
  186SAPI  H13Y21414  -0.608   6.560   9.515  0.5421 -0.9972  1.8392
  186SAPI  C31421415  -0.533   6.518   9.309  0.3647 -0.4437 -0.1326
  186SAPI  H14X21416  -0.621   6.460   9.274  0.5242 -0.3198 -0.7492
  186SAPI  H14Y21417  -0.446   6.460   9.272  0.3397 -0.1094 -0.7220
  186SAPI  C31521418  -0.537   6.657   9.238  0.4918  0.2351 -0.1852
  186SAPI  H15X21419  -0.449   6.722   9.258  2.7711 -1.8808 -2.5883
  186SAPI  H15Y21420  -0.637   6.695   9.269  0.1074  0.2165 -1.3239
  186SAPI  C31621421  -0.528   6.640   9.088  0.5483  0.0470 -0.2757
  186SAPI  H16X21422  -0.628   6.614   9.047  0.9043 -0.3856 -0.8864
  186SAPI  H16Y21423  -0.462   6.558   9.053  0.6129  0.0682 -0.2030
  186SAPI  C31721424  -0.479   6.770   9.007  0.3724  0.1538  0.2140
  186SAPI  H17X21425  -0.486   6.758   8.897 -0.8047  3.5132 -0.1973
  186SAPI  H17Y21426  -0.373   6.785   9.036 -0.6542  1.6946  3.7913
  186SAPI  C31821427  -0.532   6.902   9.057  0.1544 -0.3597  0.3146
  186SAPI  H18X21428  -0.465   6.988   9.036  0.3253 -0.8511 -1.2783
  186SAPI  H18Y21429  -0.551   6.902   9.167 -2.3844 -0.6788 -0.0601
  186SAPI  H18Z21430  -0.633   6.925   9.018  0.5928  1.3531  0.0979
  187SAPI   C1221431   2.187   1.455   6.188 -0.3626 -0.4547  0.5750
  187SAPI    H221432   2.271   1.385   6.208  0.4122  0.4612  0.5609
  187SAPI    O221433   2.224   1.537   6.075  1.0128  0.1575  0.2938
  187SAPI   HO221434   2.313   1.565   6.097  1.9098 -1.1260 -1.4764
  187SAPI   C1321435   2.056   1.376   6.165 -0.4997 -0.0806 -0.3392
  187SAPI    H321436   2.044   1.312   6.255 -0.0454  2.4171  1.5811
  187SAPI    O321437   2.066   1.291   6.051  0.5784  0.0967  0.7370
  187SAPI   HO321438   2.113   1.348   5.990  0.9445 -1.3558 -0.4165
  187SAPI   C1421439   1.943   1.473   6.160 -0.4467  0.0849  0.0225
  187SAPI    H421440   1.949   1.541   6.072  0.2056 -1.6247 -1.3052
  187SAPI    O421441   1.815   1.415   6.140  0.3107  0.9546  0.0564
  187SAPI   HO421442   1.767   1.452   6.066 -0.5964 -0.1389  0.0802
  187SAPI   C1521443   1.934   1.561   6.284  0.1557 -0.5801 -0.4142
  187SAPI    H521444   1.934   1.494   6.373  0.4622 -1.8105 -1.3031
  187SAPI    O521445   1.821   1.648   6.281 -0.3059  0.3025  0.9097
  187SAPI   HO521446   1.777   1.662   6.365  1.3329  0.9650  1.6927
  187SAPI   C1621447   2.062   1.644   6.297  0.4931 -0.4957 -0.3988
  187SAPI    H621448   2.069   1.718   6.214 -1.5026  0.6096  0.3606
  187SAPI    O621449   2.069   1.716   6.419 -0.3351 -0.6633  0.2330
  187SAPI   HO621450   2.161   1.717   6.445 -0.1646  1.6977 -0.3150
  187SAPI   C1121451   2.173   1.549   6.303 -0.8710 -0.1988  0.2651
  187SAPI    H121452   2.148   1.494   6.396  0.8850 -0.0487  0.8665
  187SAPI     P21453   2.426   1.555   6.421 -0.2495 -0.1022 -0.0107
  187SAPI   O1321454   2.552   1.629   6.408  0.3693 -0.5132  0.4561
  187SAPI   O1421455   2.427   1.410   6.412  0.2930  0.9860  0.1650
  187SAPI   O1221456   2.305   1.612   6.326 -0.3463  0.5955 -0.6317
  187SAPI   O1121457   2.368   1.596   6.561  0.4602 -0.0190 -0.3442
  187SAPI    C121458   2.364   1.730   6.610 -0.5154  0.0123  0.0301
  187SAPI    HA21459   2.345   1.811   6.536 -1.1305  0.9458  1.1720
  187SAPI    HB21460   2.282   1.740   6.685  1.1525 -0.7544  2.0730
  187SAPI    C221461   2.493   1.769   6.690  0.1685 -0.2972 -0.6489
  187SAPI    HS21462   2.566   1.787   6.608  3.5831 -2.5125  1.6202
  187SAPI   O2121463   2.521   1.654   6.769  0.5565  0.4411 -0.0282
  187SAPI   C2121464   2.634   1.651   6.827 -0.1834  0.0592  0.7480
  187SAPI   O2221465   2.720   1.735   6.825  0.1356 -0.3024 -0.2168
  187SAPI   C2221466   2.649   1.512   6.884 -0.1409 -0.3726 -0.1525
  187SAPI   H2R21467   2.550   1.468   6.907 -1.3392  1.7728 -0.8389
  187SAPI   H2S21468   2.690   1.443   6.808 -0.7298 -1.5200  0.5520
  187SAPI    C321469   2.478   1.902   6.767  0.0114 -0.6926 -0.5174
  187SAPI    HX21470   2.437   1.986   6.707 -1.4602  2.2413  4.0027
  187SAPI    HY21471   2.580   1.921   6.807  0.1440 -0.6806 -0.8625
  187SAPI   O3121472   2.391   1.883   6.888  0.6281 -0.1115  0.0724
  187SAPI   C3121473   2.402   1.975   6.976  0.1546 -0.0098 -0.2353
  187SAPI   O3221474   2.462   2.081   6.959  0.2063 -0.1476  1.0560
  187SAPI   C3221475   2.354   1.934   7.116 -0.2937 -0.2023  0.5600
  187SAPI   H2X21476   2.354   1.823   7.116  1.2110 -0.3882 -3.8783
  187SAPI   H2Y21477   2.252   1.975   7.136  0.0931  0.3460  1.4746
  187SAPI   C2321478   2.744   1.512   7.010 -0.0399  0.1477  0.2222
  187SAPI   H3R21479   2.845   1.541   6.976 -0.9291  0.0692 -2.6971
  187SAPI   H3S21480   2.753   1.407   7.047 -0.2716  0.4228  1.0930
  187SAPI   C2421481   2.694   1.588   7.136  0.1728  0.0078 -0.3700
  187SAPI   H4R21482   2.597   1.550   7.174  0.5904  0.4518  1.1874
  187SAPI   H4S21483   2.669   1.690   7.101 -2.1264 -1.3284 -3.0280
  187SAPI   C2521484   2.799   1.603   7.235 -0.3293 -0.1154  0.2254
  187SAPI   H5R21485   2.893   1.642   7.193  0.5438 -1.0919  1.1955
  187SAPI   C2621486   2.789   1.581   7.369 -0.4949 -0.1055  0.6567
  187SAPI   H6R21487   2.876   1.593   7.435  0.0954  2.1928 -0.4466
  187SAPI   C2721488   2.666   1.530   7.444  0.1505 -0.2687 -0.0201
  187SAPI   H7R21489   2.574   1.514   7.383  0.1330 -0.3933  0.0374
  187SAPI   H7S21490   2.623   1.600   7.518 -2.6056 -1.3447 -0.4572
  187SAPI   C2821491   2.696   1.407   7.521 -0.5204  0.2766 -0.2738
  187SAPI   H8R21492   2.711   1.320   7.455 -3.6593 -0.4968 -0.1454
  187SAPI   C2921493   2.690   1.376   7.651 -0.4054 -0.5915  0.4726
  187SAPI   H9R21494   2.695   1.270   7.677 -1.5471 -1.6253 -3.0082
  187SAPI  C21021495   2.655   1.469   7.764  0.0871  0.2289 -0.4115
  187SAPI  H10R21496   2.545   1.470   7.780 -0.2409 -0.7824 -2.3495
  187SAPI  H10S21497   2.680   1.576   7.753 -1.5906  0.4878 -2.2939
  187SAPI  C21121498   2.738   1.435   7.886 -0.2552 -0.2510  0.2193
  187SAPI  H11R21499   2.847   1.439   7.870 -0.7114  1.2463 -3.5821
  187SAPI  C21221500   2.700   1.403   8.011 -0.0852  0.1984  0.6634
  187SAPI  H12R21501   2.777   1.370   8.083 -0.4942  1.2385  1.6113
  187SAPI  C21321502   2.554   1.404   8.058 -0.2949  0.5549 -0.4086
  187SAPI  H13R21503   2.473   1.422   7.985 -0.1944  2.5118 -0.0809
  187SAPI  H13S21504   2.543   1.484   8.135  0.5136 -1.8859  2.4317
  187SAPI  C21421505   2.530   1.279   8.130 -0.3916 -0.1050 -0.3261
  187SAPI  H14R21506   2.489   1.208   8.057  1.5140  1.1087 -2.7222
  187SAPI  C21521507   2.549   1.259   8.260  0.2211  0.4315 -0.1075
  187SAPI  H15R21508   2.524   1.165   8.311  0.4606  1.3009  1.6810
  187SAPI  C21621509   2.609   1.355   8.360 -0.8398  0.1230 -0.6366
  187SAPI  H16R21510   2.546   1.404   8.437  1.2069  3.0662 -0.6676
  187SAPI  H16S21511   2.651   1.441   8.304 -1.1505 -0.1695 -1.3375
  187SAPI  C21721512   2.726   1.279   8.426 -0.2931 -0.3715 -0.3342
  187SAPI  H17R21513   2.795   1.239   8.348 -0.1869  0.4860 -0.6938
  187SAPI  H17S21514   2.681   1.198   8.485 -3.2647 -0.5266 -2.5925
  187SAPI  C21821515   2.803   1.372   8.510 -0.4450 -0.2841  0.0320
  187SAPI  H18R21516   2.733   1.416   8.585  1.0578  1.8461  0.2468
  187SAPI  H18S21517   2.839   1.456   8.447  2.1743 -0.6350  0.9491
  187SAPI  C21921518   2.931   1.314   8.579 -0.0435  0.5091 -0.3861
  187SAPI  H19R21519   2.974   1.264   8.490 -0.7758 -3.4768  1.2936
  187SAPI  H19S21520   2.912   1.233   8.652 -1.4355 -0.8343 -2.1374
  187SAPI  C22021521   3.020   1.417   8.644 -0.4476 -0.4010 -0.1889
  187SAPI  H20R21522   2.983   1.456   8.741  2.1393 -0.5224  0.9235
  187SAPI  H20S21523   3.021   1.504   8.575  2.5492  0.1218  0.3702
  187SAPI  H20T21524   3.121   1.371   8.651 -0.1786  0.3431  1.0352
  187SAPI   C3321525   2.466   1.970   7.220  0.2594  1.0780 -0.0710
  187SAPI   H3X21526   2.477   2.080   7.213  2.9014  0.7627 -2.1410
  187SAPI   H3Y21527   2.567   1.932   7.194 -0.0336 -1.0780  1.6035
  187SAPI   C3421528   2.424   1.906   7.358  0.9619 -0.4029  0.1319
  187SAPI   H4X21529   2.425   1.795   7.354 -0.3132 -0.4917  1.4633
  187SAPI   H4Y21530   2.324   1.931   7.398  1.5158  3.7034 -0.5502
  187SAPI   C3521531   2.523   1.942   7.470  0.1441 -0.3852  0.2824
  187SAPI   H5X21532   2.538   2.051   7.460 -1.4938 -0.1136  0.4416
  187SAPI   H5Y21533   2.623   1.895   7.463  0.5508  0.5626 -0.6347
  187SAPI   C3621534   2.466   1.913   7.611  0.3297  0.6023  0.1594
  187SAPI   H6X21535   2.448   1.805   7.628  1.4682  0.4466  0.4204
  187SAPI   H6Y21536   2.369   1.965   7.631  0.3360 -0.2053  2.6293
  187SAPI   C3721537   2.569   1.959   7.710 -1.0473 -0.4806 -0.3263
  187SAPI   H7X21538   2.575   2.067   7.686 -1.7953 -0.4874 -0.5548
  187SAPI   H7Y21539   2.663   1.914   7.671 -2.3525 -2.0954 -1.7017
  187SAPI   C3821540   2.525   1.941   7.861  0.1604  0.1699 -0.2768
  187SAPI   H8X21541   2.456   2.023   7.889  0.1197 -0.5740  1.9963
  187SAPI   H8Y21542   2.611   1.969   7.925  0.6175  2.7983 -1.8910
  187SAPI   C3921543   2.456   1.807   7.892  0.5422  0.7248 -0.1691
  187SAPI   H9X21544   2.509   1.729   7.834  1.1630  0.1352  1.1671
  187SAPI   H9Y21545   2.347   1.809   7.868  0.7115  1.9340 -0.9356
  187SAPI  C31021546   2.468   1.766   8.044  0.2907 -0.3915  0.8173
  187SAPI  H10X21547   2.574   1.776   8.074  0.9858 -1.7074 -1.0190
  187SAPI  H10Y21548   2.432   1.661   8.047 -1.3433  0.1098  0.0068
  187SAPI  C31121549   2.370   1.833   8.129 -0.2449 -0.6536  0.2280
  187SAPI  H11X21550   2.270   1.839   8.081  1.1076 -0.2485 -2.7620
  187SAPI  H11Y21551   2.402   1.938   8.150  0.1405 -1.0986  2.0650
  187SAPI  C31221552   2.352   1.764   8.261 -0.3125 -0.2009 -0.0118
  187SAPI  H12X21553   2.308   1.664   8.241  2.0711 -1.2940 -0.0727
  187SAPI  H12Y21554   2.286   1.825   8.326  0.2817  1.7453 -1.1732
  187SAPI  C31321555   2.486   1.741   8.330  0.2515  0.1897  0.0987
  187SAPI  H13X21556   2.541   1.837   8.316 -0.1349  0.4082  0.0802
  187SAPI  H13Y21557   2.540   1.657   8.281 -1.5309 -1.0308  0.1540
  187SAPI  C31421558   2.475   1.700   8.471  0.1910  0.4560 -0.9377
  187SAPI  H14X21559   2.421   1.603   8.468 -1.3857  1.2145  1.0101
  187SAPI  H14Y21560   2.420   1.781   8.524  3.5046  2.8802 -0.9137
  187SAPI  C31521561   2.606   1.692   8.547 -0.2625  0.2429 -0.6242
  187SAPI  H15X21562   2.654   1.792   8.557 -2.6340  1.3407  0.5478
  187SAPI  H15Y21563   2.678   1.616   8.509 -0.7817 -1.0212  0.8235
  187SAPI  C31621564   2.586   1.651   8.695 -0.0986 -0.4483  0.5799
  187SAPI  H16X21565   2.556   1.545   8.703  0.8190 -0.5884  3.0159
  187SAPI  H16Y21566   2.511   1.715   8.747 -0.6988 -1.0458  0.4601
  187SAPI  C31721567   2.706   1.658   8.783 -0.9301  0.2239 -0.0726
  187SAPI  H17X21568   2.785   1.604   8.727 -0.5268  0.6014  0.1197
  187SAPI  H17Y21569   2.706   1.612   8.884 -1.6642  1.9418  0.7650
  187SAPI  C31821570   2.773   1.792   8.798  0.0550 -0.3854  0.1158
  187SAPI  H18X21571   2.711   1.858   8.862  0.3672 -0.0924  0.1203
  187SAPI  H18Y21572   2.784   1.842   8.699 -2.7683 -1.5254 -0.8996
  187SAPI  H18Z21573   2.876   1.793   8.839  0.8066  3.2888 -1.4161
  188SAPI   C1221574   4.506   3.938   6.456 -0.5039  0.1863 -0.2969
  188SAPI    H221575   4.476   4.037   6.415 -2.4265 -1.0205 -1.9522
  188SAPI    O221576   4.451   3.920   6.584  0.5760 -0.6009 -0.6091
  188SAPI   HO221577   4.527   3.927   6.643 -0.0776 -0.1398  0.2005
  188SAPI   C1321578   4.458   3.831   6.365 -0.1698  0.4623  0.0039
  188SAPI    H321579   4.518   3.833   6.272  0.2220  3.1502  0.2371
  188SAPI    O321580   4.321   3.853   6.325 -0.2239  0.0607 -0.6947
  188SAPI   HO321581   4.270   3.854   6.406  2.3450 -0.0168  1.0244
  188SAPI   C1421582   4.490   3.692   6.421  0.2385  0.5455 -0.1036
  188SAPI    H421583   4.445   3.689   6.523 -0.5172  0.6805 -0.4247
  188SAPI    O421584   4.430   3.587   6.337 -0.0959 -0.4983 -0.2255
  188SAPI   HO421585   4.361   3.534   6.376  0.1578 -0.5221  0.1966
  188SAPI   C1521586   4.649   3.687   6.425 -0.7893 -0.9577 -0.1828
  188SAPI    H521587   4.687   3.698   6.321  0.8673  1.0132  0.5770
  188SAPI    O521588   4.693   3.560   6.473  0.3096  0.0849  0.6863
  188SAPI   HO521589   4.639   3.543   6.551 -0.4675 -0.6691  0.0209
  188SAPI   C1621590   4.708   3.792   6.511 -0.8516  0.0263 -0.5808
  188SAPI    H621591   4.695   3.770   6.619 -0.0528 -0.6582 -0.6145
  188SAPI    O621592   4.849   3.780   6.485 -0.1884 -0.4371 -0.0357
  188SAPI   HO621593   4.893   3.711   6.536  3.5700 -0.8617 -3.3078
  188SAPI   C1121594   4.664   3.925   6.463  0.1110 -0.8644 -0.1574
  188SAPI    H121595   4.695   3.946   6.358  0.2421 -1.7287 -0.2984
  188SAPI     P21596   4.743   4.176   6.502 -0.1046 -0.1763 -0.2749
  188SAPI   O1321597   4.615   4.245   6.466  0.0456  0.1178  0.2386
  188SAPI   O1421598   4.845   4.169   6.393 -0.9338  0.5854  0.4572
  188SAPI   O1221599   4.707   4.024   6.554  0.1131 -0.2337 -0.5730
  188SAPI   O1121600   4.799   4.259   6.618 -0.2023 -0.4654  0.2578
  188SAPI    C121601   4.861   4.189   6.730  0.6518 -0.3381 -0.2513
  188SAPI    HA21602   4.929   4.111   6.690  0.0214 -1.1337  0.2008
  188SAPI    HB21603   4.929   4.262   6.780  1.3553 -1.2287  0.1107
  188SAPI    C221604   4.768   4.140   6.841  0.5147  0.0743  0.4068
  188SAPI    HS21605   4.716   4.049   6.804  0.0153 -0.1438  1.5992
  188SAPI   O2121606   4.673   4.250   6.860 -0.4554  0.3315  0.5748
  188SAPI   C2121607   4.547   4.222   6.872 -0.3206 -0.4716  0.1649
  188SAPI   O2221608   4.496   4.111   6.871 -0.3099 -0.3418 -0.3248
  188SAPI   C2221609   4.468   4.346   6.897  0.6217  0.9742 -0.7440
  188SAPI   H2R21610   4.457   4.408   6.805 -0.1915  0.8274 -0.7450
  188SAPI   H2S21611   4.366   4.308   6.917  0.4171  2.7203  2.0544
  188SAPI    C321612   4.835   4.106   6.972  0.7229 -0.8192 -0.1309
  188SAPI    HX21613   4.749   4.081   7.039 -0.1255  2.2585  0.0539
  188SAPI    HY21614   4.876   4.201   7.011 -2.4887  0.8434 -0.4736
  188SAPI   O3121615   4.945   4.009   6.965 -0.2441 -0.0437  0.0812
  188SAPI   C3121616   4.900   3.880   6.965 -0.1556 -0.7819 -0.0576
  188SAPI   O3221617   4.780   3.854   6.955  0.1461  0.1243 -0.4298
  188SAPI   C3221618   5.010   3.784   6.998 -0.5905 -0.2762 -0.0778
  188SAPI   H2X21619   5.098   3.813   6.936 -1.3763 -0.1376 -1.1537
  188SAPI   H2Y21620   4.981   3.681   6.968  1.3605 -1.1259  0.7285
  188SAPI   C2321621   4.509   4.434   7.017  1.3205  0.6036 -0.2262
  188SAPI   H3R21622   4.435   4.517   7.023  0.5224 -0.1379  0.5126
  188SAPI   H3S21623   4.609   4.479   7.000  0.7120  1.6252 -1.3355
  188SAPI   C2421624   4.512   4.365   7.150 -0.9149  0.6892 -0.3678
  188SAPI   H4R21625   4.589   4.422   7.205  0.7306 -0.0553 -1.8146
  188SAPI   H4S21626   4.540   4.257   7.142 -2.2003  0.3506 -0.5680
  188SAPI   C2521627   4.387   4.370   7.231  0.1182  0.1397 -0.0854
  188SAPI   H5R21628   4.292   4.377   7.176 -0.8994  1.6443  1.7585
  188SAPI   C2621629   4.374   4.368   7.367  0.2427  0.4039  1.0077
  188SAPI   H6R21630   4.276   4.378   7.416  0.5321 -0.6341  1.8548
  188SAPI   C2721631   4.483   4.362   7.471  0.9316  0.0842 -0.2423
  188SAPI   H7R21632   4.576   4.356   7.409  0.8141 -0.0738 -0.4060
  188SAPI   H7S21633   4.487   4.260   7.516 -0.0339  0.4443  0.6783
  188SAPI   C2821634   4.477   4.465   7.579 -0.5061  0.4626 -0.2361
  188SAPI   H8R21635   4.486   4.565   7.533  0.5933  0.5066  0.0545
  188SAPI   C2921636   4.472   4.453   7.710 -0.0823  0.1718  0.7734
  188SAPI   H9R21637   4.464   4.544   7.773  1.7569  0.2108  1.0059
  188SAPI  C21021638   4.454   4.324   7.787  0.0457  0.3672 -0.5515
  188SAPI  H10R21639   4.468   4.229   7.730 -0.4266  0.9876 -1.7285
  188SAPI  H10S21640   4.348   4.339   7.817  0.9627  2.6149  1.9154
  188SAPI  C21121641   4.538   4.323   7.908 -0.3183  1.0714  0.1497
  188SAPI  H11R21642   4.642   4.294   7.885 -0.4469  0.5643  0.1928
  188SAPI  C21221643   4.498   4.345   8.033 -0.8129  0.1300 -0.1188
  188SAPI  H12R21644   4.576   4.332   8.109 -2.1904 -1.7610  1.0504
  188SAPI  C21321645   4.363   4.382   8.081  0.3161 -0.5126 -0.7400
  188SAPI  H13R21646   4.360   4.374   8.192  0.8294  0.1549 -0.6763
  188SAPI  H13S21647   4.286   4.316   8.035  0.4155  0.1092 -1.8372
  188SAPI  C21421648   4.330   4.524   8.051  0.2456 -0.3177 -0.1364
  188SAPI  H14R21649   4.303   4.529   7.945  0.8476  0.4100 -0.2623
  188SAPI  C21521650   4.325   4.637   8.130 -0.2753  1.3806 -0.1298
  188SAPI  H15R21651   4.289   4.732   8.087 -1.9213 -0.0874 -2.2183
  188SAPI  C21621652   4.355   4.644   8.275  0.6474  0.6307 -0.2540
  188SAPI  H16R21653   4.434   4.720   8.287  0.2563  0.8853  0.7668
  188SAPI  H16S21654   4.389   4.547   8.317 -1.2840 -0.2808 -0.6751
  188SAPI  C21721655   4.227   4.701   8.339  0.2154 -0.4469 -0.1747
  188SAPI  H17R21656   4.132   4.647   8.319  0.5006 -1.3175  0.7673
  188SAPI  H17S21657   4.228   4.805   8.301  0.5094 -0.8826 -1.4241
  188SAPI  C21821658   4.244   4.725   8.494  0.1603  0.0398  0.7031
  188SAPI  H18R21659   4.336   4.786   8.507 -0.2891  0.7752  0.4977
  188SAPI  H18S21660   4.263   4.632   8.552  0.0592 -0.6959 -0.4225
  188SAPI  C21921661   4.125   4.803   8.555  0.0101  0.0005  0.1486
  188SAPI  H19R21662   4.035   4.738   8.553  0.7147 -1.1153  1.9910
  188SAPI  H19S21663   4.105   4.889   8.488 -0.8426 -0.0891  0.2767
  188SAPI  C22021664   4.157   4.858   8.693 -0.7210 -0.4822 -0.5782
  188SAPI  H20R21665   4.242   4.930   8.690  0.6857 -1.9575  1.2029
  188SAPI  H20S21666   4.177   4.776   8.764 -0.1969 -0.6176 -0.8831
  188SAPI  H20T21667   4.066   4.904   8.737 -0.5838 -1.8958  1.2962
  188SAPI   C3321668   5.049   3.796   7.150  0.0899 -0.3071  0.6202
  188SAPI   H3X21669   4.959   3.832   7.203 -0.5188  1.3378 -1.4040
  188SAPI   H3Y21670   5.126   3.874   7.165 -0.4424  0.3080  0.1926
  188SAPI   C3421671   5.109   3.674   7.214  0.1780 -1.0660 -0.1269
  188SAPI   H4X21672   5.208   3.643   7.174 -0.3928 -1.3778 -1.3283
  188SAPI   H4Y21673   5.047   3.588   7.182  0.2850 -0.4097 -2.2846
  188SAPI   C3521674   5.135   3.705   7.363 -0.8060  0.1410 -0.6643
  188SAPI   H5X21675   5.048   3.765   7.396 -0.9050  0.1492 -0.9329
  188SAPI   H5Y21676   5.228   3.764   7.377 -0.7232 -0.0612 -0.3656
  188SAPI   C3621677   5.136   3.584   7.456  0.2004 -0.0767  0.1815
  188SAPI   H6X21678   5.208   3.511   7.413 -2.5730 -1.7492 -2.0353
  188SAPI   H6Y21679   5.039   3.530   7.466 -0.4477  0.4927 -2.1633
  188SAPI   C3721680   5.202   3.621   7.587  0.4313 -0.7549  0.2147
  188SAPI   H7X21681   5.302   3.668   7.569  0.5112 -1.1468 -0.3771
  188SAPI   H7Y21682   5.216   3.527   7.644  0.2721 -2.0438 -1.7993
  188SAPI   C3821683   5.127   3.716   7.683 -0.1901 -0.1424  0.7380
  188SAPI   H8X21684   5.021   3.683   7.685  0.1657 -1.3575  0.5398
  188SAPI   H8Y21685   5.118   3.818   7.641  0.1682 -0.4861 -0.2042
  188SAPI   C3921686   5.183   3.723   7.822  0.1165 -0.0068 -0.8056
  188SAPI   H9X21687   5.267   3.796   7.822 -1.4689  1.9101 -1.0607
  188SAPI   H9Y21688   5.230   3.629   7.857 -1.1660 -0.6360 -0.7197
  188SAPI  C31021689   5.082   3.772   7.929 -0.3061  0.1632  0.1797
  188SAPI  H10X21690   4.985   3.717   7.928  0.0094 -0.3876 -0.8611
  188SAPI  H10Y21691   5.072   3.882   7.933 -1.5622  0.0826 -0.1184
  188SAPI  C31121692   5.134   3.739   8.071  0.0644  0.2900  0.1952
  188SAPI  H11X21693   5.063   3.791   8.138  0.6770  1.7865 -0.2753
  188SAPI  H11Y21694   5.234   3.788   8.076  0.8015 -0.9408 -1.3079
  188SAPI  C31221695   5.129   3.595   8.111  0.5538 -0.3572  0.0869
  188SAPI  H12X21696   5.199   3.533   8.051  1.3651  2.6160 -2.2906
  188SAPI  H12Y21697   5.027   3.552   8.094  0.8575 -0.2726 -2.2750
  188SAPI  C31321698   5.152   3.585   8.265 -0.6743 -0.7851 -0.0336
  188SAPI  H13X21699   5.079   3.651   8.316 -0.7379 -1.2879  0.5395
  188SAPI  H13Y21700   5.250   3.637   8.277 -1.1768 -0.2516  2.0679
  188SAPI  C31421701   5.138   3.440   8.315 -0.1632 -0.5169  0.6630
  188SAPI  H14X21702   5.205   3.364   8.269  0.7755 -0.2393  1.5396
  188SAPI  H14Y21703   5.032   3.409   8.297 -0.1056  0.1406 -1.0183
  188SAPI  C31521704   5.160   3.430   8.462  0.2931  0.9796  0.3521
  188SAPI  H15X21705   5.081   3.492   8.511 -0.8954  0.5503 -0.9576
  188SAPI  H15Y21706   5.263   3.469   8.478  0.3563  0.6371  0.7751
  188SAPI  C31621707   5.168   3.285   8.514  1.0687 -0.1462 -0.3820
  188SAPI  H16X21708   5.211   3.230   8.428 -0.2947 -0.8298 -0.6596
  188SAPI  H16Y21709   5.068   3.235   8.522  0.9395 -1.0051 -4.9546
  188SAPI  C31721710   5.247   3.260   8.642 -0.4046 -0.5156 -0.0067
  188SAPI  H17X21711   5.213   3.161   8.678 -1.0414  0.3835  2.0510
  188SAPI  H17Y21712   5.227   3.342   8.715  3.4961  0.2423  0.4425
  188SAPI  C31821713   5.398   3.257   8.618  0.0793 -0.3941 -0.0876
  188SAPI  H18X21714   5.424   3.211   8.520  2.0886 -0.4795  0.4358
  188SAPI  H18Y21715   5.452   3.199   8.696  0.7241  1.6351  1.0503
  188SAPI  H18Z21716   5.431   3.363   8.620 -1.5615  0.1563 -0.7708
  189POPC     N21717   5.276   5.142  11.391 -0.4009  0.0222  0.3735
  189POPC   C1221718   5.192   5.217  11.281  0.7027  0.0960  0.5164
  189POPC  H12A21719   5.262   5.243  11.203  2.2176 -0.0494  1.7760
  189POPC  H12B21720   5.149   5.305  11.327 -1.3335 -1.8597  2.6189
  189POPC   C1321721   5.384   5.225  11.455  0.2064 -0.3914 -0.2149
  189POPC  H13A21722   5.341   5.314  11.500  2.0439 -0.1704  1.2075
  189POPC  H13B21723   5.432   5.170  11.534 -0.1429 -0.0364  0.2512
  189POPC  H13C21724   5.459   5.250  11.382 -0.0727  1.2628  0.0265
  189POPC   C1421725   5.182   5.105  11.501 -0.0433 -0.1303  0.0974
  189POPC  H14A21726   5.234   5.052  11.579 -2.2199 -0.0059  1.7400
  189POPC  H14B21727   5.122   5.180  11.550  0.3612 -0.9923  2.0510
  189POPC  H14C21728   5.106   5.036  11.468  0.2779 -0.7093  0.5606
  189POPC   C1521729   5.334   5.023  11.335  0.3212  1.1864 -0.4668
  189POPC  H15A21730   5.256   4.954  11.306  3.0579 -2.6705  0.5071
  189POPC  H15B21731   5.400   4.970  11.403 -1.0915 -0.4855 -0.3291
  189POPC  H15C21732   5.388   5.024  11.241 -0.7630 -1.1502 -1.1914
  189POPC   C1121733   5.081   5.134  11.203  0.5146  0.0957  0.1279
  189POPC  H11A21734   5.023   5.214  11.153 -2.2060 -0.3269  2.3183
  189POPC  H11B21735   5.016   5.093  11.283  1.2628 -0.9697  0.2040
  189POPC     P21736   5.204   5.062  10.983 -0.2168 -0.0095 -0.2029
  189POPC   O1321737   5.293   4.952  10.950 -0.4796  0.4589  0.0484
  189POPC   O1421738   5.273   5.195  10.985 -0.8320  0.6034  0.1276
  189POPC   O1221739   5.136   5.031  11.119 -0.2556 -0.2003  0.2522
  189POPC   O1121740   5.088   5.063  10.876  0.0811 -0.9185 -0.5784
  189POPC    C121741   4.995   4.956  10.860 -0.1942 -0.4691 -0.2617
  189POPC    HA21742   4.902   4.957  10.921 -0.8237  0.5640 -1.1978
  189POPC    HB21743   5.040   4.858  10.889 -0.2277 -0.1830  0.8081
  189POPC    C221744   4.955   4.943  10.714 -0.1718  0.7227 -0.3153
  189POPC    HS21745   5.034   4.885  10.662  0.6456  1.0329  0.5519
  189POPC   O2121746   4.938   5.067  10.650  0.1693  0.2937 -0.3002
  189POPC   C2121747   5.032   5.109  10.572 -0.0520 -0.3304  0.5904
  189POPC   O2221748   5.130   5.049  10.532  0.1528 -0.3158 -0.7149
  189POPC   C2221749   5.004   5.254  10.528  0.8251 -0.4053 -0.6282
  189POPC   H2R21750   5.065   5.322  10.591 -0.9230  2.0000 -1.4171
  189POPC   H2S21751   4.898   5.286  10.538  0.6704  0.3476 -3.5728
  189POPC    C321752   4.826   4.851  10.704 -0.6759 -0.3291 -0.6705
  189POPC    HX21753   4.738   4.902  10.749 -0.8259 -0.8023 -0.4235
  189POPC    HY21754   4.838   4.766  10.775  0.9113  1.4066  1.2586
  189POPC   O3121755   4.808   4.796  10.577  0.4728 -0.2814 -0.7285
  189POPC   C3121756   4.709   4.843  10.511  0.3307  0.3593 -0.3290
  189POPC   O3221757   4.633   4.931  10.551 -0.1973  0.5469 -0.1689
  189POPC   C3221758   4.687   4.778  10.374  0.0116 -0.2441  0.2204
  189POPC   H2X21759   4.583   4.739  10.377 -0.3591  0.3542 -2.5357
  189POPC   H2Y21760   4.756   4.691  10.380 -0.4264 -0.5330  1.4130
  189POPC   C2321761   5.035   5.282  10.381  0.7063  0.0897  0.0240
  189POPC   H3R21762   5.138   5.250  10.355  0.3085  0.4474 -2.2053
  189POPC   H3S21763   5.021   5.388  10.350 -1.8302  0.1346  1.0593
  189POPC   C2421764   4.941   5.202  10.279 -0.1954  0.0817  0.0903
  189POPC   H4R21765   4.836   5.196  10.317 -0.6324  1.5411 -0.8289
  189POPC   H4S21766   4.974   5.097  10.265 -0.4616  0.1261 -0.9121
  189POPC   C2521767   4.936   5.275  10.147  0.3792  0.1170 -0.9243
  189POPC   H5R21768   4.931   5.386  10.155  0.1332 -0.0020  1.1183
  189POPC   H5S21769   4.849   5.229  10.096  1.8694 -1.9547 -1.7653
  189POPC   C2621770   5.056   5.240  10.049  0.2314 -0.1527 -0.4408
  189POPC   H6R21771   5.052   5.134  10.018  0.7902 -0.3829  0.2591
  189POPC   H6S21772   5.149   5.255  10.108 -0.5485 -2.5213  1.5556
  189POPC   C2721773   5.056   5.347   9.931 -0.6719  0.1274 -0.3935
  189POPC   H7R21774   5.083   5.445   9.975 -0.1868  0.3635 -1.1901
  189POPC   H7S21775   4.958   5.361   9.882 -0.7961 -0.6553 -0.3860
  189POPC   C2821776   5.153   5.317   9.813  0.0244  0.1638 -0.4438
  189POPC   H8R21777   5.253   5.294   9.855 -0.1319 -0.7927 -0.5827
  189POPC   H8S21778   5.169   5.414   9.760 -0.8775 -0.4647 -1.9454
  189POPC   C2921779   5.103   5.197   9.729 -0.2352  0.0903  0.6057
  189POPC   H9121780   5.075   5.113   9.794  0.6057 -0.9074 -0.3012
  189POPC  C21021781   5.059   5.202   9.597 -0.0341 -0.0736 -0.6121
  189POPC  H10121782   5.026   5.104   9.559  2.0356 -1.4726  0.9578
  189POPC  C21121783   5.056   5.328   9.517  0.2314 -0.3012  0.1234
  189POPC  H11R21784   5.097   5.413   9.574  0.4624 -0.9890  1.0013
  189POPC  H11S21785   4.959   5.363   9.476  1.1912  0.1953 -1.8455
  189POPC  C21221786   5.148   5.299   9.393 -0.0571  0.5495  0.3749
  189POPC  H12R21787   5.248   5.276   9.436  0.1441  2.1636  0.8276
  189POPC  H12S21788   5.156   5.391   9.332 -0.8281 -0.7635 -1.8069
  189POPC  C21321789   5.107   5.179   9.299 -0.3529 -0.5813 -0.0873
  189POPC  H13R21790   5.031   5.210   9.226 -2.8608 -2.4607  1.5439
  189POPC  H13S21791   5.054   5.096   9.352 -0.7630 -0.4180 -0.2435
  189POPC  C21421792   5.223   5.107   9.226 -0.2080  0.7979  0.9763
  189POPC  H14R21793   5.282   5.052   9.302 -1.3348  1.5708  2.4607
  189POPC  H14S21794   5.292   5.186   9.190  0.8645  0.0043  1.2293
  189POPC  C21521795   5.174   5.030   9.095 -0.5076 -0.0783 -1.0833
  189POPC  H15R21796   5.121   5.110   9.041  2.4727  2.4141 -0.6144
  189POPC  H15S21797   5.100   4.952   9.123  0.3082 -0.2106  0.8663
  189POPC  C21621798   5.291   4.974   9.016 -0.5917  0.5904 -0.1562
  189POPC  H16R21799   5.248   4.925   8.926 -0.8537  0.4006  0.0704
  189POPC  H16S21800   5.331   4.891   9.079 -1.9577  0.4877  0.6205
  189POPC  C21721801   5.393   5.080   8.969 -0.1978  1.5715 -0.0432
  189POPC  H17R21802   5.484   5.026   8.934 -1.1117 -0.8739  1.1111
  189POPC  H17S21803   5.428   5.147   9.050  0.8767 -1.1942  1.9444
  189POPC  C21821804   5.340   5.174   8.866 -0.0622 -0.2883  0.1493
  189POPC  H18R21805   5.257   5.133   8.806 -1.2784  0.4976  1.2307
  189POPC  H18S21806   5.413   5.216   8.794 -3.0455  0.8072 -2.4369
  189POPC  H18T21807   5.291   5.256   8.923  1.9230  1.2040 -0.1798
  189POPC   C3321808   4.709   4.870  10.260 -0.1196 -0.7158 -0.9353
  189POPC   H3X21809   4.812   4.913  10.262 -1.0115  1.4915  0.2313
  189POPC   H3Y21810   4.638   4.953  10.277  0.7375 -0.1401 -0.0177
  189POPC   C3421811   4.690   4.805  10.127  0.3373  0.2901  0.1401
  189POPC   H4X21812   4.583   4.776  10.124 -0.1578  1.8391  1.4837
  189POPC   H4Y21813   4.756   4.715  10.126 -0.2844 -0.1737 -0.5396
  189POPC   C3521814   4.725   4.892  10.002 -0.0940 -0.2015  0.4058
  189POPC   H5X21815   4.834   4.912  10.011  0.3606 -1.0604 -2.1653
  189POPC   H5Y21816   4.665   4.984   9.991  0.5089  0.0815 -0.7828
  189POPC   C3621817   4.715   4.812   9.876  0.0211  0.2703  0.1946
  189POPC   H6X21818   4.609   4.786   9.856  0.1582  0.3635 -0.6894
  189POPC   H6Y21819   4.766   4.714   9.892  2.4541  1.4947  0.3468
  189POPC   C3721820   4.759   4.883   9.751 -0.7045 -0.1813  0.2144
  189POPC   H7X21821   4.868   4.866   9.763 -0.6790  0.5713  1.1621
  189POPC   H7Y21822   4.746   4.992   9.767  0.5831  0.7361 -3.6339
  189POPC   C3821823   4.712   4.812   9.615  0.7907  0.5436 -0.6687
  189POPC   H8X21824   4.607   4.837   9.590  0.2281 -1.7349 -0.7991
  189POPC   H8Y21825   4.697   4.703   9.627  0.8999  0.7797  2.0686
  189POPC   C3921826   4.779   4.878   9.488  0.2050  0.1997 -0.9304
  189POPC   H9X21827   4.889   4.868   9.473  0.1016 -0.4904 -1.2623
  189POPC   H9Y21828   4.765   4.987   9.504 -0.4491 -0.0427  0.2486
  189POPC  C31021829   4.715   4.826   9.365 -0.8578 -0.2077  0.1458
  189POPC  H10X21830   4.606   4.822   9.385 -0.6169 -1.6203  1.4233
  189POPC  H10Y21831   4.756   4.723   9.353 -0.7234 -0.3224  1.4409
  189POPC  C31121832   4.729   4.913   9.236  0.1656  0.3356 -0.2970
  189POPC  H11X21833   4.839   4.928   9.227  0.4551 -1.0745  0.4705
  189POPC  H11Y21834   4.675   5.007   9.258 -0.2812 -0.2783  1.3397
  189POPC  C31221835   4.677   4.852   9.104 -0.3097 -0.2914  0.5455
  189POPC  H12X21836   4.708   4.745   9.105  1.6586  0.2445  1.0125
  189POPC  H12Y21837   4.731   4.910   9.026 -1.0783  0.0227  0.2432
  189POPC  C31321838   4.526   4.870   9.093 -0.5881 -0.5544  0.0828
  189POPC  H13X21839   4.506   4.976   9.120  0.3019  0.0048 -1.3512
  189POPC  H13Y21840   4.478   4.808   9.172  0.4085  0.3893  1.4856
  189POPC  C31421841   4.466   4.838   8.958  0.4475 -0.7466 -0.9686
  189POPC  H14X21842   4.356   4.855   8.958  0.1952 -2.1516  0.2710
  189POPC  H14Y21843   4.465   4.730   8.935  1.9898 -0.7638 -1.0592
  189POPC  C31521844   4.527   4.903   8.836  0.0111  0.1475  0.5457
  189POPC  H15X21845   4.487   4.844   8.751  1.7066  3.2815 -2.7342
  189POPC  H15Y21846   4.635   4.876   8.828  0.1487  0.7165  0.4304
  189POPC  C31621847   4.496   5.053   8.827 -0.3799 -0.4255  0.2028
  189POPC  H16X21848   4.530   5.111   8.916 -3.6382 -0.2948  1.5345
  189POPC  H16Y21849   4.387   5.068   8.841 -0.2549 -0.5879  1.5568
  189POPC  H16Z21850   4.527   5.092   8.728 -0.7489  1.1854  0.6808
  190POPC     N21851   0.609   1.014  10.966 -0.2611 -0.1934 -0.0107
  190POPC   C1221852   0.723   1.006  10.865 -0.2239 -0.4521 -0.1820
  190POPC  H12A21853   0.709   1.073  10.781  4.1363  1.2927  0.2475
  190POPC  H12B21854   0.730   0.905  10.828  1.3927  0.0581 -1.3630
  190POPC   C1321855   0.595   1.148  11.036 -0.8011  0.7860 -0.5494
  190POPC  H13A21856   0.595   1.234  10.971  1.0743  1.3064  0.0836
  190POPC  H13B21857   0.519   1.155  11.113  1.4304  0.4172  1.8423
  190POPC  H13C21858   0.686   1.171  11.088 -0.6953 -3.4603  1.5797
  190POPC   C1421859   0.480   0.993  10.897 -0.5157  0.3748  0.2401
  190POPC  H14A21860   0.398   0.978  10.966  0.1042  0.4230  1.0082
  190POPC  H14B21861   0.458   1.070  10.825 -0.9593 -1.8770 -2.1535
  190POPC  H14C21862   0.487   0.909  10.830  0.8859 -0.0709  0.9040
  190POPC   C1521863   0.627   0.901  11.065 -0.0319 -0.0218 -0.2731
  190POPC  H15A21864   0.607   0.805  11.020  0.6246  0.3084 -1.3010
  190POPC  H15B21865   0.564   0.915  11.152 -0.4304  0.2520 -0.6019
  190POPC  H15C21866   0.729   0.892  11.098  0.0185 -1.7223 -0.7833
  190POPC   C1121867   0.857   1.052  10.925 -0.4440 -0.3171 -1.5527
  190POPC  H11A21868   0.862   1.142  10.989  1.8668  0.2094 -2.3736
  190POPC  H11B21869   0.928   1.082  10.845 -1.3818 -0.4999 -2.4781
  190POPC     P21870   1.063   0.936  11.027 -0.8507 -0.2204  0.2709
  190POPC   O1321871   1.080   0.864  11.154  0.1407  0.2379  0.2396
  190POPC   O1421872   1.123   1.066  11.020  0.1757 -0.5517 -0.3800
  190POPC   O1221873   0.908   0.936  10.992 -0.0317 -0.6822 -0.1606
  190POPC   O1121874   1.134   0.850  10.914  0.1114  0.6004  0.2009
  190POPC    C121875   1.068   0.723  10.873 -0.3204 -0.1501  0.0629
  190POPC    HA21876   0.995   0.678  10.943 -0.6866  0.9791  0.4315
  190POPC    HB21877   1.151   0.653  10.850  0.2779  0.0856  1.4456
  190POPC    C221878   0.981   0.739  10.740  0.4663 -1.1824  0.1653
  190POPC    HS21879   0.889   0.796  10.766  2.0149  0.5896  2.1475
  190POPC   O2121880   0.963   0.615  10.677  0.7636  0.6291 -0.9917
  190POPC   C2121881   0.870   0.591  10.591  0.5615  0.4169 -0.1020
  190POPC   O2221882   0.784   0.672  10.559  0.2697  0.0944 -0.0978
  190POPC   C2221883   0.877   0.440  10.557  0.5236  0.0651  0.4354
  190POPC   H2R21884   0.857   0.383  10.650  0.2342 -0.9145 -0.2072
  190POPC   H2S21885   0.982   0.424  10.524  0.0905  0.8833 -1.4747
  190POPC    C321886   1.065   0.830  10.643  1.0212 -0.6664  0.8357
  190POPC    HX21887   1.146   0.767  10.599 -0.1841 -0.7076 -1.4598
  190POPC    HY21888   1.121   0.904  10.705  0.4055 -0.6104  1.3410
  190POPC   O3121889   0.985   0.897  10.538  0.3039  0.5873 -0.0685
  190POPC   C3121890   1.046   0.961  10.446 -0.1166  0.6342  0.0286
  190POPC   O3221891   1.165   0.982  10.434  0.3899  0.2177 -0.1458
  190POPC   C3221892   0.937   0.988  10.341  0.2969  0.3797  0.0302
  190POPC   H2X21893   0.941   1.095  10.312 -0.2300  0.5350  0.5148
  190POPC   H2Y21894   0.838   0.974  10.389  0.3096 -1.0476 -0.2972
  190POPC   C2321895   0.778   0.408  10.443 -0.1343 -0.2341 -0.1734
  190POPC   H3R21896   0.677   0.443  10.471 -0.1864 -0.7565  0.3005
  190POPC   H3S21897   0.773   0.297  10.438  0.5056 -0.2794  0.0566
  190POPC   C2421898   0.811   0.455  10.297  0.0145 -0.3880  0.6668
  190POPC   H4R21899   0.833   0.564  10.298  0.7297 -0.4640 -1.7073
  190POPC   H4S21900   0.720   0.433  10.239  0.7051 -0.0342 -0.5818
  190POPC   C2521901   0.930   0.379  10.231  0.8367  0.5286  0.1200
  190POPC   H5R21902   0.914   0.269  10.236  1.8920  0.3270 -0.5763
  190POPC   H5S21903   1.008   0.406  10.304 -1.6553  1.3214  2.6590
  190POPC   C2621904   0.966   0.437  10.097  0.5958 -0.3165  0.6128
  190POPC   H6R21905   1.074   0.417  10.079  1.2631  0.7857  3.0432
  190POPC   H6S21906   0.972   0.547  10.084 -1.2493 -0.3052 -0.6594
  190POPC   C2721907   0.888   0.380   9.977 -0.1845 -0.7917 -0.0723
  190POPC   H7R21908   0.786   0.408  10.011  0.0371  0.0094 -0.0484
  190POPC   H7S21909   0.903   0.271   9.968  1.3828 -0.6483  0.4371
  190POPC   C2821910   0.919   0.450   9.842  0.1959 -0.2089  0.3007
  190POPC   H8R21911   0.914   0.560   9.858  1.3822  0.0400 -0.9021
  190POPC   H8S21912   0.830   0.412   9.785  1.8244 -0.0975 -2.4918
  190POPC   C2921913   1.050   0.423   9.778  0.7616 -0.8092 -0.0265
  190POPC   H9121914   1.135   0.424   9.847  0.3998  0.2633  0.4089
  190POPC  C21021915   1.068   0.392   9.644 -0.4722 -0.5012 -0.2814
  190POPC  H10121916   1.173   0.378   9.613  0.4523  4.5557 -0.2152
  190POPC  C21121917   0.955   0.385   9.534 -0.5052  0.2565  0.1838
  190POPC  H11R21918   0.969   0.465   9.459  0.7699  0.9434  1.1175
  190POPC  H11S21919   0.854   0.385   9.581 -1.1120  0.3750 -1.0803
  190POPC  C21221920   0.979   0.252   9.456  0.1411  0.4256 -0.2236
  190POPC  H12R21921   0.875   0.235   9.420  0.1598 -1.5510  0.5191
  190POPC  H12S21922   0.998   0.171   9.530  0.5875  2.1453  1.6316
  190POPC  C21321923   1.072   0.275   9.337 -0.0427 -0.0331  0.5457
  190POPC  H13R21924   1.175   0.299   9.371 -0.3071  1.3199  0.4390
  190POPC  H13S21925   1.047   0.364   9.275 -0.2629  0.3993  1.2485
  190POPC  C21421926   1.104   0.149   9.250  0.5647  0.3082 -0.7109
  190POPC  H14R21927   1.003   0.120   9.212 -1.0212  0.3745  3.0086
  190POPC  H14S21928   1.147   0.073   9.319 -1.7519  0.5914  1.1744
  190POPC  C21521929   1.206   0.185   9.134 -0.1462  0.1897 -0.8073
  190POPC  H15R21930   1.278   0.102   9.117 -1.5956 -1.8830  2.2741
  190POPC  H15S21931   1.272   0.265   9.174  1.3868 -1.0558 -0.7144
  190POPC  C21621932   1.130   0.256   9.024 -0.3260 -0.0949  0.1356
  190POPC  H16R21933   1.080   0.352   9.050 -0.6928  0.7398 -3.1501
  190POPC  H16S21934   1.050   0.182   9.003  0.8214 -1.7426  1.3244
  190POPC  C21721935   1.218   0.272   8.900 -0.8263  0.5086  0.4737
  190POPC  H17R21936   1.175   0.314   8.807  4.0322  2.4622 -1.2177
  190POPC  H17S21937   1.256   0.172   8.870  1.0230  1.4662 -0.5296
  190POPC  C21821938   1.337   0.367   8.919  0.5354  0.2290 -0.0593
  190POPC  H18R21939   1.301   0.464   8.959 -0.3900 -1.2571  3.0582
  190POPC  H18S21940   1.390   0.376   8.822  0.9682 -0.5933  0.0877
  190POPC  H18T21941   1.397   0.313   8.995  1.8962 -0.5690 -1.6315
  190POPC   C3321942   0.951   0.886  10.225  0.0780 -0.1418 -0.4152
  190POPC   H3X21943   0.987   0.785  10.256 -2.4802 -0.9453  0.1597
  190POPC   H3Y21944   1.026   0.919  10.149  0.6364 -3.0929 -1.2891
  190POPC   C3421945   0.813   0.877  10.152 -0.4727  0.4947 -0.1143
  190POPC   H4X21946   0.780   0.982  10.135  0.2991  0.9161  0.8639
  190POPC   H4Y21947   0.745   0.828  10.224 -1.6177 -0.7702 -1.9828
  190POPC   C3521948   0.833   0.796  10.022  0.0231  0.4037 -0.2636
  190POPC   H5X21949   0.833   0.691  10.060  1.6526  0.2319 -0.6631
  190POPC   H5Y21950   0.939   0.801   9.988 -0.0598 -0.4409 -0.6572
  190POPC   C3621951   0.728   0.804   9.910 -0.2932  0.3837  0.3248
  190POPC   H6X21952   0.629   0.816   9.957 -0.6472 -1.2291  0.0787
  190POPC   H6Y21953   0.715   0.702   9.866  0.1824 -0.5081  2.1352
  190POPC   C3721954   0.761   0.918   9.809 -0.6309 -0.5715  0.1910
  190POPC   H7X21955   0.830   0.992   9.856 -0.0008  0.4896 -2.2818
  190POPC   H7Y21956   0.667   0.970   9.783  0.1532  0.8139  0.0501
  190POPC   C3821957   0.849   0.862   9.691  0.2685 -0.7441  0.6039
  190POPC   H8X21958   0.909   0.777   9.731  2.0673 -0.2670 -0.9621
  190POPC   H8Y21959   0.915   0.945   9.658 -1.4728 -0.4248 -2.4972
  190POPC   C3921960   0.776   0.787   9.578 -0.0867 -0.5183 -0.4006
  190POPC   H9X21961   0.725   0.696   9.615  0.4617  0.1044  2.0859
  190POPC   H9Y21962   0.850   0.751   9.504 -0.3690 -2.2237  0.1125
  190POPC  C31021963   0.688   0.882   9.496  0.4514  0.7140  0.7494
  190POPC  H10X21964   0.747   0.963   9.450 -0.9723  0.6770 -1.2593
  190POPC  H10Y21965   0.625   0.934   9.571 -0.4347 -0.5276  0.9095
  190POPC  C31121966   0.618   0.813   9.376 -0.7774 -0.1055 -0.0066
  190POPC  H11X21967   0.589   0.708   9.399 -1.8131  0.3624  0.9319
  190POPC  H11Y21968   0.696   0.813   9.297  1.2548 -0.1099  1.9095
  190POPC  C31221969   0.488   0.883   9.324  0.1774  0.2394  0.1871
  190POPC  H12X21970   0.512   0.990   9.305  0.1872  0.5599  1.8945
  190POPC  H12Y21971   0.417   0.888   9.409 -0.0498  0.0486  0.0119
  190POPC  C31321972   0.427   0.834   9.196 -0.2191 -0.2371 -0.1547
  190POPC  H13X21973   0.374   0.740   9.221 -1.5724  1.0736  2.2330
  190POPC  H13Y21974   0.511   0.809   9.127  0.5956  1.3090  0.2244
  190POPC  C31421975   0.330   0.915   9.118  0.2136 -0.7506  0.2368
  190POPC  H14X21976   0.367   1.018   9.096  1.4411 -1.5628 -1.7288
  190POPC  H14Y21977   0.237   0.943   9.172  1.4106  3.2468  0.5744
  190POPC  C31521978   0.303   0.865   8.975  0.0743  0.3302 -0.2769
  190POPC  H15X21979   0.234   0.779   8.986 -1.1333  0.9479 -2.5571
  190POPC  H15Y21980   0.404   0.827   8.946 -0.7465 -1.2650 -1.1705
  190POPC  C31621981   0.244   0.960   8.869  0.2720 -0.2960 -0.1670
  190POPC  H16X21982   0.324   1.034   8.848 -0.8225  0.3144 -2.5290
  190POPC  H16Y21983   0.155   1.011   8.911 -0.1246 -2.0452  1.2421
  190POPC  H16Z21984   0.224   0.912   8.771 -0.4075 -2.5315  0.9995
  191POPC     N21985   1.880   0.908   6.382  0.4981  0.0433 -0.0524
  191POPC   C1221986   1.753   0.877   6.462  0.0822 -0.6627 -0.3248
  191POPC  H12A21987   1.673   0.859   6.392 -1.5093  2.4542  0.5182
  191POPC  H12B21988   1.713   0.963   6.513 -3.1222 -1.1671 -1.7626
  191POPC   C1321989   2.001   0.920   6.474 -0.5619 -0.5976  0.4045
  191POPC  H13A21990   2.006   0.834   6.539  3.4140 -1.1984 -0.4496
  191POPC  H13B21991   2.093   0.932   6.418 -1.0568 -0.4204 -0.3927
  191POPC  H13C21992   2.000   0.999   6.548 -1.7117 -1.2223  1.0811
  191POPC   C1421993   1.900   0.800   6.291 -0.2786 -0.3706  0.5639
  191POPC  H14A21994   1.994   0.792   6.240 -1.0851 -1.4005 -0.8215
  191POPC  H14B21995   1.893   0.708   6.348 -3.5836 -0.8941 -0.4774
  191POPC  H14C21996   1.820   0.796   6.219 -0.0028 -1.0710  0.2825
  191POPC   C1521997   1.877   1.037   6.300 -1.0404 -0.6322 -0.0828
  191POPC  H15A21998   1.820   1.037   6.208  0.0678 -0.8295 -0.7888
  191POPC  H15B21999   1.979   1.060   6.276 -1.3672  2.3092  0.9580
  191POPC  H15C22000   1.853   1.123   6.360  0.5169 -1.5308  1.9481
  191POPC   C1122001   1.762   0.762   6.559  0.3072  0.1807  0.3252
  191POPC  H11A22002   1.662   0.764   6.608 -0.1582  0.6212 -0.6110
  191POPC  H11B22003   1.839   0.767   6.638 -0.8448  2.3916  1.4146
  191POPC     P22004   1.647   0.538   6.459  0.2184  0.2998 -0.2947
  191POPC   O1322005   1.696   0.410   6.404  0.2567  0.5063 -0.2944
  191POPC   O1422006   1.540   0.603   6.380 -0.0521  0.2668  0.0055
  191POPC   O1222007   1.767   0.641   6.476  0.4061  0.1759 -0.2348
  191POPC   O1122008   1.598   0.507   6.606  0.0543 -0.7598  0.2981
  191POPC    C122009   1.676   0.448   6.703 -0.0529 -0.2442 -0.3800
  191POPC    HA22010   1.782   0.438   6.671 -0.3148 -2.2930 -0.7346
  191POPC    HB22011   1.622   0.354   6.726  0.9120 -0.8787 -0.6328
  191POPC    C222012   1.669   0.531   6.836 -0.0396  0.6678 -0.4749
  191POPC    HS22013   1.741   0.615   6.826 -0.2869  1.1816  1.6560
  191POPC   O2122014   1.687   0.453   6.950  0.4581  0.2040 -0.4830
  191POPC   C2122015   1.802   0.394   6.969 -0.4264  0.0663 -0.0244
  191POPC   O2222016   1.902   0.405   6.902  0.0216 -0.2889 -0.0335
  191POPC   C2222017   1.794   0.298   7.093 -0.6587 -0.1239 -0.6155
  191POPC   H2R22018   1.761   0.199   7.055  0.4795 -1.1403  0.9222
  191POPC   H2S22019   1.721   0.340   7.166 -0.9592  0.1412 -1.0607
  191POPC    C322020   1.532   0.608   6.855  0.7624  0.4030 -0.5133
  191POPC    HX22021   1.459   0.528   6.829 -0.8841  1.4034  0.8706
  191POPC    HY22022   1.530   0.687   6.777 -0.9671 -0.1598 -1.0926
  191POPC   O3122023   1.519   0.653   6.986 -0.0985 -0.2155 -0.1788
  191POPC   C3122024   1.453   0.585   7.073 -0.1373  0.2334 -0.1191
  191POPC   O3222025   1.390   0.484   7.049 -0.0321 -0.2908 -0.9274
  191POPC   C3222026   1.471   0.650   7.205 -0.9699 -0.3687 -0.6909
  191POPC   H2X22027   1.391   0.727   7.206 -0.7370 -0.1278 -0.2895
  191POPC   H2Y22028   1.569   0.702   7.202 -0.0472 -1.8315  1.6002
  191POPC   C2322029   1.933   0.286   7.147  0.2241 -0.4855  0.6802
  191POPC   H3R22030   1.989   0.379   7.170  0.8809 -0.0941 -2.1326
  191POPC   H3S22031   1.997   0.244   7.067 -0.6927 -1.2576  0.3323
  191POPC   C2422032   1.932   0.184   7.265  0.3368 -0.8129  0.3767
  191POPC   H4R22033   1.861   0.104   7.236 -1.1277  0.5392  0.0943
  191POPC   H4S22034   1.893   0.235   7.356  1.8549  2.1689 -0.5276
  191POPC   C2522035   2.078   0.146   7.287 -0.4342  0.2224 -0.4857
  191POPC   H5R22036   2.150   0.230   7.282  0.4724 -0.6361 -2.9605
  191POPC   H5S22037   2.106   0.072   7.209 -0.5389 -2.0023  1.4783
  191POPC   C2622038   2.104   0.070   7.421  0.1839 -0.3492 -0.2182
  191POPC   H6R22039   2.030  -0.012   7.416  1.5527 -1.5480 -2.3733
  191POPC   H6S22040   2.072   0.135   7.505 -3.2281 -1.0409 -0.8360
  191POPC   C2722041   2.249   0.027   7.425  0.3821 -0.0457  0.2784
  191POPC   H7R22042   2.314   0.116   7.407 -0.5239  0.8276  1.2209
  191POPC   H7S22043   2.278  -0.042   7.343 -0.7446 -0.0492 -0.1415
  191POPC   C2822044   2.291  -0.045   7.555  0.5141  0.1279  0.0791
  191POPC   H8R22045   2.209  -0.112   7.587  1.1168 -0.2981  0.7743
  191POPC   H8S22046   2.286   0.031   7.636  0.0494  0.6114 -0.3953
  191POPC   C2922047   2.412  -0.130   7.550  0.7464  0.2533 -0.9548
  191POPC   H9122048   2.463  -0.145   7.454 -0.2798 -0.6093 -1.3861
  191POPC  C21022049   2.484  -0.158   7.662 -0.5882  0.9139 -0.0572
  191POPC  H10122050   2.578  -0.216   7.660 -0.9444  0.1217  2.5705
  191POPC  C21122051   2.442  -0.111   7.800 -0.2101 -0.2170 -1.0079
  191POPC  H11R22052   2.336  -0.077   7.799  0.1084  0.8198 -0.6448
  191POPC  H11S22053   2.516  -0.040   7.840 -0.0336 -1.7845  1.6760
  191POPC  C21222054   2.441  -0.226   7.906  0.0409 -0.6867 -0.4002
  191POPC  H12R22055   2.543  -0.267   7.923 -0.1920 -1.0467  0.1379
  191POPC  H12S22056   2.366  -0.305   7.888 -3.2585  1.8661  1.0648
  191POPC  C21322057   2.416  -0.160   8.053  0.1447  0.9831 -0.4734
  191POPC  H13R22058   2.310  -0.129   8.049  0.6178  3.1325  1.2778
  191POPC  H13S22059   2.489  -0.077   8.067  2.8125 -1.4814  1.5079
  191POPC  C21422060   2.438  -0.269   8.157  0.1646  0.1064  0.2895
  191POPC  H14R22061   2.543  -0.304   8.161 -0.0201 -0.4562  0.3483
  191POPC  H14S22062   2.370  -0.353   8.132  0.4650 -0.4769  1.3484
  191POPC  C21522063   2.383  -0.224   8.292  0.3421  0.0715  0.4898
  191POPC  H15R22064   2.286  -0.171   8.281  1.1568  1.1056 -3.0287
  191POPC  H15S22065   2.457  -0.156   8.340  1.3416 -0.0889 -0.7750
  191POPC  C21622066   2.383  -0.350   8.383  0.0387  0.0678  0.3455
  191POPC  H16R22067   2.490  -0.375   8.398 -0.1594 -1.2262 -0.2683
  191POPC  H16S22068   2.323  -0.437   8.348  0.4556  0.0753 -0.4054
  191POPC  C21722069   2.321  -0.319   8.520  0.1012  0.0565 -0.1330
  191POPC  H17R22070   2.217  -0.286   8.501 -0.1679 -1.3645 -1.3316
  191POPC  H17S22071   2.380  -0.244   8.577  0.6830 -0.9876  0.6786
  191POPC  C21822072   2.325  -0.452   8.599 -0.2052  0.4356 -0.7825
  191POPC  H18R22073   2.271  -0.534   8.546 -1.5818  0.5582  0.3943
  191POPC  H18S22074   2.282  -0.436   8.700 -0.5717 -1.5095 -0.5932
  191POPC  H18T22075   2.430  -0.480   8.626 -0.7429 -0.6193  0.3028
  191POPC   C3322076   1.469   0.553   7.323 -0.7260 -0.1092  0.3289
  191POPC   H3X22077   1.564   0.497   7.314 -1.4640 -1.0385 -2.6591
  191POPC   H3Y22078   1.374   0.496   7.325 -1.8276  1.6487  0.7478
  191POPC   C3422079   1.474   0.638   7.450  0.2849 -0.0297 -0.3290
  191POPC   H4X22080   1.396   0.717   7.437 -0.6261 -0.6332  1.1557
  191POPC   H4Y22081   1.569   0.693   7.465  0.0973  0.1461  0.2461
  191POPC   C3522082   1.436   0.564   7.578  0.3028  0.4975 -0.6421
  191POPC   H5X22083   1.496   0.474   7.605 -0.7310 -0.0405 -0.0897
  191POPC   H5Y22084   1.334   0.525   7.560 -0.4522  2.0479  0.0527
  191POPC   C3622085   1.426   0.653   7.698 -0.0617  0.3304 -0.8716
  191POPC   H6X22086   1.402   0.755   7.661 -0.8687  0.2619 -0.5746
  191POPC   H6Y22087   1.525   0.659   7.747 -0.4446 -0.9364  0.1173
  191POPC   C3722088   1.299   0.612   7.790 -1.0470  0.0235 -0.3114
  191POPC   H7X22089   1.311   0.513   7.838  0.8625 -0.1372 -1.0282
  191POPC   H7Y22090   1.212   0.601   7.721 -1.0320  2.0802 -0.7391
  191POPC   C3822091   1.268   0.725   7.896  0.2021 -0.4324 -0.1490
  191POPC   H8X22092   1.257   0.813   7.830  1.2492 -0.5763 -0.5402
  191POPC   H8Y22093   1.359   0.727   7.960 -0.7577 -2.1217  1.3527
  191POPC   C3922094   1.135   0.700   7.976 -0.0590 -0.2960  0.1299
  191POPC   H9X22095   1.146   0.610   8.041  0.2705 -0.5533 -0.2791
  191POPC   H9Y22096   1.049   0.681   7.908  0.4883 -1.1491 -0.3448
  191POPC  C31022097   1.098   0.807   8.080  0.1026 -0.1966  0.1171
  191POPC  H10X22098   0.994   0.795   8.118 -0.4244  0.5305 -1.0699
  191POPC  H10Y22099   1.095   0.905   8.028  0.0623 -1.2492 -1.9608
  191POPC  C31122100   1.200   0.807   8.195 -0.2670  0.3539 -0.4161
  191POPC  H11X22101   1.182   0.903   8.247 -2.1336  1.1033 -2.2945
  191POPC  H11Y22102   1.301   0.817   8.151 -0.1491  0.8366 -0.0459
  191POPC  C31222103   1.193   0.687   8.290 -0.0378  0.2446  0.0410
  191POPC  H12X22104   1.237   0.599   8.239 -0.1294  0.6566 -0.7637
  191POPC  H12Y22105   1.085   0.660   8.294 -0.0282 -0.2092 -1.7342
  191POPC  C31322106   1.244   0.720   8.432  0.2380  0.3487 -0.0065
  191POPC  H13X22107   1.217   0.821   8.470 -0.2509 -0.2356  1.2383
  191POPC  H13Y22108   1.355   0.718   8.426  0.2000  0.1832 -0.6887
  191POPC  C31422109   1.215   0.620   8.538 -0.1568  0.0350 -0.3839
  191POPC  H14X22110   1.283   0.626   8.626  0.7079 -1.9658 -0.8559
  191POPC  H14Y22111   1.223   0.514   8.504  1.4553  1.0986 -3.6945
  191POPC  C31522112   1.057   0.635   8.576 -0.4949  0.1309  0.5820
  191POPC  H15X22113   1.001   0.649   8.482  0.6958  0.0351 -0.1638
  191POPC  H15Y22114   1.042   0.731   8.629 -0.9038  1.0301 -1.1006
  191POPC  C31622115   1.011   0.520   8.669  0.9611 -0.6051 -0.7797
  191POPC  H16X22116   1.041   0.530   8.776 -1.8592  1.2292 -0.0230
  191POPC  H16Y22117   1.035   0.418   8.631  1.4399 -0.4050 -1.0274
  191POPC  H16Z22118   0.900   0.529   8.677  1.0998 -0.5149  1.7996
  192POPC     N22119   6.034   4.460   5.795 -0.3362  0.6673  0.6248
  192POPC   C1222120   6.061   4.519   5.933  0.2371  0.4080  0.3877
  192POPC  H12A22121   5.978   4.585   5.955 -3.0040 -2.8126 -1.2292
  192POPC  H12B22122   6.148   4.582   5.924  0.4794 -0.0159 -0.2836
  192POPC   C1322123   6.038   4.565   5.688 -0.0148 -0.3577 -0.2814
  192POPC  H13A22124   6.022   4.518   5.592 -2.2930  0.8037 -0.5448
  192POPC  H13B22125   5.959   4.637   5.705  0.1868 -0.3114  0.5149
  192POPC  H13C22126   6.132   4.616   5.699  0.1077 -0.2403 -1.7887
  192POPC   C1422127   6.150   4.366   5.751  0.3790  0.3145 -0.2630
  192POPC  H14A22128   6.131   4.313   5.659 -0.9966  0.9847 -0.3846
  192POPC  H14B22129   6.244   4.418   5.735  0.8780 -1.0214 -2.1550
  192POPC  H14C22130   6.177   4.299   5.830 -0.5356  0.8494  0.5148
  192POPC   C1522131   5.900   4.395   5.779 -0.0020  0.4413 -0.7855
  192POPC  H15A22132   5.881   4.374   5.675 -0.7886  1.3136 -0.8268
  192POPC  H15B22133   5.825   4.461   5.819 -0.9761  1.0416 -3.4229
  192POPC  H15C22134   5.895   4.305   5.837  0.8449 -0.2329 -1.7237
  192POPC   C1122135   6.080   4.435   6.058 -0.0296  0.5457  0.1780
  192POPC  H11A22136   6.119   4.491   6.146 -1.0682  0.1365  0.9270
  192POPC  H11B22137   6.142   4.348   6.029 -2.8010 -1.5154  0.0927
  192POPC     P22138   5.838   4.479   6.157 -0.4000 -0.1258 -0.2154
  192POPC   O1322139   5.707   4.419   6.120  0.2450 -0.5443 -0.7954
  192POPC   O1422140   5.863   4.620   6.123 -0.1730  0.1029  0.1877
  192POPC   O1222141   5.950   4.383   6.095 -0.3168 -0.0192 -0.6331
  192POPC   O1122142   5.846   4.466   6.313 -0.0445  0.4653  0.0934
  192POPC    C122143   5.857   4.345   6.384 -0.9809  0.4680 -0.3529
  192POPC    HA22144   5.949   4.352   6.446  1.4843  0.1631 -3.7060
  192POPC    HB22145   5.869   4.258   6.316  0.2568  0.1573  0.2459
  192POPC    C222146   5.738   4.324   6.468  0.2725  0.1359 -0.2248
  192POPC    HS22147   5.651   4.331   6.399 -0.1967  1.0465  0.4439
  192POPC   O2122148   5.726   4.425   6.570 -0.5852 -0.3372 -0.1618
  192POPC   C2122149   5.595   4.433   6.611 -0.3469  0.5724  0.3956
  192POPC   O2222150   5.505   4.356   6.578 -0.3507 -0.0338 -0.6867
  192POPC   C2222151   5.599   4.548   6.721  0.6041 -0.0093  0.4570
  192POPC   H2R22152   5.526   4.625   6.687 -1.5322 -1.2199  2.0756
  192POPC   H2S22153   5.688   4.614   6.721  0.8074 -0.2791  0.2444
  192POPC    C322154   5.750   4.187   6.529  0.2244 -0.6855  0.1319
  192POPC    HX22155   5.756   4.112   6.447 -0.5144 -2.6691  1.7871
  192POPC    HY22156   5.649   4.169   6.572 -0.8489 -1.0390 -2.3552
  192POPC   O3122157   5.865   4.176   6.614 -0.1358  0.2761  0.6522
  192POPC   C3122158   5.847   4.131   6.740  0.4127  0.0391 -0.0082
  192POPC   O3222159   5.734   4.093   6.770  0.0742 -0.5404 -0.9458
  192POPC   C3222160   5.979   4.134   6.817 -0.1286 -0.6204  0.1585
  192POPC   H2X22161   6.026   4.227   6.779  0.1745 -0.8131  0.0559
  192POPC   H2Y22162   6.040   4.046   6.785 -0.0674 -1.1025  1.5313
  192POPC   C2322163   5.564   4.503   6.864 -0.2833  0.2739  0.0791
  192POPC   H3R22164   5.493   4.418   6.849 -3.0370  2.5652 -0.9389
  192POPC   H3S22165   5.506   4.582   6.917  0.4024  0.4441  0.5904
  192POPC   C2422166   5.691   4.471   6.938  0.8395  0.6423  0.1791
  192POPC   H4R22167   5.754   4.562   6.944 -1.6189  2.5118 -0.6362
  192POPC   H4S22168   5.745   4.387   6.890  2.0365  0.0060  2.4508
  192POPC   C2522169   5.648   4.431   7.079  0.1670  0.6260 -0.3280
  192POPC   H5R22170   5.562   4.362   7.070 -0.3865  1.2762 -0.1290
  192POPC   H5S22171   5.611   4.524   7.127 -0.8525 -0.5511  1.2487
  192POPC   C2622172   5.758   4.369   7.167 -0.1110  0.1986  0.5235
  192POPC   H6R22173   5.860   4.406   7.144 -0.9347  0.6925 -3.0191
  192POPC   H6S22174   5.758   4.259   7.152 -0.3554  0.1665  0.7458
  192POPC   C2722175   5.728   4.391   7.318 -0.3302  0.9528  0.1852
  192POPC   H7R22176   5.623   4.369   7.347 -1.2425  2.3091 -1.8977
  192POPC   H7S22177   5.724   4.500   7.337  0.5902  1.4555 -2.2405
  192POPC   C2822178   5.835   4.323   7.406  0.6160  0.1246  0.8126
  192POPC   H8R22179   5.826   4.373   7.505  0.6118  0.0052  0.8727
  192POPC   H8S22180   5.936   4.359   7.375  0.7861 -1.3655 -0.4414
  192POPC   C2922181   5.842   4.171   7.412 -0.8107 -0.4506 -0.6290
  192POPC   H9122182   5.845   4.123   7.313 -2.8071  0.2789 -1.0833
  192POPC  C21022183   5.861   4.081   7.518  0.3564 -0.0616  0.3884
  192POPC  H10122184   5.850   3.973   7.502 -0.5825 -0.9118  5.1976
  192POPC  C21122185   5.863   4.128   7.658 -0.2212  0.4223 -0.2071
  192POPC  H11R22186   5.769   4.095   7.709  0.1616  0.4963  0.5714
  192POPC  H11S22187   5.867   4.239   7.660 -1.0938  0.4583 -0.0836
  192POPC  C21222188   5.984   4.084   7.741 -0.7329 -0.0744  0.0924
  192POPC  H12R22189   6.080   4.107   7.690  0.0568 -0.3332  1.4358
  192POPC  H12S22190   5.980   3.974   7.751 -1.4232  0.1391  2.8393
  192POPC  C21322191   5.975   4.148   7.879  0.3597 -0.4443 -0.5242
  192POPC  H13R22192   5.866   4.148   7.902  0.7647 -1.0674  1.6379
  192POPC  H13S22193   6.026   4.246   7.885  1.7079 -1.2155  3.2250
  192POPC  C21422194   6.050   4.068   7.986  0.0833  0.3756  0.6880
  192POPC  H14R22195   6.127   4.011   7.931  2.0256  0.3662  3.1991
  192POPC  H14S22196   5.977   4.001   8.036 -0.4234  0.3308 -0.0976
  192POPC  C21522197   6.125   4.162   8.088  0.3013  0.8248 -0.4247
  192POPC  H15R22198   6.047   4.211   8.151  0.1308  0.4364 -0.3352
  192POPC  H15S22199   6.184   4.236   8.029  1.5005  2.2339  2.3580
  192POPC  C21622200   6.229   4.089   8.175 -0.2043  0.7392 -0.4968
  192POPC  H16R22201   6.293   4.053   8.092 -2.0486 -2.1955 -0.7842
  192POPC  H16S22202   6.193   3.996   8.224 -2.1651 -0.5582 -4.0405
  192POPC  C21722203   6.293   4.194   8.269 -0.1120  0.2451 -0.1754
  192POPC  H17R22204   6.220   4.250   8.331  0.9611  1.1500  0.2968
  192POPC  H17S22205   6.343   4.262   8.197 -1.1582 -0.2835 -1.4482
  192POPC  C21822206   6.387   4.140   8.377  0.1626 -0.4450 -0.4299
  192POPC  H18R22207   6.323   4.103   8.460  0.8510  3.4603  2.0884
  192POPC  H18S22208   6.452   4.223   8.412  0.0548  0.3597 -2.0261
  192POPC  H18T22209   6.444   4.056   8.331  1.0015 -0.5179  0.6949
  192POPC   C3322210   5.959   4.144   6.962 -0.3320 -0.1631  0.7703
  192POPC   H3X22211   5.887   4.069   7.002 -0.9108 -0.5743 -0.9463
  192POPC   H3Y22212   5.923   4.246   6.986 -0.9501 -0.6206  1.8943
  192POPC   C3422213   6.105   4.115   7.020 -0.5963 -0.7669 -0.7406
  192POPC   H4X22214   6.179   4.188   6.980 -1.0802 -0.2983 -0.7855
  192POPC   H4Y22215   6.145   4.016   6.987 -1.0150 -0.3626 -2.6282
  192POPC   C3522216   6.105   4.116   7.173 -0.5052 -0.4679 -0.2767
  192POPC   H5X22217   6.030   4.036   7.191 -1.3637  0.3295 -0.2307
  192POPC   H5Y22218   6.068   4.213   7.212 -0.4535 -0.7149  0.3961
  192POPC   C3622219   6.241   4.088   7.246 -0.1495 -0.6395  0.2202
  192POPC   H6X22220   6.313   4.172   7.240  0.0374 -0.8765 -3.3095
  192POPC   H6Y22221   6.300   4.009   7.194 -1.1985 -1.9232  0.9105
  192POPC   C3722222   6.219   4.053   7.386 -0.0075  0.4644  0.0380
  192POPC   H7X22223   6.147   3.971   7.409  1.0965 -0.8507 -1.0331
  192POPC   H7Y22224   6.184   4.146   7.434 -3.3198 -0.1145 -0.9933
  192POPC   C3822225   6.339   4.013   7.464  0.4471  0.0607  0.1355
  192POPC   H8X22226   6.414   4.094   7.463  1.0515 -0.4537  1.3050
  192POPC   H8Y22227   6.390   3.924   7.420 -2.3716 -1.2423 -0.6994
  192POPC   C3922228   6.303   3.985   7.614  0.1231  0.2579 -0.2966
  192POPC   H9X22229   6.226   3.905   7.617 -1.9393  2.1366  1.2209
  192POPC   H9Y22230   6.247   4.074   7.651 -6.0038 -2.8981 -0.6935
  192POPC  C31022231   6.421   3.946   7.702  0.1982  0.5896  0.1597
  192POPC  H10X22232   6.507   4.016   7.689 -0.7642  1.5820 -1.0988
  192POPC  H10Y22233   6.451   3.845   7.669  0.4573  0.0660  1.9128
  192POPC  C31122234   6.401   3.948   7.855 -0.0918  0.5831 -0.0838
  192POPC  H11X22235   6.297   3.912   7.871 -0.1137 -0.9830 -2.9899
  192POPC  H11Y22236   6.390   4.051   7.894 -1.8225  0.2076  0.5231
  192POPC  C31222237   6.503   3.862   7.927 -0.2297 -0.1609 -0.8607
  192POPC  H12X22238   6.604   3.904   7.910  0.5237 -1.3427  0.4779
  192POPC  H12Y22239   6.505   3.762   7.879 -0.0202 -0.3117 -0.5422
  192POPC  C31322240   6.479   3.839   8.080  0.0835 -0.2160 -0.6234
  192POPC  H13X22241   6.371   3.817   8.098 -0.4038  3.5219  2.6064
  192POPC  H13Y22242   6.496   3.936   8.132 -0.0869 -0.4298 -0.1648
  192POPC  C31422243   6.574   3.729   8.132  0.5099 -0.5747  0.1777
  192POPC  H14X22244   6.665   3.760   8.077  0.0198 -0.1620 -0.4222
  192POPC  H14Y22245   6.539   3.629   8.097 -1.3152  0.2735 -0.5792
  192POPC  C31522246   6.593   3.740   8.289  0.8001  0.3010 -0.0275
  192POPC  H15X22247   6.648   3.835   8.309  1.4846  0.0405 -0.6294
  192POPC  H15Y22248   6.665   3.659   8.313  0.1567  0.1108  1.3604
  192POPC  C31622249   6.462   3.732   8.370 -0.3154 -0.1104 -0.1434
  192POPC  H16X22250   6.416   3.834   8.367  1.1052  0.5497 -0.2134
  192POPC  H16Y22251   6.486   3.706   8.475 -0.0655  0.2533 -0.1093
  192POPC  H16Z22252   6.386   3.657   8.339 -1.2440  0.1536  1.3818
  193SOD    SOD22253   0.714   4.688  13.738  0.0962 -0.5388  0.0072
  194SOD    SOD22254   5.158   2.353  13.297 -0.3743  0.2502 -0.2185
  195SOD    SOD22255   5.721   1.411   3.373  0.1292  0.0124  0.0234
  196SOD    SOD22256   4.613   0.943   4.091  0.0681  0.0825  0.1542
  197SOD    SOD22257   4.492   5.198   5.272  0.1921  0.1478  0.2015
  198SOD    SOD22258   5.201   3.033  15.628  0.4949 -0.4705  0.0412
  199SOD    SOD22259   0.477   4.326  15.958  0.2652  0.5119  0.1188
  200SOD    SOD22260   1.607   6.199  15.983 -0.1326  0.1559  0.0656
  201SOD    SOD22261   6.235   6.407   2.888 -0.1784  0.0630 -0.2532
  202SOD    SOD22262   3.707   2.550  15.100 -0.3054  0.4379  0.1015
  203SOD    SOD22263   2.340   2.785   4.364 -0.1932  0.1843  0.2777
  204SOD    SOD22264   5.506   3.170   3.222 -0.5766  0.5575  0.2985
  205SOD    SOD22265   2.783   5.779   5.983  0.3824  0.0591  0.3022
  206SOD    SOD22266   5.326   4.389   6.372 -0.3912  0.0628  0.1206
  207SOD    SOD22267   6.217   3.961   4.043  0.4428 -0.6582  0.1973
  208SOD    SOD22268   2.014   3.551   2.495 -0.9710  0.1702 -0.0283
  209SOD    SOD22269   5.138   6.672  15.494 -0.5806 -0.1685 -0.3116
  210SOD    SOD22270   1.101   3.807   4.714 -0.0158 -0.6489 -0.5005
  211SOD    SOD22271   3.953   3.263   0.472 -0.0739 -0.1037  0.0971
  212SOD    SOD22272   1.159   2.602  15.832 -0.6893 -0.4320  0.6554
  213SOD    SOD22273   0.070   0.422   0.098  0.0008  0.7387 -0.0972
  214SOD    SOD22274   5.850   4.324   2.742  0.4547  0.4439  0.0005
  215SOD    SOD22275   1.649   2.531  11.772  0.3089  0.3976 -0.2778
  216SOD    SOD22276   3.327   4.064   0.438 -0.2979  0.1839  0.2235
  217SOD    SOD22277   2.272   0.692  12.415  0.0454  0.2617  0.0097
  218SOD    SOD22278   5.470   2.545  11.199 -0.0917  0.1095 -0.1113
  219SOD    SOD22279   3.538   2.707  14.386 -0.0206  0.0078 -0.0059
  220SOD    SOD22280   2.452   5.647   3.310 -0.1472  0.0921  0.1458
  221SOD    SOD22281   2.780   5.371   1.631 -0.2889 -0.2439  0.6159
  222SOD    SOD22282   0.863   3.034  11.012 -0.1022  0.2280  0.0167
  223SOD    SOD22283   6.025   0.046  11.886  0.2211  0.1394 -0.0621
  224SOD    SOD22284   5.196   2.277   5.469  0.1411 -0.0259 -0.4102
  225SOD    SOD22285   2.142   1.685   1.278  0.0899  0.1084  0.2230
  226SOD    SOD22286   5.846   3.582  17.026  0.6965  0.0097  0.1004
  227SOD    SOD22287   6.565   0.762  11.840 -0.0999  0.0598  0.3463
  228SOD    SOD22288   0.813   6.250  13.031 -0.1463  0.1947 -0.1455
  229SOD    SOD22289   0.668   3.933  10.236 -0.1229 -0.4233 -0.1293
  230SOD    SOD22290   5.447   6.310   6.138 -0.5627  0.3189 -0.1766
  231SOD    SOD22291   2.064   4.893   2.889 -0.0422 -0.2317  0.2520
  232SOD    SOD22292   1.629   5.763  11.374 -0.3747  0.3896  0.1626
  233SOD    SOD22293   4.934   3.532  12.532 -0.0631 -0.0131  0.0261
  234SOD    SOD22294   4.359   5.828  12.433  0.1518  0.5272  0.3042
  235SOD    SOD22295   3.278   2.742  10.599 -0.3024 -0.2678 -0.2371
  236SOD    SOD22296   5.749   6.184   5.770 -0.1835 -0.0279  0.1811
  237SOD    SOD22297   0.594   2.139   2.703  0.0534 -0.0510 -0.9638
  238SOD    SOD22298   5.145   2.078  16.196  0.0383  0.2533  0.7329
  239SOD    SOD22299   5.695   3.740  10.591  0.2069 -0.1748 -0.0661
  240SOD    SOD22300   5.946   5.071  16.477  0.3589  0.1465 -0.1380
  241SOD    SOD22301   3.887   3.500   2.363  0.7168  0.5496  0.1953
  242SOD    SOD22302   0.455   0.389   3.775  0.4945 -0.0501 -0.5189
  243SOD    SOD22303   3.555   0.733   1.813 -0.0301 -0.6613  0.0666
  244SOD    SOD22304   6.162   0.711   2.035 -0.2491 -0.5990 -0.4718
  245SOD    SOD22305   2.084   6.173   1.405 -0.4493  0.2882 -0.3929
  246SOD    SOD22306   1.335   4.273  16.589 -0.0682  0.1537 -0.0091
  247SOD    SOD22307   1.037   3.083   5.940 -0.2278  0.3414 -0.0727
  248SOD    SOD22308   0.852   3.276   4.574  0.3920  0.0102  0.0588
  249SOD    SOD22309   2.284   6.610   4.399 -0.6760  0.3586 -0.3670
  250SOD    SOD22310   0.684   4.386  11.513  0.2129 -0.4497  0.0790
  251SOD    SOD22311   2.217   4.127  16.099  0.1195  0.3196  0.2448
  252SOD    SOD22312   6.048   2.877   6.589 -0.7004 -0.2182 -0.1841
  253SOD    SOD22313   6.152   0.442   3.008  0.3455  0.0756  0.0931
  254SOD    SOD22314   1.083   6.176  10.932  0.0970  0.2056 -0.8573
  255SOD    SOD22315   3.996   4.289  14.473 -0.3690  0.5717 -0.3651
  256SOD    SOD22316   2.562   5.121  11.361 -0.4635  0.0648 -0.2190
  257SOD    SOD22317   3.350   5.599  14.014  0.4959  0.2624  0.0424
  258SOD    SOD22318   6.683   5.484   0.808 -0.1744 -0.1472 -0.7138
  259SOD    SOD22319   0.754   4.734   1.739  0.0005  0.4931 -0.2917
  260SOD    SOD22320   0.065   0.111   6.165  0.4011 -0.2336 -0.3346
  261SOD    SOD22321   0.771   1.712   6.518  0.0490 -0.2252 -0.1218
  262SOD    SOD22322   3.247   5.442   5.677  0.0079 -0.0230 -0.4328
  263SOD    SOD22323   2.825   3.168   0.801 -0.2385 -0.6394  0.6520
  264SOD    SOD22324   4.700   0.304  11.490  0.7204 -0.0227  0.2056
  265SOD    SOD22325   1.501   5.457  15.591 -0.2547 -0.1466  0.4682
  266SOD    SOD22326   2.729   0.089   2.866 -0.1761  0.1664 -0.1938
  267SOD    SOD22327   1.559   3.415  13.309  0.3722  0.0852 -0.6924
  268SOD    SOD22328   4.821   0.885  10.835 -0.0240 -0.5314 -0.1918
  269SOD    SOD22329   5.425   1.126   1.766 -0.2472  0.0430  0.0333
  270CLA    CLA22330   0.332   5.401  15.554 -0.4588 -0.0586  0.4722
  271CLA    CLA22331   0.493   3.966  14.940 -0.2407  0.3980  0.3861
  272CLA    CLA22332   3.247   3.321   4.775  0.1517 -0.0908 -0.1333
  273CLA    CLA22333   2.574   4.448  14.839 -0.6400 -0.3300 -0.1099
  274CLA    CLA22334   6.242   6.212  15.242 -0.0559 -0.3992 -0.0360
  275CLA    CLA22335   3.587   5.026  14.103  0.2404  0.5934  0.1739
  276CLA    CLA22336   5.908   5.336   1.829 -0.3335  0.2540  0.2213
  277CLA    CLA22337   0.338   3.935   3.124  0.0315 -0.2069  0.3088
  278CLA    CLA22338   2.598   1.816   2.025  0.1466 -0.1247  0.5166
  279CLA    CLA22339   6.580   5.929   0.946  0.3089  0.0745  0.1996
  280CLA    CLA22340   1.884   2.342   3.698 -0.4387 -0.0779 -0.3299
  281CLA    CLA22341   4.377   6.590  16.672 -0.0612  0.2318  0.1095
  282CLA    CLA22342   6.508   1.090  15.320  0.2397  0.5256 -0.2794
  283CLA    CLA22343   2.416   4.402   4.681  0.0453  0.2797  0.3136
  284CLA    CLA22344   1.184   6.431  15.635 -0.5401 -0.2518  0.0751
  285CLA    CLA22345   4.010   6.672  12.382  0.2868  0.3734  0.3370
  286CLA    CLA22346   1.804   2.282   1.889 -0.3231 -0.1209 -0.0165
  287CLA    CLA22347   0.945   4.129  14.882  0.1786 -0.0104 -0.0672
  288CLA    CLA22348   3.033   2.149   0.738  0.3660  0.0708  0.2876
  289CLA    CLA22349   0.548   2.443  16.470 -0.3843 -0.2221 -0.5882
  290CLA    CLA22350   0.627   1.013  15.010  0.0825 -0.1080 -0.1978
  291CLA    CLA22351   4.705   4.454   4.884 -0.2151  0.0364  0.3964
  292CLA    CLA22352   4.414   4.666  16.240  0.1519  0.5104 -0.1915
  293CLA    CLA22353   3.022   3.262  15.217 -0.2636 -0.2689 -0.5314
  294CLA    CLA22354   3.383   1.076  12.932  0.0471 -0.4415 -0.2764
  295CLA    CLA22355   5.439   5.487  11.822  0.2004  0.0622 -0.2659
  296CLA    CLA22356   1.120   4.521   4.445 -0.0616  0.2546  0.0341
  297CLA    CLA22357   4.455   2.686  14.024  0.2263 -0.1748  0.1012
  298CLA    CLA22358   1.182   4.586   0.486 -0.1253 -0.3230  0.0864
  299CLA    CLA22359   1.524   2.000   2.261 -0.1606 -0.2168 -0.1704
  300CLA    CLA22360   2.645   4.721   5.176 -0.3579  0.2151  0.2748
  301CLA    CLA22361   2.554   3.735   5.176 -0.0726  0.2497 -0.3403
  302CLA    CLA22362   5.498   3.718   1.022  0.0430 -0.2902  0.0695
  303CLA    CLA22363   4.442   0.225   1.551 -0.4822 -0.0737 -0.4865
  304CLA    CLA22364   3.095   2.123   1.313 -0.1445  0.2319  0.2199
  305CLA    CLA22365   1.082   4.107  16.251 -0.1965  0.1488  0.0314
  306CLA    CLA22366   3.040   3.204  14.513 -0.0943  0.3908  0.2630
  307CLA    CLA22367   5.114   2.531   0.282  0.0051  0.2583 -0.1107
  308CLA    CLA22368   4.574   6.381   3.448  0.2343 -0.6526  0.2797
  309CLA    CLA22369   1.786   3.626  15.304 -0.2512  0.0195 -0.2779
  310CLA    CLA22370   3.361   6.468   3.901  0.1372 -0.4898  0.3085
  311CLA    CLA22371   2.330   5.303  16.216  0.4293  0.3012 -0.1022
  312CLA    CLA22372   1.995   4.210  12.445 -0.5083  0.0003  0.4516
  313CLA    CLA22373   6.544   0.336   1.851 -0.4157 -0.0864  0.0251
  314CLA    CLA22374   6.310   6.527  13.625 -0.1004  0.4987  0.0146
  315CLA    CLA22375   2.343   1.411  11.531 -0.3344 -0.2291  0.0707
  316CLA    CLA22376   0.431   0.450   4.068 -0.2157 -0.5120  0.0384
  317CLA    CLA22377   5.377   2.399   4.170 -0.0951  0.1297  0.3830
  318CLA    CLA22378   3.350   3.788   2.399  0.2966 -0.0984  0.0480
  319CLA    CLA22379   5.440   2.749   2.535 -0.4502  0.4954  0.2308
  320CLA    CLA22380   2.566   1.778   0.358  0.1887 -0.3633 -0.0536
  321CLA    CLA22381   5.966   2.373   3.192 -0.2545  0.2066 -0.3359
  322CLA    CLA22382   5.533   1.578   4.839  0.4171  0.0734  0.0024
  323TIP3   OH222383   5.401   3.145   1.332 -0.1467 -0.0817 -0.7649
  323TIP3    H122384   5.326   3.086   1.340 -1.9608  2.2253  0.4369
  323TIP3    H222385   5.375   3.224   1.380  2.5673  1.3160 -1.3914
  324TIP3   OH222386   2.044   3.360   3.116  0.2120 -0.4035 -0.0274
  324TIP3    H122387   1.950   3.376   3.125  0.1924  0.8487 -1.9942
  324TIP3    H222388   2.066   3.306   3.192 -1.7783  0.6109  1.3614
  325TIP3   OH222389   3.313   6.657   4.145 -0.2586  0.0556 -0.3106
  325TIP3    H122390   3.297   6.739   4.097 -4.5790  0.5956  1.5533
  325TIP3    H222391   3.291   6.588   4.082  0.7729  0.4064 -1.0828
  326TIP3   OH222392   4.988   2.064  11.296 -0.6181 -0.9462  0.2883
  326TIP3    H122393   5.032   2.124  11.355  0.2760 -2.4454  1.2160
  326TIP3    H222394   4.896   2.064  11.324 -0.6112 -0.1081  0.3281
  327TIP3   OH222395   4.063   0.214  17.202  0.2834 -0.8056 -0.5447
  327TIP3    H122396   4.020   0.279  17.257  0.2314 -0.8611 -0.5183
  327TIP3    H222397   4.122   0.264  17.146  0.8477 -0.8180  0.0416
  328TIP3   OH222398   5.704   2.775  16.204 -0.3466 -0.4408  0.1773
  328TIP3    H122399   5.638   2.827  16.250 -0.1800 -0.9393  1.0104
  328TIP3    H222400   5.656   2.731  16.134 -0.8854 -0.7294  0.7187
  329TIP3   OH222401   6.036   5.415  16.685  0.2405 -0.1903  0.0061
  329TIP3    H122402   6.076   5.434  16.600 -1.3485  1.2095 -0.4957
  329TIP3    H222403   5.984   5.336  16.672 -0.5973  0.4362 -0.5755
  330TIP3   OH222404   4.324   0.025   0.366  0.6134  0.0992 -0.0882
  330TIP3    H122405   4.268   0.036   0.289  1.4423 -2.3702 -1.1511
  330TIP3    H222406   4.310   0.104   0.417 -2.8969  0.1557 -0.8809
  331TIP3   OH222407   6.521   3.303  13.484  0.3292 -0.7213  0.3722
  331TIP3    H122408   6.581   3.289  13.557 -1.6944 -0.3655  2.2260
  331TIP3    H222409   6.546   3.388  13.448  1.0122 -0.6392  1.0111
  332TIP3   OH222410   2.829   4.151   0.660 -0.1850 -0.0610  0.3373
  332TIP3    H122411   2.854   4.061   0.679 -2.3555 -0.6079  0.7912
  332TIP3    H222412   2.762   4.172   0.725 -0.1529  1.6764 -0.1459
  333TIP3   OH222413   4.979   6.204  12.207  0.1460 -0.3304 -0.0187
  333TIP3    H122414   5.062   6.234  12.244  0.0502  1.3230 -1.0238
  333TIP3    H222415   4.950   6.135  12.265  1.9002 -0.4871  0.7367
  334TIP3   OH222416   4.131   1.510   2.694 -0.3769  0.2455  0.5447
  334TIP3    H122417   4.056   1.536   2.747  0.2475 -0.4113  1.8088
  334TIP3    H222418   4.136   1.576   2.624 -0.9082  1.4676  1.6172
  335TIP3   OH222419   0.519   5.087  12.565  0.2354  0.3553 -0.1585
  335TIP3    H122420   0.464   5.164  12.577 -0.3178 -0.0897  0.2343
  335TIP3    H222421   0.580   5.089  12.639 -1.2910 -0.8166  1.2074
  336TIP3   OH222422   4.343   6.781  14.443  0.3444 -0.4649 -0.2917
  336TIP3    H122423   4.391   6.860  14.467  0.0020 -1.1192  3.0512
  336TIP3    H222424   4.272   6.777  14.507 -1.4599 -1.9354 -2.2659
  337TIP3   OH222425   0.687   1.920  12.142  0.1893  0.4985 -0.6391
  337TIP3    H122426   0.706   1.867  12.065  4.1091  0.0571  0.3984
  337TIP3    H222427   0.703   2.010  12.114 -2.1359  0.7858 -1.2344
  338TIP3   OH222428   5.817   1.374  14.993 -0.5754  0.1225 -0.1956
  338TIP3    H122429   5.794   1.410  14.908  0.4004 -0.0185 -0.5311
  338TIP3    H222430   5.886   1.432  15.026 -1.4002  0.5572  0.7949
  339TIP3   OH222431   0.397   5.359  10.471 -0.1351  0.0736  0.2891
  339TIP3    H122432   0.385   5.264  10.467 -1.5285  0.1711  1.4097
  339TIP3    H222433   0.343   5.387  10.545  0.2213  1.7530 -0.0452
  340TIP3   OH222434   2.374   4.271   1.714 -0.0451  0.5257 -0.8763
  340TIP3    H122435   2.315   4.342   1.688 -1.3617  0.6647  2.0369
  340TIP3    H222436   2.450   4.315   1.751 -0.7406  0.4914  0.6761
  341TIP3   OH222437   1.026   2.572  15.468  0.0328 -0.7410 -0.0031
  341TIP3    H122438   1.013   2.617  15.385 -0.6326  1.1215  1.0547
  341TIP3    H222439   1.120   2.579  15.485 -0.0488  0.3065  0.1251
  342TIP3   OH222440   5.336   5.680  13.414 -0.1577  0.1813  0.2657
  342TIP3    H122441   5.377   5.757  13.454 -2.1082  1.2893  0.2776
  342TIP3    H222442   5.265   5.716  13.362 -0.0259 -1.5244 -1.1630
  343TIP3   OH222443   5.570   5.180  12.866  0.2821  0.1441  0.0916
  343TIP3    H122444   5.615   5.170  12.782 -0.4603 -2.3193 -0.1063
  343TIP3    H222445   5.639   5.195  12.930  1.0220  0.3389 -0.7407
  344TIP3   OH222446   5.909   2.684   0.111 -0.3652  0.1543  0.1475
  344TIP3    H122447   5.894   2.659   0.202  0.4061 -0.9950 -0.0287
  344TIP3    H222448   5.923   2.602   0.065 -0.1266  0.7629 -0.9073
  345TIP3   OH222449   5.066   5.272   3.555 -0.7378 -0.1225 -0.0604
  345TIP3    H122450   5.012   5.344   3.522 -0.1492  1.0543  1.3930
  345TIP3    H222451   5.135   5.262   3.490  0.7616  2.5578  0.9264
  346TIP3   OH222452   0.588   2.302   3.804 -0.3671  0.0149  0.3934
  346TIP3    H122453   0.673   2.333   3.773 -1.5447  2.7577 -0.4684
  346TIP3    H222454   0.527   2.324   3.733 -2.0785  0.0251  1.7900
  347TIP3   OH222455   0.031   1.609  14.848  0.1061 -0.3033 -0.3752
  347TIP3    H122456   0.033   1.572  14.760 -2.4841 -1.1297 -0.1617
  347TIP3    H222457   0.065   1.539  14.904  0.1347 -0.4187 -0.5348
  348TIP3   OH222458   6.095   2.729   1.937 -0.1296 -0.7851 -0.5731
  348TIP3    H122459   6.018   2.677   1.917 -1.4681 -0.4141  2.9514
  348TIP3    H222460   6.124   2.698   2.022  0.2409  2.7271  0.7708
  349TIP3   OH222461   4.031   2.231   1.137 -0.1882  0.4293  0.1176
  349TIP3    H122462   3.980   2.150   1.140 -1.2629  1.0828  0.0652
  349TIP3    H222463   4.099   2.219   1.204  0.6460 -1.1202 -0.9641
  350TIP3   OH222464   2.901   4.667   0.707  0.1570 -0.7573  0.0625
  350TIP3    H122465   2.956   4.694   0.633 -0.3424 -0.1111 -0.0775
  350TIP3    H222466   2.834   4.611   0.668  0.2421 -0.8995  0.1179
  351TIP3   OH222467   4.771   0.961   3.659  0.1429  0.0495 -0.1626
  351TIP3    H122468   4.810   1.016   3.728 -0.8016 -0.4534  0.7948
  351TIP3    H222469   4.720   1.022   3.606  0.7260  0.4097 -0.3251
  352TIP3   OH222470   2.199   6.212  13.308 -0.3908 -0.0683 -0.0481
  352TIP3    H122471   2.134   6.143  13.307 -0.7714  0.2771  0.3125
  352TIP3    H222472   2.253   6.194  13.385  0.2888 -0.6674 -0.6572
  353TIP3   OH222473   2.998   3.542   3.744 -0.0796 -0.4137 -0.0155
  353TIP3    H122474   3.070   3.515   3.802 -0.3286 -2.3078 -0.4995
  353TIP3    H222475   2.943   3.599   3.799  0.5178 -0.8906  1.1239
  354TIP3   OH222476   2.319   4.501  15.333  0.6329  0.7475  0.2546
  354TIP3    H122477   2.308   4.491  15.238  1.3950  1.1619  0.1178
  354TIP3    H222478   2.295   4.416  15.368 -1.6949  1.1803 -0.1142
  355TIP3   OH222479   0.968   6.166   3.714  0.1997  0.0687 -0.0515
  355TIP3    H122480   0.889   6.114   3.733 -0.1399  0.3147 -0.7589
  355TIP3    H222481   0.935   6.252   3.691  0.7635  0.6016  1.0710
  356TIP3   OH222482   6.689   1.558  15.263 -0.4710 -0.0498  0.5773
  356TIP3    H122483   6.666   1.592  15.350 -0.5345  0.7008  0.2791
  356TIP3    H222484   6.647   1.620  15.202 -0.0616 -0.3193  0.0181
  357TIP3   OH222485   4.799   2.569  15.937 -0.1568 -0.3277  0.1308
  357TIP3    H122486   4.820   2.476  15.950  2.0723  0.1411  0.2182
  357TIP3    H222487   4.794   2.605  16.025 -0.9134 -0.3181  0.0924
  358TIP3   OH222488   5.274   4.195   1.612  0.2380  0.1412  0.1350
  358TIP3    H122489   5.341   4.263   1.603  0.0708  0.2637 -0.2243
  358TIP3    H222490   5.213   4.212   1.540 -0.8751  0.7840  1.1875
  359TIP3   OH222491   0.425   6.427   7.069 -0.2843  0.3914 -0.0442
  359TIP3    H122492   0.414   6.522   7.071 -1.9574  0.2217  1.8140
  359TIP3    H222493   0.337   6.392   7.079  0.2751 -1.3947 -0.8581
  360TIP3   OH222494   5.432   5.072   1.883 -0.3655 -0.1962  0.1811
  360TIP3    H122495   5.452   5.065   1.790 -1.8237  2.5983 -0.4356
  360TIP3    H222496   5.489   5.142   1.915 -1.9567  0.9342  0.6664
  361TIP3   OH222497   6.275   2.618  13.681  0.4603 -0.2166  0.4352
  361TIP3    H122498   6.239   2.573  13.606  1.0749 -0.6137  0.3671
  361TIP3    H222499   6.233   2.578  13.757  0.2282 -0.1761  0.3260
  362TIP3   OH222500   2.190   3.536  14.927 -0.3864 -0.4965  0.0931
  362TIP3    H122501   2.102   3.516  14.961 -1.1092  0.4797 -1.1127
  362TIP3    H222502   2.196   3.631  14.932  0.8892 -0.6003  0.7882
  363TIP3   OH222503   3.035   3.509  12.678  0.2565 -0.9025  0.4824
  363TIP3    H122504   2.958   3.565  12.670 -0.3128 -1.3897  2.0873
  363TIP3    H222505   3.098   3.546  12.617 -0.2647  1.1963  1.1263
  364TIP3   OH222506   4.233   1.599  12.651  0.0961  0.2640  0.0484
  364TIP3    H122507   4.189   1.516  12.632  0.2149 -0.1325  1.3996
  364TIP3    H222508   4.197   1.660  12.588 -1.3126 -0.3974  0.1728
  365TIP3   OH222509   1.493   1.006   6.496  0.1396  0.7415 -0.0327
  365TIP3    H122510   1.435   0.935   6.523  0.2818  0.5444 -0.2441
  365TIP3    H222511   1.487   1.070   6.567 -0.4474  0.7899 -0.1256
  366TIP3   OH222512   3.826   1.389  15.602 -0.0999  0.2772 -0.2558
  366TIP3    H122513   3.846   1.458  15.539  0.8868 -0.3686 -0.6586
  366TIP3    H222514   3.908   1.374  15.649 -1.1743  1.9210  2.4154
  367TIP3   OH222515   4.771   1.024  16.950 -0.5384  0.6116 -0.0710
  367TIP3    H122516   4.805   0.977  17.027 -1.6144  0.4481  0.3308
  367TIP3    H222517   4.838   1.088  16.929  0.3452 -0.1891  0.2227
  368TIP3   OH222518   4.127   4.407  12.551 -0.1395  0.2190  0.2981
  368TIP3    H122519   4.204   4.379  12.599  1.2971  0.9154 -1.4739
  368TIP3    H222520   4.101   4.489  12.591  1.5139  1.1912 -0.5431
  369TIP3   OH222521   4.718   2.753  13.861 -0.0517 -0.7079 -0.4365
  369TIP3    H122522   4.630   2.730  13.893  0.2159 -0.7378  0.2885
  369TIP3    H222523   4.775   2.741  13.937  0.3818  0.6230 -0.5367
  370TIP3   OH222524   1.444   2.599  14.074 -0.2945  0.5606  0.4968
  370TIP3    H122525   1.404   2.524  14.030 -1.2653  1.1180  0.4036
  370TIP3    H222526   1.472   2.656  14.002  1.8541 -0.3737  0.5080
  371TIP3   OH222527   1.478   3.060   2.051 -0.6985  0.1231  0.1350
  371TIP3    H122528   1.531   3.135   2.023  0.8547 -0.9713 -0.0559
  371TIP3    H222529   1.542   3.000   2.091 -2.0639 -0.6239  1.2684
  372TIP3   OH222530   4.827   5.242  15.416 -0.0782  0.1428 -0.0886
  372TIP3    H122531   4.856   5.267  15.328 -1.6538 -0.6492 -0.8734
  372TIP3    H222532   4.906   5.211  15.460  0.8840  1.3350 -0.9319
  373TIP3   OH222533   0.305   0.003  14.891 -0.1311  0.0190  0.2686
  373TIP3    H122534   0.297   0.036  14.802 -0.8678  0.7040  0.5773
  373TIP3    H222535   0.353   0.071  14.938 -0.7469  0.1912  0.6602
  374TIP3   OH222536   3.719   6.773   2.840  0.1293 -0.1616  0.3212
  374TIP3    H122537   3.808   6.739   2.840 -0.0723 -0.7067  0.0746
  374TIP3    H222538   3.726   6.861   2.876  0.5869 -0.6925  1.5902
  375TIP3   OH222539   2.169   5.206   4.055  0.0289 -0.2232 -0.2326
  375TIP3    H122540   2.229   5.152   4.106 -1.6977 -0.7174  1.3976
  375TIP3    H222541   2.174   5.171   3.966  2.6598  0.2522 -0.3648
  376TIP3   OH222542   2.765   5.313   3.818  0.0979  0.3407  0.4618
  376TIP3    H122543   2.709   5.283   3.889  2.4712  0.5493  2.5574
  376TIP3    H222544   2.756   5.409   3.819 -1.0716  0.2831 -0.6689
  377TIP3   OH222545   5.283   3.938  16.554 -0.3950 -0.3891 -0.0924
  377TIP3    H122546   5.261   3.893  16.473  2.8570 -0.0193 -1.3291
  377TIP3    H222547   5.307   3.868  16.615  0.0816 -0.5561 -0.4666
  378TIP3   OH222548   1.042   2.102  15.554 -0.3516  0.2478 -0.1630
  378TIP3    H122549   0.995   2.168  15.605 -2.3572  0.0851 -1.6405
  378TIP3    H222550   1.083   2.151  15.483  1.1719  0.2946  0.7173
  379TIP3   OH222551   6.437   3.558  13.787  0.1394  0.2227 -0.3445
  379TIP3    H122552   6.446   3.521  13.876  1.7703  0.6538 -0.3148
  379TIP3    H222553   6.491   3.501  13.732  0.6798  1.0902 -0.7262
  380TIP3   OH222554   4.517   5.960  11.871 -0.2619 -0.0536  0.1363
  380TIP3    H122555   4.500   5.984  11.780  0.3810  0.3263  0.1072
  380TIP3    H222556   4.543   6.042  11.913  0.8091 -0.4648  0.3161
  381TIP3   OH222557   2.026   2.426   5.464 -0.1058 -0.5172 -0.1727
  381TIP3    H122558   2.052   2.469   5.545  0.2396 -0.2137 -0.4395
  381TIP3    H222559   2.088   2.354   5.454  0.0382 -0.3739 -0.3178
  382TIP3   OH222560   1.449   2.394  13.080 -0.0151 -0.5365  0.1638
  382TIP3    H122561   1.374   2.343  13.113 -1.2172  0.4783 -0.9040
  382TIP3    H222562   1.422   2.424  12.993  2.0075 -0.8856 -0.6432
  383TIP3   OH222563   2.162   1.116   2.864  0.4928  0.7281  0.0190
  383TIP3    H122564   2.214   1.048   2.821  0.6515 -0.1651  1.5516
  383TIP3    H222565   2.092   1.068   2.910  0.2280  1.6432  0.6125
  384TIP3   OH222566   1.964   1.292   3.615  0.1985 -0.0409 -0.7111
  384TIP3    H122567   1.896   1.357   3.632  0.1935 -0.2137 -0.0180
  384TIP3    H222568   2.026   1.336   3.557  0.9414  1.1206  0.8677
  385TIP3   OH222569   6.151   6.658  14.290 -0.3596 -0.2665  0.1469
  385TIP3    H122570   6.190   6.739  14.256  1.9669 -0.1763  2.6652
  385TIP3    H222571   6.185   6.651  14.379 -1.6051 -3.3335  0.5023
  386TIP3   OH222572   1.917   1.696   5.324 -0.0416  0.3892 -0.3870
  386TIP3    H122573   1.867   1.615   5.324 -0.6589  0.7287 -1.8514
  386TIP3    H222574   1.869   1.754   5.266  0.6936  1.6199  0.1898
  387TIP3   OH222575   1.469   2.263   0.125 -0.4224 -0.0542  0.2901
  387TIP3    H122576   1.496   2.348   0.160 -2.0079  0.0467  1.3295
  387TIP3    H222577   1.544   2.235   0.072  1.4821  0.4721  2.5427
  388TIP3   OH222578   2.201   5.191  13.249 -0.4866 -0.1717  0.3201
  388TIP3    H122579   2.243   5.175  13.334  1.8972 -2.0698 -1.0717
  388TIP3    H222580   2.252   5.262  13.210 -0.9612  0.0365  0.0727
  389TIP3   OH222581   5.607   1.256  12.251 -0.9478 -0.3829 -0.1361
  389TIP3    H122582   5.688   1.231  12.206 -0.7934  2.8718 -1.9864
  389TIP3    H222583   5.635   1.319  12.318 -1.8234  0.1032 -0.2079
  390TIP3   OH222584   4.828   2.813   3.484 -0.1739 -0.3762 -0.6083
  390TIP3    H122585   4.736   2.837   3.472 -0.0542 -0.7612 -2.4853
  390TIP3    H222586   4.854   2.774   3.401  2.5310  2.4362 -1.2446
  391TIP3   OH222587   3.588   5.589  15.486  0.2265  0.4433  0.2280
  391TIP3    H122588   3.509   5.576  15.432  0.1405 -4.1191  1.0998
  391TIP3    H222589   3.661   5.582  15.425  0.0382 -1.3454  0.1696
  392TIP3   OH222590   0.296   1.730  10.888 -0.3461  0.3097 -0.5627
  392TIP3    H122591   0.373   1.682  10.857 -0.2625  0.1041 -0.0561
  392TIP3    H222592   0.284   1.800  10.824 -1.7423 -1.5774 -2.5041
  393TIP3   OH222593   0.808   5.913  16.162 -0.4506 -0.1803  0.0546
  393TIP3    H122594   0.762   5.951  16.237  0.5130 -0.6196  0.8918
  393TIP3    H222595   0.897   5.946  16.169 -0.6982  1.0106 -1.7942
  394TIP3   OH222596   5.865   1.680  14.854 -0.6702  0.5564 -0.0144
  394TIP3    H122597   5.806   1.667  14.780  0.5026 -2.9836 -0.5107
  394TIP3    H222598   5.910   1.762  14.834 -1.9672  0.8529 -2.0625
  395TIP3   OH222599   5.924   1.833   4.632 -0.6016  0.8489 -0.4184
  395TIP3    H122600   5.902   1.848   4.540  0.6031  2.9731 -0.4313
  395TIP3    H222601   5.841   1.809   4.673 -1.5841  1.9753 -1.6666
  396TIP3   OH222602   3.790   2.640  14.676  0.2241 -0.3966  0.4579
  396TIP3    H122603   3.824   2.729  14.687 -0.6711  0.0094  0.0078
  396TIP3    H222604   3.777   2.630  14.582 -0.4729 -0.6967  0.5788
  397TIP3   OH222605   5.937   3.334   2.533 -0.1268  0.2101 -0.2577
  397TIP3    H122606   5.943   3.429   2.519  4.2584  0.0524 -1.0254
  397TIP3    H222607   5.981   3.320   2.617 -0.4054 -1.1576 -0.3210
  398TIP3   OH222608   3.280   5.196  15.266 -0.2359  0.8784  0.0972
  398TIP3    H122609   3.279   5.118  15.211 -0.0970  1.5815 -0.9444
  398TIP3    H222610   3.248   5.167  15.351  0.3014 -0.4158 -0.1202
  399TIP3   OH222611   4.307   4.376   1.225 -0.5706 -0.1371  0.4389
  399TIP3    H122612   4.324   4.308   1.159 -0.8907  0.2387 -0.0339
  399TIP3    H222613   4.394   4.408   1.249 -0.2072 -2.1876  2.2748
  400TIP3   OH222614   3.015   0.729   3.041 -0.2218  0.6410 -0.1700
  400TIP3    H122615   3.007   0.779   2.960  1.1977 -0.9673 -1.3825
  400TIP3    H222616   2.935   0.677   3.045  0.0230  0.1788 -0.9746
  401TIP3   OH222617   5.854   5.203   0.412 -0.0117  0.1909 -0.2229
  401TIP3    H122618   5.908   5.265   0.363  0.8549 -0.3770  0.0084
  401TIP3    H222619   5.827   5.138   0.346  0.4928 -0.1310 -0.1118
  402TIP3   OH222620   5.918   1.846  13.307  0.2190 -0.6126  0.4656
  402TIP3    H122621   5.829   1.866  13.334  0.4955  2.4401 -0.5600
  402TIP3    H222622   5.973   1.886  13.375  0.7989  0.1320 -0.4175
  403TIP3   OH222623   0.678   5.663   6.106 -0.0482  0.2698 -0.2201
  403TIP3    H122624   0.603   5.662   6.165 -1.1916  0.4025 -1.6157
  403TIP3    H222625   0.728   5.741   6.131  1.1205 -1.1940  2.4414
  404TIP3   OH222626   4.732   0.301   4.666  0.0986  0.1800 -0.0698
  404TIP3    H122627   4.778   0.247   4.731 -0.3157  0.0281  0.1064
  404TIP3    H222628   4.661   0.342   4.716  1.4739  2.3431  0.2201
  405TIP3   OH222629   2.939   6.757  12.101  0.4825  0.0321 -0.5914
  405TIP3    H122630   2.915   6.833  12.048 -0.5752  0.1270 -0.0152
  405TIP3    H222631   2.868   6.695  12.087  0.3346 -0.0576  0.4634
  406TIP3   OH222632   4.459   0.660   4.320  0.1276  0.2801 -0.1227
  406TIP3    H122633   4.536   0.612   4.289 -1.2620 -1.5081 -1.0317
  406TIP3    H222634   4.411   0.597   4.373 -1.2149  1.0257 -0.4026
  407TIP3   OH222635   3.085   3.685  12.973 -0.0220 -0.5517 -0.5403
  407TIP3    H122636   3.177   3.682  12.946  1.0026 -2.1978  2.6797
  407TIP3    H222637   3.055   3.594  12.969 -0.8093 -0.3608  0.5071
  408TIP3   OH222638   3.973   3.543   3.707  0.6019  0.4363  0.5352
  408TIP3    H122639   4.041   3.490   3.751  0.7673 -0.1850 -0.4437
  408TIP3    H222640   3.967   3.622   3.760  3.0512  1.1053 -0.0589
  409TIP3   OH222641   2.321   0.912   2.746  0.2393  0.2228  0.2710
  409TIP3    H122642   2.416   0.917   2.754  0.3225 -1.4393  0.5856
  409TIP3    H222643   2.296   0.836   2.798 -1.4872  1.7726  1.8767
  410TIP3   OH222644   1.858   2.955  16.023 -0.3204  0.1990  0.1704
  410TIP3    H122645   1.860   3.022  16.092  0.1635  1.2868 -0.8723
  410TIP3    H222646   1.812   2.996  15.950 -1.8585 -1.3376  0.1904
  411TIP3   OH222647   6.777   4.298   4.680  0.0936 -0.3471 -0.0103
  411TIP3    H122648   6.683   4.288   4.698 -0.8601  0.9718 -3.5610
  411TIP3    H222649   6.806   4.362   4.744 -1.7668  0.2598  0.2942
  412TIP3   OH222650   2.291   0.526  11.965  0.3789  0.4211  0.7157
  412TIP3    H122651   2.267   0.600  11.909  2.0062  2.0492  2.0518
  412TIP3    H222652   2.221   0.522  12.030  0.7658  1.4479  1.2142
  413TIP3   OH222653   5.908   2.547  13.229 -0.4166 -0.5045  0.1206
  413TIP3    H122654   5.940   2.614  13.168  0.0704 -0.8048  0.0415
  413TIP3    H222655   5.840   2.501  13.180  1.6685 -2.3874 -1.1478
  414TIP3   OH222656   4.332   4.147  12.693  0.1986  0.1286 -0.3051
  414TIP3    H122657   4.266   4.102  12.640  0.7225 -0.9071 -0.1127
  414TIP3    H222658   4.285   4.220  12.734 -1.0737 -1.1453  0.5922
  415TIP3   OH222659   0.675   0.946   5.061  0.4381  0.0424  0.0811
  415TIP3    H122660   0.625   0.947   4.980  0.4969 -1.3010 -0.0020
  415TIP3    H222661   0.670   1.036   5.094  0.4082  0.6073 -1.3887
  416TIP3   OH222662   1.832   0.056   1.057 -0.3337 -0.2307  0.4054
  416TIP3    H122663   1.879   0.041   0.975 -0.1100 -1.3542  0.7234
  416TIP3    H222664   1.900   0.083   1.119 -0.3560 -0.2798  0.4514
  417TIP3   OH222665   4.046   5.644   2.186 -0.1138  0.2059  0.0526
  417TIP3    H122666   4.027   5.614   2.275 -1.1127 -2.1338 -0.8677
  417TIP3    H222667   4.141   5.632   2.176 -0.2960 -1.5832  0.1522
  418TIP3   OH222668   5.427   3.708   2.407  0.1501  0.0040  0.0346
  418TIP3    H122669   5.462   3.784   2.361 -2.5863 -0.0476 -2.4113
  418TIP3    H222670   5.393   3.743   2.489  1.0156  0.9724  0.0016
  419TIP3   OH222671   0.418   3.241  13.577 -0.2746  0.2872  0.3286
  419TIP3    H122672   0.341   3.271  13.530 -0.5036 -2.8462 -1.5836
  419TIP3    H222673   0.468   3.191  13.512  1.1533 -1.4286  2.5962
  420TIP3   OH222674   3.794   5.432   4.972 -0.0746  0.2937 -0.0268
  420TIP3    H122675   3.704   5.410   4.996 -0.4258  1.6235 -0.0706
  420TIP3    H222676   3.793   5.526   4.954  1.3356  0.3459  0.0065
  421TIP3   OH222677   2.070   2.359   5.947  0.3800 -0.4685  0.1047
  421TIP3    H122678   1.997   2.414   5.976  2.5158  2.1992  0.8481
  421TIP3    H222679   2.062   2.280   6.001 -2.5643 -0.8423 -0.6871
  422TIP3   OH222680   2.354   6.149   1.985 -0.0608 -0.7931  0.0181
  422TIP3    H122681   2.331   6.220   1.925 -1.2492 -1.1252  0.0495
  422TIP3    H222682   2.420   6.187   2.043  1.5016 -0.6164 -1.7887
  423TIP3   OH222683   0.408   3.104  14.845 -0.4606  0.3653 -0.3396
  423TIP3    H122684   0.424   3.038  14.777  0.3999 -2.6048  2.4629
  423TIP3    H222685   0.489   3.154  14.848  0.2191 -0.6922 -0.3184
  424TIP3   OH222686   5.988   2.677   0.498 -0.5062 -0.0779  0.0429
  424TIP3    H122687   6.065   2.730   0.480 -1.0922  0.1952 -1.8850
  424TIP3    H222688   5.933   2.733   0.554 -1.0784  1.3967 -1.8976
  425TIP3   OH222689   3.319   6.508  11.702  0.3490  0.2650  0.0302
  425TIP3    H122690   3.342   6.545  11.617  0.9130 -0.5758 -0.1936
  425TIP3    H222691   3.396   6.524  11.757  0.4666 -0.2731  0.0246
  426TIP3   OH222692   6.193   4.766   0.003  0.0943 -0.5187  0.3098
  426TIP3    H122693   6.104   4.739   0.025 -1.6462  1.3579 -3.6074
  426TIP3    H222694   6.213   4.836   0.066 -1.9636  0.2863  0.1423
  427TIP3   OH222695   5.849   5.857  15.609 -0.4752  0.2146 -0.5831
  427TIP3    H122696   5.849   5.947  15.577  2.2392  0.4213 -0.1965
  427TIP3    H222697   5.831   5.804  15.532  0.8542  0.9585 -1.4309
  428TIP3   OH222698   6.764   4.397  14.363 -0.0477  0.1899 -0.1467
  428TIP3    H122699   6.718   4.420  14.282 -1.4059 -0.9677  0.2450
  428TIP3    H222700   6.844   4.450  14.361 -0.7137  1.2314 -1.5553
  429TIP3   OH222701   5.477   2.314  17.141  0.0501  0.3839 -0.3056
  429TIP3    H122702   5.409   2.377  17.116 -0.9383  0.0877  1.4497
  429TIP3    H222703   5.542   2.320  17.071 -0.6927  2.3082 -0.9055
  430TIP3   OH222704   4.349   3.313   6.170 -0.4739 -0.6787 -0.8653
  430TIP3    H122705   4.325   3.221   6.159 -0.3125 -0.7638 -0.5033
  430TIP3    H222706   4.334   3.352   6.083 -2.4594 -0.6032 -0.5461
  431TIP3   OH222707   3.080   2.660   0.172 -0.3326 -0.8534 -0.1250
  431TIP3    H122708   3.077   2.640   0.266 -1.1543 -1.1078 -0.1928
  431TIP3    H222709   3.062   2.577   0.129 -1.4897 -0.4544 -0.4603
  432TIP3   OH222710   4.681   3.033  15.310 -0.7821  0.5034  0.1252
  432TIP3    H122711   4.648   2.993  15.390  2.3572  1.2704  1.9539
  432TIP3    H222712   4.653   3.124  15.314 -0.9160  0.4592  0.1801
  433TIP3   OH222713   2.888   6.750  12.675 -0.1267  0.0285  0.1253
  433TIP3    H122714   2.796   6.769  12.657  0.3875  0.6032 -2.3707
  433TIP3    H222715   2.929   6.835  12.687  0.6325  0.0934 -2.3252
  434TIP3   OH222716   1.684   0.922   3.009 -0.6608 -0.1029  0.0066
  434TIP3    H122717   1.692   1.003   3.060  0.4822 -1.3719  1.9938
  434TIP3    H222718   1.691   0.950   2.918  2.6840  1.8155  0.6612
  435TIP3   OH222719   3.486   0.661  10.979  0.2424  0.2348 -0.1483
  435TIP3    H122720   3.519   0.571  10.973  1.2561  0.4466  1.5298
  435TIP3    H222721   3.534   0.708  10.910  2.5895  0.2475  1.3778
  436TIP3   OH222722   6.170   0.439   0.297  0.7131  0.0109 -0.3213
  436TIP3    H122723   6.265   0.423   0.291  0.5035 -1.3426 -0.4841
  436TIP3    H222724   6.135   0.405   0.214  0.0425  0.1133 -0.0876
  437TIP3   OH222725   4.286   5.266   4.176  0.0381  0.1944  0.2875
  437TIP3    H122726   4.236   5.343   4.202  0.2101  0.2994  0.3138
  437TIP3    H222727   4.370   5.276   4.222  0.1942  0.1730  0.0109
  438TIP3   OH222728   4.646   1.026  16.066 -0.1368  0.3010  0.4469
  438TIP3    H122729   4.680   0.974  16.139  0.1966 -0.2051 -0.0585
  438TIP3    H222730   4.557   0.994  16.053 -0.6092  1.1913  1.3659
  439TIP3   OH222731   3.370   2.332  11.306 -0.0030  0.0833 -0.0955
  439TIP3    H122732   3.285   2.345  11.349  0.0994  0.0440  0.1198
  439TIP3    H222733   3.349   2.327  11.212 -0.1298  1.0902 -0.1331
  440TIP3   OH222734   0.941   1.072  11.954 -0.1932  0.3910 -0.2143
  440TIP3    H122735   1.013   1.041  12.008  1.1748 -1.1463 -2.7413
  440TIP3    H222736   0.979   1.144  11.903 -0.5178 -0.1740 -1.2852
  441TIP3   OH222737   5.641   1.111  11.911  0.4960 -0.0271 -0.5535
  441TIP3    H122738   5.627   1.206  11.903 -2.0026 -0.2372  0.3075
  441TIP3    H222739   5.669   1.098  12.001 -1.1800 -0.2472 -0.0388
  442TIP3   OH222740   4.516   0.678  12.506  0.1919  0.0446  0.0207
  442TIP3    H122741   4.452   0.706  12.440  0.2389  1.9810  0.7297
  442TIP3    H222742   4.465   0.629  12.570  0.2124 -2.2566 -1.5925
  443TIP3   OH222743   6.451   2.974   0.329  0.3774  0.3883  0.2878
  443TIP3    H122744   6.386   2.905   0.323 -1.4709  2.1100 -0.6606
  443TIP3    H222745   6.426   3.036   0.261  1.3371  2.4868  1.7483
  444TIP3   OH222746   1.826   4.090   2.197 -0.1108  0.2320  0.2693
  444TIP3    H122747   1.859   4.161   2.143  0.2905 -0.2020 -0.0659
  444TIP3    H222748   1.784   4.133   2.271 -0.4392  0.8310 -0.2554
  445TIP3   OH222749   6.005   0.328  12.381  0.8245 -0.3604 -0.1914
  445TIP3    H122750   6.035   0.337  12.472  1.8129 -1.4444 -0.3883
  445TIP3    H222751   6.070   0.375  12.329  1.8459 -2.0624 -0.5493
  446TIP3   OH222752   0.798   1.212  16.204  0.7116 -0.1701  0.1368
  446TIP3    H122753   0.716   1.164  16.199  1.1175 -0.9040  0.3603
  446TIP3    H222754   0.780   1.286  16.263 -0.0107  0.1549 -0.4839
  447TIP3   OH222755   5.484   6.181   2.797 -0.2203  0.3490  0.8082
  447TIP3    H122756   5.404   6.222   2.764 -0.2937  0.9583  1.7224
  447TIP3    H222757   5.542   6.177   2.721 -1.8436 -2.0436 -0.4444
  448TIP3   OH222758   4.380   0.136  13.018  0.2265 -0.7786  0.6987
  448TIP3    H122759   4.342   0.170  13.099  1.1304 -1.7448  1.5610
  448TIP3    H222760   4.308   0.135  12.956 -0.1524  1.4137  1.0144
  449TIP3   OH222761   1.412   5.815   5.837 -0.2701  0.7024 -0.1078
  449TIP3    H122762   1.430   5.853   5.923 -0.3188 -2.2195  1.3307
  449TIP3    H222763   1.342   5.869   5.801 -0.1995  2.0642  1.6264
  450TIP3   OH222764   2.503   1.995  11.912 -0.6963  0.0746 -0.1412
  450TIP3    H122765   2.537   1.908  11.890  1.6638  1.1138 -0.9521
  450TIP3    H222766   2.514   2.045  11.831  1.0389  1.9581  1.1574
  451TIP3   OH222767   3.390   4.279  12.029  0.2575 -0.3166 -0.3848
  451TIP3    H122768   3.358   4.289  12.119 -2.2855 -0.5780 -1.1782
  451TIP3    H222769   3.449   4.353  12.016 -0.3796  0.4948  1.0532
  452TIP3   OH222770   1.601   2.607  12.022 -0.0816 -0.0625  0.1651
  452TIP3    H122771   1.526   2.594  12.081  2.0351 -0.4611  2.9990
  452TIP3    H222772   1.647   2.683  12.059  0.4218  0.8396 -2.1386
  453TIP3   OH222773   2.804   5.221   5.181 -0.1725  0.2123  0.3386
  453TIP3    H122774   2.858   5.142   5.177  1.0471  0.9863  1.0031
  453TIP3    H222775   2.727   5.199   5.129  0.2091 -1.3589  0.3733
  454TIP3   OH222776   4.815   6.219  14.032 -0.2096  0.1014 -0.2108
  454TIP3    H122777   4.814   6.309  14.000  0.5150  0.3937  0.5161
  454TIP3    H222778   4.874   6.222  14.108 -1.9070 -0.5150  1.2083
  455TIP3   OH222779   3.736   5.190  15.057  0.5681 -0.0048  0.3337
  455TIP3    H122780   3.809   5.181  14.996  0.6142 -0.2816  0.4319
  455TIP3    H222781   3.730   5.285  15.073 -0.1566  0.1999 -0.9656
  456TIP3   OH222782   1.260   1.816   3.206 -0.4384  0.2944 -0.2274
  456TIP3    H122783   1.198   1.805   3.134 -2.0541  1.2583  0.9318
  456TIP3    H222784   1.205   1.818   3.285  1.0765  1.1696  0.8653
  457TIP3   OH222785   2.265   3.801   6.240  0.2734 -1.0831 -0.5797
  457TIP3    H122786   2.326   3.743   6.285  2.6671  0.3332 -1.7829
  457TIP3    H222787   2.241   3.753   6.161  2.0768 -0.5934 -1.4698
  458TIP3   OH222788   4.992   2.113  16.669  0.5558  0.7195 -0.0373
  458TIP3    H122789   4.898   2.116  16.684  0.3654  0.6167 -1.1244
  458TIP3    H222790   5.019   2.205  16.671  0.6588  0.6774  1.5085
  459TIP3   OH222791   1.361   6.211   2.406  0.1235  0.0027  0.6150
  459TIP3    H122792   1.426   6.149   2.373 -0.8624 -0.0199 -1.4833
  459TIP3    H222793   1.303   6.159   2.461 -0.0999 -0.7579 -0.3085
  460TIP3   OH222794   0.676   2.923  12.237  0.2831 -0.0596 -0.0853
  460TIP3    H122795   0.639   2.918  12.325 -0.3803  0.3197 -0.3382
  460TIP3    H222796   0.600   2.915  12.179  0.5894  0.8256 -0.6105
  461TIP3   OH222797   2.541   1.568   1.362 -0.1764 -0.0431 -0.5005
  461TIP3    H122798   2.538   1.492   1.420  3.0794  0.4520  0.5630
  461TIP3    H222799   2.606   1.546   1.296  1.6571  2.0933  0.4507
  462TIP3   OH222800   4.615   1.016  13.319 -0.2446  0.6068  0.2398
  462TIP3    H122801   4.568   0.967  13.252  0.6464 -0.0795  0.0977
  462TIP3    H222802   4.589   0.975  13.402  1.0894 -0.6663  0.0697
  463TIP3   OH222803   0.512   1.832  11.460  0.4376 -0.1905  0.1450
  463TIP3    H122804   0.432   1.817  11.410  0.6500 -0.2607 -0.1698
  463TIP3    H222805   0.480   1.862  11.546  0.0737 -0.2346  0.0281
  464TIP3   OH222806   4.318   1.034  11.445 -0.7112 -0.0479  0.5201
  464TIP3    H122807   4.340   0.951  11.402 -0.0005 -1.2852  3.0354
  464TIP3    H222808   4.233   1.018  11.486 -0.9741  0.7806  0.3139
  465TIP3   OH222809   3.667   1.213  14.466  0.0122 -0.0581 -0.5467
  465TIP3    H122810   3.629   1.126  14.455  0.8204 -0.2243 -2.3822
  465TIP3    H222811   3.756   1.195  14.499  0.2104  0.0534 -1.0124
  466TIP3   OH222812   3.213   2.549   5.144 -0.0600 -0.4031 -0.5235
  466TIP3    H122813   3.303   2.579   5.146 -0.6619  1.5177 -0.1373
  466TIP3    H222814   3.193   2.527   5.235  0.3186 -1.9099 -0.7748
  467TIP3   OH222815   4.287   0.384   5.140 -0.0131 -0.6347  0.3602
  467TIP3    H122816   4.351   0.453   5.150  0.0082 -0.4646 -0.8428
  467TIP3    H222817   4.207   0.420   5.178 -0.1641  0.3132 -0.7749
  468TIP3   OH222818   6.442   1.865   0.868 -0.2605 -0.0500 -0.0786
  468TIP3    H122819   6.421   1.874   0.775 -0.1039  2.1988  0.0622
  468TIP3    H222820   6.369   1.814   0.904 -1.0404  0.2425 -1.1779
  469TIP3   OH222821   3.749   1.089  16.545 -0.5126 -0.1885 -0.3269
  469TIP3    H122822   3.698   1.031  16.602 -0.0211  0.2056  0.5309
  469TIP3    H222823   3.764   1.037  16.466  0.8998 -1.6888  0.8567
  470TIP3   OH222824   0.737   6.111  14.086 -0.0246 -0.1060  0.5970
  470TIP3    H122825   0.686   6.074  14.013  1.0541 -0.6751  0.1211
  470TIP3    H222826   0.698   6.198  14.099 -2.6536 -1.3326  1.7883
  471TIP3   OH222827   0.625   2.650  15.416  0.2695 -0.3035  0.3515
  471TIP3    H122828   0.618   2.688  15.328  0.3405 -0.5599  0.2345
  471TIP3    H222829   0.607   2.723  15.475 -1.2452 -0.4510  0.1114
  472TIP3   OH222830   3.287   4.409  11.212 -0.5097 -0.5984  0.0225
  472TIP3    H122831   3.251   4.375  11.130 -1.7100 -0.0687  0.3073
  472TIP3    H222832   3.225   4.475  11.240  0.1766 -0.3738  1.0816
  473TIP3   OH222833   1.150   3.761   1.828  0.2370 -0.5743 -0.3612
  473TIP3    H122834   1.240   3.782   1.804  0.9041  0.1682  2.3565
  473TIP3    H222835   1.155   3.673   1.865 -0.0233 -0.3494  0.2346
  474TIP3   OH222836   6.566   1.994   4.897  0.5832 -0.3691  0.1081
  474TIP3    H122837   6.614   1.926   4.849  2.1746 -0.2874  1.5144
  474TIP3    H222838   6.530   1.948   4.973 -1.0453 -0.2803 -0.5849
  475TIP3   OH222839   2.508   1.046  12.564  0.1228  0.1593  0.0203
  475TIP3    H122840   2.460   1.107  12.620  0.3713 -0.5470  1.0369
  475TIP3    H222841   2.600   1.056  12.590  0.4519  0.9480 -1.3717
  476TIP3   OH222842   4.156   4.510   0.303  0.3175 -0.2570  0.3143
  476TIP3    H122843   4.136   4.425   0.264  0.9860  0.7847 -2.5965
  476TIP3    H222844   4.071   4.553   0.312  0.0679 -0.8656  0.8822
  477TIP3   OH222845   1.526   2.866  13.164  0.7051 -0.0299  0.4568
  477TIP3    H122846   1.556   2.777  13.148  1.8220  0.5438 -0.8768
  477TIP3    H222847   1.434   2.856  13.190  0.5585 -1.5152 -0.5069
  478TIP3   OH222848   6.006   3.538   1.262  0.1503  0.2831 -0.0680
  478TIP3    H122849   5.923   3.519   1.219  0.4001  2.0611 -1.4521
  478TIP3    H222850   6.007   3.633   1.273  1.3918  0.1618  1.2605
  479TIP3   OH222851   0.847   6.102  11.424  0.2436 -0.1457 -0.9727
  479TIP3    H122852   0.829   6.195  11.442 -0.4182 -0.2637 -0.9842
  479TIP3    H222853   0.794   6.082  11.347  1.3321 -0.2232 -1.7150
  480TIP3   OH222854   5.063   2.522   5.982 -0.0692  0.0331  1.1438
  480TIP3    H122855   5.117   2.530   5.903 -1.9110  2.5492  0.0114
  480TIP3    H222856   5.073   2.431   6.009  1.9407 -0.4714 -1.0015
  481TIP3   OH222857   4.594   2.247  16.406 -0.3527 -0.0041 -0.2092
  481TIP3    H122858   4.504   2.214  16.401  0.3893 -2.1658 -0.5588
  481TIP3    H222859   4.608   2.292  16.324 -0.9483 -0.1503 -0.3952
  482TIP3   OH222860   0.125   3.083  11.442 -0.0103  0.2342  0.4035
  482TIP3    H122861   0.041   3.055  11.405  0.1866  0.7504 -0.4404
  482TIP3    H222862   0.111   3.176  11.463  1.0062  0.9300 -1.7495
  483TIP3   OH222863   3.173   6.414   3.038  0.0186  0.2549 -0.1404
  483TIP3    H122864   3.093   6.376   3.000 -0.5116  0.6697  0.5505
  483TIP3    H222865   3.146   6.445   3.124  1.3327 -1.1798  0.8516
  484TIP3   OH222866   4.060   3.695   4.767  0.2582  0.1643 -0.1168
  484TIP3    H122867   4.075   3.789   4.774 -0.5907  0.2802  0.1715
  484TIP3    H222868   3.997   3.685   4.696 -0.8083 -0.0653  0.8501
  485TIP3   OH222869   0.795   6.158   3.058 -0.8129 -0.0817 -0.0918
  485TIP3    H122870   0.877   6.109   3.061 -0.4277  0.5572  0.0164
  485TIP3    H222871   0.809   6.232   3.117 -1.2479  0.3545 -0.5230
  486TIP3   OH222872   6.151   2.917   5.141  0.4694 -0.2487 -0.4060
  486TIP3    H122873   6.086   2.853   5.112 -1.5954  2.2291 -1.5759
  486TIP3    H222874   6.157   2.903   5.236  0.0434 -2.0709 -0.6066
  487TIP3   OH222875   2.168   3.158  10.511  0.1328  0.0692 -0.3427
  487TIP3    H122876   2.129   3.212  10.580  0.6460  0.0073  0.0028
  487TIP3    H222877   2.255   3.196  10.497 -0.1013  0.2960 -1.2059
  488TIP3   OH222878   6.361   6.586   1.046  0.2616 -0.1095  0.0967
  488TIP3    H122879   6.278   6.538   1.040  0.5783 -0.5876 -0.4793
  488TIP3    H222880   6.426   6.520   1.066  0.5790  0.2010  0.0983
  489TIP3   OH222881   3.242   4.133   4.196 -0.5143 -0.2071  0.5382
  489TIP3    H122882   3.188   4.203   4.233 -2.1779 -0.9801 -0.3141
  489TIP3    H222883   3.298   4.105   4.268  0.9125  2.6219  0.6471
  490TIP3   OH222884   1.925   6.496   5.129  0.0117 -0.1380 -0.1613
  490TIP3    H122885   1.958   6.544   5.204  1.8508 -0.4237 -0.7283
  490TIP3    H222886   1.925   6.404   5.157 -1.7193 -0.0218  0.3021
  491TIP3   OH222887   0.616   2.726   1.601 -0.0114  0.3686 -1.2718
  491TIP3    H122888   0.688   2.770   1.556  0.4689  2.0222  0.9379
  491TIP3    H222889   0.538   2.777   1.579 -0.0458  0.2263 -1.4809
  492TIP3   OH222890   0.927   3.444  13.370 -0.2131 -0.6549 -0.0785
  492TIP3    H122891   0.984   3.486  13.305  0.9851  1.6942  2.3170
  492TIP3    H222892   0.845   3.494  13.366 -0.2406 -0.6936  0.0032
  493TIP3   OH222893   0.987   4.004  11.204  0.4322  0.0356  0.0078
  493TIP3    H122894   1.022   4.092  11.215  0.6942  0.2483 -2.1457
  493TIP3    H222895   0.893   4.017  11.190  0.2655 -0.1528  0.8560
  494TIP3   OH222896   1.512   0.613   2.890 -0.1564 -0.0501  0.2606
  494TIP3    H122897   1.492   0.541   2.950  0.9702  0.3569  1.1619
  494TIP3    H222898   1.442   0.676   2.904  0.1194  0.0621  1.2021
  495TIP3   OH222899   4.015   0.921   2.041 -0.0238 -0.4402 -0.0561
  495TIP3    H122900   4.041   0.835   2.074  0.7566  0.0327  0.6117
  495TIP3    H222901   4.088   0.949   1.985 -1.0298 -0.9334 -1.6970
  496TIP3   OH222902   5.480   3.173   2.006 -0.1520 -0.5305  0.0197
  496TIP3    H122903   5.477   3.249   2.064  0.9379  0.2185 -0.8771
  496TIP3    H222904   5.543   3.114   2.048 -0.5790 -0.7147  0.4204
  497TIP3   OH222905   1.385   5.471   3.977  0.7905 -0.5420  0.1624
  497TIP3    H122906   1.343   5.540   3.926  0.7751  0.2261  1.1875
  497TIP3    H222907   1.454   5.438   3.919  0.7975  0.3267 -0.3465
  498TIP3   OH222908   4.213   5.688  16.807 -0.1790  0.1788  0.3813
  498TIP3    H122909   4.255   5.691  16.894  1.5425  1.5297 -0.4223
  498TIP3    H222910   4.199   5.780  16.785 -2.6003 -0.1862  0.0737
  499TIP3   OH222911   5.157   5.382  11.852  0.0648  0.4848 -0.1989
  499TIP3    H122912   5.114   5.453  11.805  1.4761  0.7660 -1.1126
  499TIP3    H222913   5.251   5.401  11.845  0.4349 -0.9800  0.3279
  500TIP3   OH222914   3.360   0.587   4.302  0.5762  0.5208  0.1966
  500TIP3    H122915   3.454   0.579   4.319  0.8087 -1.1478 -1.5259
  500TIP3    H222916   3.353   0.598   4.207 -0.9877  0.2213  0.2442
  501TIP3   OH222917   0.391   4.267   2.992  0.2046  0.5433 -0.5840
  501TIP3    H122918   0.331   4.209   3.040  0.9649  0.8250  0.7747
  501TIP3    H222919   0.356   4.270   2.903 -0.6195 -0.9217 -0.3466
  502TIP3   OH222920   4.719   0.212   3.720  0.1870  0.5685  0.1652
  502TIP3    H122921   4.717   0.172   3.807 -0.3041  0.4189  0.0903
  502TIP3    H222922   4.682   0.299   3.733  2.2035  1.4141  0.5191
  503TIP3   OH222923   6.635   0.998  11.739 -0.1852 -0.8321 -0.8841
  503TIP3    H122924   6.640   1.088  11.705 -0.8801  0.4977  2.2294
  503TIP3    H222925   6.725   0.974  11.758  0.0246 -0.9228 -1.9168
  504TIP3   OH222926   1.095   0.683   0.132 -0.6434 -0.6530 -0.3116
  504TIP3    H122927   1.006   0.650   0.144 -1.4612  1.1785 -0.9316
  504TIP3    H222928   1.085   0.759   0.073  1.2809 -0.1870 -0.1182
  505TIP3   OH222929   6.001   1.578   3.702 -0.3306  0.0667 -0.5843
  505TIP3    H122930   6.014   1.659   3.753 -0.5682 -0.1317 -0.2038
  505TIP3    H222931   5.919   1.542   3.735  0.0561 -0.6227 -0.3576
  506TIP3   OH222932   5.359   6.300   5.113  0.0722 -0.1974  0.9455
  506TIP3    H122933   5.264   6.304   5.114 -0.1127 -2.6939  0.0689
  506TIP3    H222934   5.381   6.218   5.157  1.9424  0.9388  2.3427
  507TIP3   OH222935   5.087   2.970  14.770  0.4327 -0.1863  0.0185
  507TIP3    H122936   5.156   2.968  14.836 -0.9483 -1.2022  1.4960
  507TIP3    H222937   5.100   2.890  14.719  0.1822 -0.5118  0.4658
  508TIP3   OH222938   3.015   6.501  15.633  0.6128 -0.4238 -0.6559
  508TIP3    H122939   3.084   6.435  15.639 -0.2067 -1.2235  0.6293
  508TIP3    H222940   2.974   6.500  15.719 -0.3718  0.7333 -1.0830
  509TIP3   OH222941   6.409   0.831   5.865  0.1142  0.2818  0.1260
  509TIP3    H122942   6.376   0.852   5.952 -0.3691  0.9075 -0.1992
  509TIP3    H222943   6.488   0.780   5.881 -0.1433  0.1247  0.9274
  510TIP3   OH222944   3.614   5.857   2.216  0.0781 -0.0032  0.1307
  510TIP3    H122945   3.649   5.927   2.161 -3.7810  0.8326 -1.5895
  510TIP3    H222946   3.531   5.892   2.249  0.6521 -1.7567  3.9188
  511TIP3   OH222947   5.986   2.110   1.647 -0.3092 -0.6186 -0.5384
  511TIP3    H122948   6.036   2.136   1.569  0.7904 -1.0446  0.0094
  511TIP3    H222949   5.959   2.020   1.629  0.4987 -0.9396 -0.1581
  512TIP3   OH222950   5.258   0.317  16.030 -0.4393 -0.2304  0.0634
  512TIP3    H122951   5.230   0.381  15.965 -1.7747 -0.7810  0.0512
  512TIP3    H222952   5.310   0.367  16.092  1.0027  0.2773 -1.4890
  513TIP3   OH222953   0.031   5.586   2.526 -0.2529 -0.8324  0.5422
  513TIP3    H122954  -0.042   5.549   2.476 -0.0948  0.3465 -0.6427
  513TIP3    H222955   0.066   5.513   2.577 -2.3132 -1.3996  1.2233
  514TIP3   OH222956   4.375   5.881   3.189 -0.0730  0.5173 -0.1018
  514TIP3    H122957   4.461   5.842   3.177  0.0561  0.0850  1.9224
  514TIP3    H222958   4.393   5.967   3.226 -0.5105  0.1944  0.8853
  515TIP3   OH222959   1.565   2.612  16.989 -0.0279  0.1800  0.3164
  515TIP3    H122960   1.644   2.645  16.947  0.1558  0.7268  1.0681
  515TIP3    H222961   1.555   2.665  17.068 -1.3175  0.3272  0.0832
  516TIP3   OH222962   5.914   0.629   2.567 -0.3900  0.2851 -0.3397
  516TIP3    H122963   5.939   0.713   2.528  0.1327 -0.3073 -1.3222
  516TIP3    H222964   5.820   0.624   2.552 -0.2517  0.2155 -1.2771
  517TIP3   OH222965   1.593   4.689  11.044 -0.2686  0.1429 -0.5274
  517TIP3    H122966   1.617   4.780  11.025  0.3386 -0.0577 -0.7350
  517TIP3    H222967   1.601   4.644  10.961  0.4589 -0.3129 -0.2269
  518TIP3   OH222968   6.034   1.332  11.991  0.0804  0.1515  0.7991
  518TIP3    H122969   6.094   1.353  11.919 -0.8386 -0.5516 -0.2107
  518TIP3    H222970   6.008   1.241  11.974 -1.7795  0.6388  0.8096
  519TIP3   OH222971   0.318   5.702  16.996 -0.0524  0.2011 -0.1865
  519TIP3    H122972   0.379   5.668  17.062 -0.8213 -0.4075  0.2263
  519TIP3    H222973   0.235   5.711  17.042 -1.1362 -2.0918 -1.4789
  520TIP3   OH222974   2.628   2.882  16.588  0.8853 -0.1514 -0.6065
  520TIP3    H122975   2.623   2.788  16.606  1.6187 -0.1417 -0.2994
  520TIP3    H222976   2.544   2.917  16.616 -0.3986 -1.0688 -3.0692
  521TIP3   OH222977   0.608   1.901   2.055 -0.2083 -0.6168  0.4961
  521TIP3    H122978   0.530   1.946   2.088  0.8934  1.5150  0.3888
  521TIP3    H222979   0.602   1.910   1.960  1.1035  1.3867  0.5416
  522TIP3   OH222980   4.600   4.573   5.178 -0.0006 -0.0319 -0.3421
  522TIP3    H122981   4.589   4.516   5.254  1.1400  1.8184  1.3027
  522TIP3    H222982   4.639   4.517   5.111 -2.5003 -2.1162 -0.2233
  523TIP3   OH222983   1.849   4.941   0.975 -0.2858  0.0752  0.1708
  523TIP3    H122984   1.931   4.949   1.024 -0.1578 -0.2171  0.0095
  523TIP3    H222985   1.811   4.859   1.007 -1.1637  0.8589  1.2038
  524TIP3   OH222986   4.048   1.331  11.348 -0.5905  0.4792  0.4568
  524TIP3    H122987   4.070   1.415  11.388 -1.2245  0.8629  0.0173
  524TIP3    H222988   4.017   1.277  11.420  0.4190  0.4045  0.8481
  525TIP3   OH222989   2.347   1.023   0.671 -0.3236 -0.2902 -0.1107
  525TIP3    H122990   2.412   1.011   0.602 -0.0330 -0.5284  0.2041
  525TIP3    H222991   2.280   0.957   0.652 -0.1627 -0.4669 -0.0765
  526TIP3   OH222992   6.389   2.044  15.188 -0.5605 -0.1646 -0.0310
  526TIP3    H122993   6.326   1.995  15.135  1.2199 -0.8788 -1.6132
  526TIP3    H222994   6.401   2.126  15.141  0.1418 -0.3084 -0.1188
  527TIP3   OH222995   2.021   3.155  14.447 -0.0405  0.1623 -0.1562
  527TIP3    H122996   2.014   3.211  14.524 -0.6787 -0.6952  0.4190
  527TIP3    H222997   2.107   3.176  14.410 -0.3086  1.6056 -0.0312
  528TIP3   OH222998   3.058   0.308  10.744  0.0370 -0.0269  0.4882
  528TIP3    H122999   3.136   0.266  10.708 -0.3481 -0.1713 -0.1892
  528TIP3    H223000   3.065   0.399  10.716 -0.1084 -0.0711  0.3087
  529TIP3   OH223001   5.396   4.067  14.267  0.2430  0.2300  0.4122
  529TIP3    H123002   5.325   4.115  14.225 -0.1621 -0.9585 -0.3169
  529TIP3    H223003   5.369   4.058  14.359 -1.2665 -1.4116 -0.1304
  530TIP3   OH223004   2.509   1.614   2.350  0.2704  0.2479  0.0951
  530TIP3    H123005   2.558   1.556   2.291  0.5084 -0.7617  1.2284
  530TIP3    H223006   2.467   1.554   2.412 -0.1370  1.2601  0.8178
  531TIP3   OH223007   3.991   0.074  11.577  0.5743  0.1618  0.5473
  531TIP3    H123008   4.041   0.156  11.572  0.9704 -0.0397  1.0289
  531TIP3    H223009   3.925   0.091  11.645  0.9804 -0.0832  1.0061
  532TIP3   OH223010   2.498   5.035  12.426 -0.2628  0.0614  0.6061
  532TIP3    H123011   2.537   4.963  12.475 -0.2685  0.4718  1.2232
  532TIP3    H223012   2.435   5.074  12.486 -0.4066  0.4535  0.2046
  533TIP3   OH223013   1.575   4.695   0.032  0.0724  0.3310 -0.1551
  533TIP3    H123014   1.628   4.636  -0.022  0.1456 -1.0180  1.3167
  533TIP3    H223015   1.632   4.719   0.105 -1.1503 -0.8795  1.2772
  534TIP3   OH223016   2.443   1.679   4.488 -0.3500  0.0892 -0.4505
  534TIP3    H123017   2.424   1.619   4.560  1.5175  0.5369  0.4740
  534TIP3    H223018   2.468   1.761   4.531 -0.1975  0.6815 -1.6298
  535TIP3   OH223019   1.425   4.494  11.379  0.1016 -0.1876 -0.0816
  535TIP3    H123020   1.449   4.566  11.438 -0.9737 -0.1756  0.3643
  535TIP3    H223021   1.399   4.536  11.298  1.7109 -0.2097 -0.6432
  536TIP3   OH223022   4.737   1.950   2.770  0.0673 -0.0653  0.1956
  536TIP3    H123023   4.648   1.914   2.760 -0.4810  1.5459 -1.1003
  536TIP3    H223024   4.794   1.874   2.760 -1.0870 -0.7830 -1.4548
  537TIP3   OH223025   0.505   1.635  13.228 -0.5868  0.2630  0.0346
  537TIP3    H123026   0.437   1.695  13.257 -1.0900 -1.0007  1.5805
  537TIP3    H223027   0.570   1.692  13.186 -3.0366  1.3963 -2.5581
  538TIP3   OH223028   0.985   1.275   3.464 -0.3442  0.2709 -0.2228
  538TIP3    H123029   1.032   1.192   3.463  0.4981  0.6819  1.4607
  538TIP3    H223030   1.037   1.334   3.410  1.0789  0.6792  1.5028
  539TIP3   OH223031   5.947   3.796   1.412  0.3307  0.3867  0.2423
  539TIP3    H123032   5.948   3.889   1.435  1.5648  0.4395  0.0586
  539TIP3    H223033   5.999   3.754   1.481 -1.6496 -0.4528  1.3106
  540TIP3   OH223034   6.720   2.787  12.648  0.0133 -0.1249 -0.3266
  540TIP3    H123035   6.787   2.855  12.656  0.3865 -0.7094  2.5316
  540TIP3    H223036   6.765   2.705  12.669 -1.1232 -0.8118 -0.4577
  541TIP3   OH223037   6.633   4.557  13.853  0.2893  0.1101 -0.9125
  541TIP3    H123038   6.717   4.595  13.878  0.7246 -0.6277 -1.2186
  541TIP3    H223039   6.642   4.538  13.759 -0.1035 -0.2666 -0.8784
  542TIP3   OH223040   1.537   5.839  12.510 -0.4837 -0.8625 -0.0695
  542TIP3    H123041   1.586   5.838  12.427  0.6425 -0.1455  0.5707
  542TIP3    H223042   1.604   5.831  12.578 -1.3850 -1.3424  0.7956
  543TIP3   OH223043   0.955   4.223   3.412 -0.0957 -0.0753 -0.1758
  543TIP3    H123044   0.951   4.132   3.383  0.6309  0.3345 -1.6520
  543TIP3    H223045   0.869   4.258   3.392 -1.0678 -0.8777  2.1620
  544TIP3   OH223046   1.881   5.387   1.880 -0.3130 -0.1766 -0.9115
  544TIP3    H123047   1.799   5.397   1.928 -0.3202 -0.3048 -0.8971
  544TIP3    H223048   1.873   5.302   1.835 -0.4754  0.1298 -1.4731
  545TIP3   OH223049   4.280   0.765   5.643  0.5364  0.7686 -0.5957
  545TIP3    H123050   4.192   0.772   5.679  0.2076  1.2335 -1.4768
  545TIP3    H223051   4.336   0.756   5.720 -0.1439  1.8080  0.0499
  546TIP3   OH223052   2.910   4.082   3.331  0.0243 -0.7869 -0.3120
  546TIP3    H123053   2.883   4.161   3.284 -0.9587 -0.5167  0.6723
  546TIP3    H223054   2.851   4.077   3.406 -0.2532 -2.7141 -0.6004
  547TIP3   OH223055   6.534   2.375  15.670 -0.3062 -0.1261 -0.3833
  547TIP3    H123056   6.481   2.309  15.714 -2.1224  1.0566 -0.6773
  547TIP3    H223057   6.622   2.361  15.703 -1.0481 -1.2730  1.2302
  548TIP3   OH223058   3.471   4.854  12.036 -0.0580 -0.7879 -0.0689
  548TIP3    H123059   3.395   4.913  12.032  1.0932  0.6973 -1.2538
  548TIP3    H223060   3.493   4.838  11.944  0.1734 -2.4373  0.2504
  549TIP3   OH223061   1.661   2.442  11.150 -0.5166  0.5927  0.3729
  549TIP3    H123062   1.709   2.484  11.078 -0.1957 -1.6999 -0.8275
  549TIP3    H223063   1.723   2.439  11.222  1.6967 -3.1258 -1.4129
  550TIP3   OH223064   5.909   3.570   1.620  0.3557 -0.0420  0.0313
  550TIP3    H123065   5.914   3.499   1.683  0.9944 -0.2921 -0.2953
  550TIP3    H223066   5.997   3.608   1.619  0.7061 -0.8435 -1.6245
  551TIP3   OH223067   1.670   4.241   5.838 -0.0431  0.5072  0.2369
  551TIP3    H123068   1.701   4.321   5.880  1.7642  0.4345 -0.8342
  551TIP3    H223069   1.730   4.173   5.871 -0.3451 -0.0421 -0.3327
  552TIP3   OH223070   4.303   5.888  12.005  0.3703 -0.2215  0.4507
  552TIP3    H123071   4.246   5.819  11.972  0.1750  1.1257 -2.2473
  552TIP3    H223072   4.374   5.893  11.942  0.6954  1.6064  0.9021
  553TIP3   OH223073   6.010   5.897   5.474 -0.4237 -0.2595  0.1292
  553TIP3    H123074   6.065   5.908   5.551  0.6862  0.6394 -0.7512
  553TIP3    H223075   5.960   5.817   5.491 -0.1910 -0.0938  1.7458
  554TIP3   OH223076   6.536   2.412   3.570 -0.4785  0.0441  0.2620
  554TIP3    H123077   6.596   2.486   3.563 -1.6357  1.1547  1.5097
  554TIP3    H223078   6.451   2.447   3.543 -0.9471 -0.9866  0.3564
  555TIP3   OH223079   5.785   2.257   1.781 -0.1694  0.3339  0.0270
  555TIP3    H123080   5.844   2.278   1.853 -0.7936  0.1073  0.6103
  555TIP3    H223081   5.831   2.188   1.732 -0.1673 -0.1886  0.7542
  556TIP3   OH223082   3.922   6.302   5.732 -0.2959 -0.6608  0.3311
  556TIP3    H123083   3.880   6.365   5.790 -2.1923 -0.3460 -1.2779
  556TIP3    H223084   3.984   6.255   5.788  0.5532  1.9814  1.8056
  557TIP3   OH223085   5.408   1.754  10.348  0.4086  0.8352 -0.1902
  557TIP3    H123086   5.428   1.843  10.318  0.1307  0.9764  0.0399
  557TIP3    H223087   5.313   1.753  10.358  0.4066  0.4938 -0.2436
  558TIP3   OH223088   5.155   3.774   6.547  0.6495  0.0221  0.9986
  558TIP3    H123089   5.126   3.737   6.463 -0.2008  0.3586  1.1316
  558TIP3    H223090   5.154   3.868   6.534  1.8382  0.0444  0.9772
  559TIP3   OH223091   0.096   6.138  14.279  0.4056  0.1282 -0.0529
  559TIP3    H123092   0.079   6.052  14.241  0.3924  0.1384 -0.0703
  559TIP3    H223093   0.014   6.186  14.268  0.0456 -0.2190  0.9273
  560TIP3   OH223094   2.352   3.139   0.635 -0.6865 -0.4980 -0.3171
  560TIP3    H123095   2.324   3.226   0.607  1.5026  0.3220 -0.1342
  560TIP3    H223096   2.311   3.079   0.572 -0.3612  0.8560 -1.8724
  561TIP3   OH223097   1.787   1.338  15.154 -0.0149  0.0041  0.0750
  561TIP3    H123098   1.847   1.282  15.105 -0.2295 -1.3810  1.3245
  561TIP3    H223099   1.702   1.297  15.144 -0.0390 -0.4170  1.6866
  562TIP3   OH223100   3.966   6.010  16.368 -0.0154  0.7870  0.2836
  562TIP3    H123101   3.884   6.024  16.415 -0.5047  1.7370 -0.8029
  562TIP3    H223102   4.008   5.938  16.414 -0.3987  1.7425  2.2470
  563TIP3   OH223103   2.785   3.750  13.593  0.1736  0.1758  0.6473
  563TIP3    H123104   2.768   3.656  13.589  0.6342  0.0535  1.4416
  563TIP3    H223105   2.756   3.777  13.680  1.5769  0.4484  1.0602
  564TIP3   OH223106   2.215   1.365  13.225  0.1875 -0.1645 -0.0108
  564TIP3    H123107   2.229   1.450  13.267 -0.4872 -0.6362  1.2229
  564TIP3    H223108   2.252   1.302  13.286  0.6902 -0.7734 -0.9253
  565TIP3   OH223109   3.024   2.108  15.740 -0.3581  0.2523 -0.0097
  565TIP3    H123110   3.000   2.046  15.671 -0.1393  1.0264 -0.8043
  565TIP3    H223111   2.943   2.154  15.761 -0.0291  1.5148 -1.3151
  566TIP3   OH223112   4.698   2.476  15.551 -0.0740 -0.1380 -0.6280
  566TIP3    H123113   4.687   2.517  15.637  0.9474  0.3555 -0.7208
  566TIP3    H223114   4.644   2.397  15.555 -0.3530  0.0872  0.3240
  567TIP3   OH223115   2.248   1.376   5.827 -0.0379 -0.1960 -0.0958
  567TIP3    H123116   2.266   1.295   5.780  1.2002 -0.5684  0.9668
  567TIP3    H223117   2.304   1.441   5.786 -0.4725 -0.0439 -0.4554
  568TIP3   OH223118   2.749   5.313   3.090 -0.5588 -0.2257 -0.2744
  568TIP3    H123119   2.676   5.291   3.032 -1.4089  0.1441  0.6321
  568TIP3    H223120   2.734   5.262   3.169  1.6654 -2.2644 -1.0435
  569TIP3   OH223121   4.063   3.904   1.331 -0.0501 -0.0572  0.0794
  569TIP3    H123122   4.049   3.996   1.354 -1.2809 -0.8715  2.9787
  569TIP3    H223123   3.984   3.880   1.281 -0.0288  0.2662 -0.1136
  570TIP3   OH223124   5.631   4.025   3.278 -0.1450 -0.4289 -0.2128
  570TIP3    H123125   5.605   4.073   3.357 -0.8021  0.2442 -0.8368
  570TIP3    H223126   5.598   4.077   3.205  0.4165 -1.0723 -0.9432
  571TIP3   OH223127   2.992   5.630  16.508  0.5911 -0.0452  0.2023
  571TIP3    H123128   3.045   5.551  16.495  0.1501 -0.1236 -1.4478
  571TIP3    H223129   2.915   5.599  16.555 -0.5126 -1.0844 -2.0902
  572TIP3   OH223130   0.393   2.471  15.062  0.2639 -0.0185 -0.3121
  572TIP3    H123131   0.331   2.481  14.991  0.3355 -0.8408 -0.5033
  572TIP3    H223132   0.445   2.552  15.061 -0.5779  0.5258 -0.3561
  573TIP3   OH223133   3.856   3.923  11.636 -0.4107 -0.4783 -0.2838
  573TIP3    H123134   3.918   3.956  11.701  1.3869 -2.8689 -0.6697
  573TIP3    H223135   3.888   3.959  11.553  0.1839 -1.2743 -0.4125
  574TIP3   OH223136   6.554   5.881  16.941 -0.0855 -0.1608 -0.3064
  574TIP3    H123137   6.460   5.890  16.958 -0.3765 -2.0289 -0.6052
  574TIP3    H223138   6.591   5.860  17.027  0.1523  1.0378 -0.1023
  575TIP3   OH223139   3.135   0.045   5.137  0.1289  0.6162 -0.4732
  575TIP3    H123140   3.118   0.023   5.046 -1.3206 -0.8007  0.0935
  575TIP3    H223141   3.231   0.047   5.144  0.2979 -1.6087 -1.5134
  576TIP3   OH223142   3.404   4.167  11.078  0.1884  0.1246 -0.6274
  576TIP3    H123143   3.468   4.232  11.050  0.5801 -0.2084 -0.5099
  576TIP3    H223144   3.345   4.158  11.004 -0.1184  0.9231 -0.4876
  577TIP3   OH223145   6.486   5.462  15.862  0.0085 -0.0673  0.7222
  577TIP3    H123146   6.519   5.512  15.788  1.4302 -1.3923  0.4119
  577TIP3    H223147   6.546   5.482  15.934 -0.6891  0.3308  1.2017
  578TIP3   OH223148   5.656   4.572  14.763 -0.2574 -0.2856 -0.3856
  578TIP3    H123149   5.670   4.662  14.734  0.7790 -0.7419 -1.3787
  578TIP3    H223150   5.569   4.550  14.729 -0.3456  0.2056 -0.4938
  579TIP3   OH223151   2.131   3.883   3.556  0.2102  0.1865 -0.1437
  579TIP3    H123152   2.059   3.833   3.595 -0.0360  1.1916  0.7403
  579TIP3    H223153   2.154   3.835   3.476 -1.6019 -0.0218 -0.5746
  580TIP3   OH223154   2.340   3.756  14.313  0.4730  0.6290 -0.0480
  580TIP3    H123155   2.406   3.791  14.372  0.0168  1.3902  0.0202
  580TIP3    H223156   2.374   3.670  14.288  1.1106  0.6830  0.5919
  581TIP3   OH223157   0.441   0.512  12.047 -0.5922  0.1848  0.3494
  581TIP3    H123158   0.430   0.423  12.015  0.9967 -0.2940  1.0472
  581TIP3    H223159   0.507   0.505  12.116 -0.6639  1.8561  0.6315
  582TIP3   OH223160   5.019   3.852   2.871  0.0509 -0.4044  0.6580
  582TIP3    H123161   4.948   3.892   2.921  0.3882  0.9169  0.1367
  582TIP3    H223162   5.098   3.897   2.903  0.2514  0.6736 -1.1817
  583TIP3   OH223163   0.639   5.338  15.543 -0.3845 -0.0373 -0.4662
  583TIP3    H123164   0.647   5.369  15.453 -0.4205  0.2597 -0.3707
  583TIP3    H223165   0.547   5.349  15.565 -0.0622  1.7643  0.2426
  584TIP3   OH223166   4.331   1.158   3.379  0.0626 -0.2740  0.5312
  584TIP3    H123167   4.266   1.111   3.329 -0.5938 -0.3020  1.3839
  584TIP3    H223168   4.412   1.109   3.367 -0.1452 -0.4304 -0.2583
  585TIP3   OH223169   0.985   3.919  10.383  0.6109 -0.3093  0.5464
  585TIP3    H123170   1.072   3.939  10.348  0.3786 -0.5483 -0.1864
  585TIP3    H223171   1.001   3.857  10.454  1.1173  0.4217  1.0985
  586TIP3   OH223172   3.308   6.135  17.027 -0.1496  0.4804  0.7271
  586TIP3    H123173   3.367   6.060  17.020 -0.0992  0.3336  2.3839
  586TIP3    H223174   3.312   6.176  16.941  0.7784 -0.7015  0.1722
  587TIP3   OH223175   6.377   3.596   4.001 -0.2267  0.1977 -0.4021
  587TIP3    H123176   6.359   3.518   3.948 -0.6828  0.2627 -0.3450
  587TIP3    H223177   6.329   3.666   3.957  0.2783  0.4716 -0.5196
  588TIP3   OH223178   3.822   2.878   3.982 -0.0469  0.7655  0.6850
  588TIP3    H123179   3.871   2.866   3.900 -0.4411  0.9733  0.4131
  588TIP3    H223180   3.751   2.938   3.958 -2.1272 -1.6505  0.3560
  589TIP3   OH223181   5.784   3.456   3.749 -0.5722 -0.0899 -0.5897
  589TIP3    H123182   5.823   3.537   3.782 -0.6318  0.4029 -1.6841
  589TIP3    H223183   5.753   3.411   3.827  1.0273  0.1011  0.1963
  590TIP3   OH223184   2.561   4.872  15.267 -0.0469 -0.0336 -0.3655
  590TIP3    H123185   2.635   4.814  15.286 -1.8283 -2.3379  0.1056
  590TIP3    H223186   2.487   4.830  15.311 -1.5787  2.3712 -0.4890
  591TIP3   OH223187   6.174   3.584   3.068  0.3234 -0.4852 -0.3148
  591TIP3    H123188   6.189   3.599   3.162 -2.0369  1.7498 -0.1718
  591TIP3    H223189   6.253   3.617   3.025  0.4100  0.8527  0.7959
  592TIP3   OH223190   5.911   3.494  16.819  0.0086 -0.5459  0.0346
  592TIP3    H123191   5.907   3.576  16.771  2.7076  0.2657  1.0336
  592TIP3    H223192   5.926   3.427  16.753 -1.0472 -0.1276 -0.6613
  593TIP3   OH223193   4.558   3.728   5.515  0.3088  0.2502 -0.0829
  593TIP3    H123194   4.516   3.746   5.431 -0.6892 -0.4049  0.2568
  593TIP3    H223195   4.644   3.694   5.492  0.4330  1.0358 -0.8114
  594TIP3   OH223196   6.056   0.593   4.421 -0.5587 -0.2648 -0.1725
  594TIP3    H123197   5.999   0.600   4.345 -0.2878 -0.6942 -0.4223
  594TIP3    H223198   5.996   0.590   4.496 -0.7738  2.2151 -0.1810
  595TIP3   OH223199   2.266   4.938  13.827  0.0427 -0.3232 -0.1714
  595TIP3    H123200   2.337   4.883  13.859 -1.0723 -1.6968  0.0140
  595TIP3    H223201   2.310   5.017  13.794  1.6290 -1.0881  0.0368
  596TIP3   OH223202   3.633   1.661   5.378  0.2329  0.0901 -0.0165
  596TIP3    H123203   3.579   1.589   5.410 -0.9486  1.0459  0.1964
  596TIP3    H223204   3.675   1.696   5.456 -1.3868  1.3897  0.3168
  597TIP3   OH223205   5.911   4.447  13.883  0.1126  0.2239  0.6164
  597TIP3    H123206   5.903   4.508  13.809  1.0589 -0.7179 -0.2904
  597TIP3    H223207   6.005   4.433  13.893 -0.0721 -3.1612 -1.0173
  598TIP3   OH223208   6.667   3.033  11.325 -0.2448 -0.0328  0.2301
  598TIP3    H123209   6.632   3.033  11.236  1.6034 -1.1306 -0.5536
  598TIP3    H223210   6.595   3.064  11.379 -0.6573  3.1938 -1.9112
  599TIP3   OH223211   4.609   5.770  14.991 -0.2782  0.4531  0.4866
  599TIP3    H123212   4.583   5.739  15.078 -2.5537  1.3466  0.1937
  599TIP3    H223213   4.640   5.691  14.947  0.3209 -0.1368  1.8895
  600TIP3   OH223214   5.949   2.054   5.553  0.3265  0.3142  0.0019
  600TIP3    H123215   5.974   2.107   5.628 -0.1853 -0.6992  0.9315
  600TIP3    H223216   5.853   2.053   5.555  0.2841 -2.0623  1.1316
  601TIP3   OH223217   6.047   2.025   2.277 -0.4382 -0.4390 -0.5529
  601TIP3    H123218   5.957   2.050   2.254 -0.2840 -0.1030 -0.7852
  601TIP3    H223219   6.089   2.106   2.302 -0.9413 -0.9088  2.1677
  602TIP3   OH223220   0.418   2.870   5.844  0.1959  0.6122 -0.1998
  602TIP3    H123221   0.416   2.796   5.904 -0.6607  0.4680 -0.4049
  602TIP3    H223222   0.348   2.853   5.781  0.5333  1.1824 -0.7467
  603TIP3   OH223223   2.688   3.332  11.570  0.8647 -0.0277  0.2700
  603TIP3    H123224   2.782   3.314  11.563  0.3955 -2.4334 -0.7451
  603TIP3    H223225   2.646   3.252  11.541 -1.5545  1.8938 -2.0268
  604TIP3   OH223226   2.822   2.216  13.872  0.2404  0.3436  0.1841
  604TIP3    H123227   2.910   2.231  13.906  0.6989 -0.2656 -0.6930
  604TIP3    H223228   2.799   2.129  13.903  0.2953  0.1539 -0.3045
  605TIP3   OH223229   2.344   6.069  13.494  0.0963 -0.1850 -0.3443
  605TIP3    H123230   2.337   6.127  13.570 -0.8627  1.3376 -1.5589
  605TIP3    H223231   2.353   5.982  13.532 -3.1453  0.1748  1.5836
  606TIP3   OH223232   5.313   6.026  15.754  0.1217  1.0380 -0.2728
  606TIP3    H123233   5.258   6.100  15.776  2.0913  2.3185  0.6118
  606TIP3    H223234   5.369   6.013  15.832  0.3353 -0.9034 -0.6841
  607TIP3   OH223235   3.227   5.018  14.016  0.2140  0.3520  0.9543
  607TIP3    H123236   3.305   4.963  14.006 -0.2301 -0.1296 -0.0030
  607TIP3    H223237   3.253   5.104  13.983  0.3167  0.1633  0.5340
  608TIP3   OH223238   4.331   4.015   2.390  0.3398  0.0253  0.2492
  608TIP3    H123239   4.410   4.066   2.372  0.1919 -0.1709 -0.9875
  608TIP3    H223240   4.358   3.924   2.377  0.0460 -0.0757  0.3473
  609TIP3   OH223241   0.469   0.963   4.344 -0.1840  0.8859 -0.4227
  609TIP3    H123242   0.486   0.869   4.351  0.7109  1.0445 -0.3077
  609TIP3    H223243   0.417   0.973   4.265  0.5853  0.3912 -1.0021
  610TIP3   OH223244   1.872   1.868   6.106 -0.0009 -0.2375 -0.2574
  610TIP3    H123245   1.898   1.941   6.163  0.8470  0.2237 -1.1885
  610TIP3    H223246   1.835   1.803   6.165  0.3141  0.4638  0.7431
  611TIP3   OH223247   3.599   3.914  12.238  0.1815  0.8705 -0.1509
  611TIP3    H123248   3.559   3.929  12.152 -0.2430 -1.0816 -0.3480
  611TIP3    H223249   3.693   3.920  12.222  0.2229 -1.4576 -1.2765
  612TIP3   OH223250   4.916   3.702  15.780 -0.6913  0.0380 -0.6879
  612TIP3    H123251   4.888   3.703  15.688 -0.0012 -0.9441 -0.9269
  612TIP3    H223252   4.984   3.635  15.783 -0.7534  0.0123  0.5609
  613TIP3   OH223253   6.244   3.768   1.070 -0.0784  0.4941  0.0358
  613TIP3    H123254   6.149   3.755   1.065  0.1401 -0.7637 -1.8300
  613TIP3    H223255   6.281   3.698   1.015  2.0590 -0.5032  2.5111
  614TIP3   OH223256   1.827   3.129   3.981  0.0881 -0.0616  0.2189
  614TIP3    H123257   1.764   3.161   4.045  0.3256  1.3760 -0.2365
  614TIP3    H223258   1.868   3.053   4.023 -1.2117 -0.4000  0.9224
  615TIP3   OH223259   1.220   5.103   5.767  0.3612 -0.3283 -0.4299
  615TIP3    H123260   1.183   5.050   5.838 -2.3807  0.5937 -1.0622
  615TIP3    H223261   1.252   5.182   5.811  0.9725 -0.8260  0.0462
  616TIP3   OH223262   2.042   5.961   5.573  0.2140  0.1329  0.0388
  616TIP3    H123263   1.999   5.956   5.659  0.1417  0.1827  0.0055
  616TIP3    H223264   2.130   5.925   5.588  0.2199  0.1920  0.1457
  617TIP3   OH223265   2.707   4.333   5.421 -0.5816 -0.2343 -0.2577
  617TIP3    H123266   2.752   4.347   5.338  1.1983 -0.8221  0.5690
  617TIP3    H223267   2.773   4.349   5.488 -1.8274 -0.3211  1.0527
  618TIP3   OH223268   4.877   5.811  15.061 -0.6381 -0.6303  0.3302
  618TIP3    H123269   4.924   5.728  15.055  0.0773 -0.1981 -0.2740
  618TIP3    H223270   4.791   5.793  15.025  0.1185 -0.6913 -1.5462
  619TIP3   OH223271   5.988   4.135   5.419  0.5650  0.1863 -0.2065
  619TIP3    H123272   5.974   4.229   5.408  1.3015  0.2337 -0.8177
  619TIP3    H223273   6.074   4.119   5.379  0.7210 -0.6421  0.4327
  620TIP3   OH223274   0.071   6.531   2.207  0.6409  0.3417  0.7992
  620TIP3    H123275   0.148   6.474   2.202 -0.3842 -1.0549  0.3872
  620TIP3    H223276   0.077   6.587   2.130  1.3075  0.3373  0.8434
  621TIP3   OH223277   2.824   6.336   4.261  0.6354 -0.4127 -0.0173
  621TIP3    H123278   2.881   6.267   4.228  0.6415 -0.0921 -0.6844
  621TIP3    H223279   2.738   6.295   4.269  0.6889 -0.5585 -0.1941
  622TIP3   OH223280   3.457   3.989   5.684  0.0161 -0.1191  0.0059
  622TIP3    H123281   3.411   3.906   5.671  1.0108 -0.6953  0.1166
  622TIP3    H223282   3.525   3.969   5.748  0.7168  0.6085 -0.4948
  623TIP3   OH223283   1.343   3.769  13.192 -0.0122  0.1564  0.2926
  623TIP3    H123284   1.329   3.700  13.257  1.8642  0.2126  0.8249
  623TIP3    H223285   1.439   3.779  13.188 -0.2034  2.9353  0.4744
  624TIP3   OH223286   5.940   3.719   4.354  0.1288 -0.1747  0.2659
  624TIP3    H123287   5.883   3.702   4.430 -0.5536 -2.4177 -0.6564
  624TIP3    H223288   5.938   3.814   4.343 -1.3584  0.0278  1.8231
  625TIP3   OH223289   1.357   4.885  11.767  0.0988 -0.0320 -0.3364
  625TIP3    H123290   1.399   4.809  11.807  0.3544 -0.0512 -0.6376
  625TIP3    H223291   1.404   4.961  11.803 -0.3657  0.0025  0.2111
  626TIP3   OH223292   3.421   6.503  13.517  0.8794 -0.0581  0.1684
  626TIP3    H123293   3.494   6.448  13.487 -0.0633 -0.8157 -0.7962
  626TIP3    H223294   3.460   6.560  13.583  2.5730  0.2491 -1.0374
  627TIP3   OH223295   0.092   0.479  15.166  0.0523  0.3614 -0.0585
  627TIP3    H123296   0.043   0.439  15.237  0.2243 -1.1432 -0.7537
  627TIP3    H223297   0.097   0.572  15.189 -0.1448 -0.0450  1.7365
  628TIP3   OH223298   4.582   1.500   1.497 -0.0109 -0.0863 -0.0553
  628TIP3    H123299   4.534   1.444   1.436 -1.2373 -0.7837  1.4733
  628TIP3    H223300   4.518   1.520   1.565  1.5274  0.0165  1.4116
  629TIP3   OH223301   4.586   2.343  16.158  0.1834 -0.7408 -0.1518
  629TIP3    H123302   4.534   2.364  16.080  0.4518 -0.8297 -0.3541
  629TIP3    H223303   4.672   2.320  16.124  0.0383 -1.6971  0.1035
  630TIP3   OH223304   6.627   5.261  12.637 -0.3370  0.1434  0.5083
  630TIP3    H123305   6.622   5.194  12.569 -1.7114 -0.6549  1.3612
  630TIP3    H223306   6.550   5.316  12.623  0.1578  0.8605  0.5361
  631TIP3   OH223307   3.878   6.210   1.790  0.2906  0.0692 -0.1983
  631TIP3    H123308   3.793   6.205   1.832 -0.7519  1.1414 -2.0473
  631TIP3    H223309   3.924   6.130   1.817 -0.6656  0.2199  2.0636
  632TIP3   OH223310   0.239   0.912   1.757 -0.1531  0.7478  0.3016
  632TIP3    H123311   0.265   0.934   1.846  0.9075  1.4573 -0.1692
  632TIP3    H223312   0.274   0.823   1.742 -0.5174  0.5431  0.6562
  633TIP3   OH223313   5.044   4.796  12.062  0.3674 -0.1969  0.5503
  633TIP3    H123314   5.032   4.761  11.974 -0.5896 -0.3409  0.7187
  633TIP3    H223315   5.084   4.725  12.112 -1.1646 -0.9454  0.7814
  634TIP3   OH223316   6.142   4.437  14.799  0.0052 -0.2124  0.2475
  634TIP3    H123317   6.223   4.460  14.754 -0.4677 -0.0737 -0.5435
  634TIP3    H223318   6.162   4.450  14.892  0.9344 -0.3399  0.0750
  635TIP3   OH223319   3.085   6.615   0.327  0.1786  0.3142 -0.0142
  635TIP3    H123320   3.065   6.571   0.244  1.4935 -0.4981  0.0775
  635TIP3    H223321   3.021   6.580   0.389  0.0988 -0.1436 -0.3549
  636TIP3   OH223322   1.484   5.373   0.101 -0.2388  0.0993 -0.2561
  636TIP3    H123323   1.478   5.304   0.167 -0.1621 -0.1742 -0.5325
  636TIP3    H223324   1.425   5.442   0.133  1.1010  0.7315  1.0011
  637TIP3   OH223325   6.233   6.398  12.693  0.5486  0.2379 -0.3338
  637TIP3    H123326   6.240   6.493  12.702  1.4556 -0.0265  2.8721
  637TIP3    H223327   6.139   6.380  12.695  0.3635  1.0302 -1.1643
  638TIP3   OH223328   0.010   2.416   3.146 -0.4831  0.0690 -0.1134
  638TIP3    H123329   0.035   2.508   3.137  2.4138 -0.7132 -1.2793
  638TIP3    H223330   0.049   2.389   3.229 -1.2040 -0.1559  0.1529
  639TIP3   OH223331   5.746   1.255   1.595 -0.0607 -0.2719  0.0652
  639TIP3    H123332   5.674   1.301   1.638 -0.7489 -1.7600  0.5603
  639TIP3    H223333   5.789   1.322   1.542 -1.9075  0.6243 -0.3765
  640TIP3   OH223334   0.605   0.896  15.920 -0.2491 -0.2158  0.1705
  640TIP3    H123335   0.607   0.845  15.838  1.1721  1.6304 -1.0391
  640TIP3    H223336   0.583   0.985  15.892  0.0937  0.4267  1.8318
  641TIP3   OH223337   5.475   5.470  15.492  0.0807 -0.1838 -0.1940
  641TIP3    H123338   5.420   5.498  15.565  0.2003 -0.8899  0.1753
  641TIP3    H223339   5.475   5.375  15.498 -0.6634 -0.3068 -1.6615
  642TIP3   OH223340   2.330   1.111   5.356 -0.0287 -0.7609  0.2600
  642TIP3    H123341   2.391   1.101   5.283  0.4127  0.3589  0.4590
  642TIP3    H223342   2.270   1.037   5.346  0.5894 -1.1697 -0.6767
  643TIP3   OH223343   1.199   2.607  11.785  0.4326 -0.8878 -0.0463
  643TIP3    H123344   1.120   2.556  11.797 -0.1998 -0.2948 -1.4170
  643TIP3    H223345   1.230   2.626  11.873 -0.3159 -2.0931  0.4897
  644TIP3   OH223346   1.761   5.006   2.490  0.4216  0.3160 -0.3017
  644TIP3    H123347   1.685   4.975   2.440  0.5083 -0.3352 -0.0430
  644TIP3    H223348   1.763   5.100   2.475  0.8161  0.0567 -2.0381
  645TIP3   OH223349   0.551   6.372   3.162 -0.2188  0.5943 -0.6849
  645TIP3    H123350   0.550   6.279   3.186 -0.6591  0.6865 -0.3337
  645TIP3    H223351   0.607   6.413   3.228 -2.0274  0.9691  0.7031
  646TIP3   OH223352   2.386   1.135   6.267 -0.8011  0.6511  0.0631
  646TIP3    H123353   2.313   1.094   6.314 -0.2638 -0.1848  0.1867
  646TIP3    H223354   2.392   1.223   6.306 -1.9344  0.8487 -0.1715
  647TIP3   OH223355   4.399   4.345  11.082  0.0975 -0.2551  0.3986
  647TIP3    H123356   4.457   4.406  11.037  1.0407 -0.2479  1.5429
  647TIP3    H223357   4.408   4.263  11.034 -0.9883  0.4071 -1.0011
  648TIP3   OH223358   5.177   5.128  14.790  0.2050  0.2663  0.1959
  648TIP3    H123359   5.157   5.127  14.883  2.5070  0.8593  0.7589
  648TIP3    H223360   5.217   5.043  14.773  1.2778  0.7576  0.1559
  649TIP3   OH223361   0.510   2.604   5.271  0.0287 -0.0815  0.2638
  649TIP3    H123362   0.505   2.516   5.309 -0.5462  0.6093  1.8908
  649TIP3    H223363   0.603   2.628   5.278  0.1953 -0.5491 -0.2230
  650TIP3   OH223364   4.557   2.904   0.671  0.0216 -0.0723  0.7344
  650TIP3    H123365   4.536   2.912   0.764 -1.4955  0.5265  0.3729
  650TIP3    H223366   4.527   2.816   0.648  0.1021 -0.1028  0.7473
  651TIP3   OH223367   4.353   1.101   4.954  0.5945  0.0118  0.0308
  651TIP3    H123368   4.380   1.147   4.875  0.4173  0.3995  0.1916
  651TIP3    H223369   4.273   1.055   4.929  0.0378  0.8521  0.2162
  652TIP3   OH223370   5.746   5.540   5.995 -0.5870  0.6758  0.2518
  652TIP3    H123371   5.685   5.543   6.068  0.3370  3.1120  1.0138
  652TIP3    H223372   5.829   5.511   6.033 -0.2760  1.2994  0.0725
  653TIP3   OH223373   6.332   6.714   0.043  0.5215 -0.5580  0.3496
  653TIP3    H123374   6.383   6.784   0.002 -1.2773  1.2151  0.9797
  653TIP3    H223375   6.310   6.655  -0.030 -0.9957  1.5054 -0.9763
  654TIP3   OH223376   4.014   3.442  11.567 -0.3049 -0.2479 -0.1340
  654TIP3    H123377   4.018   3.351  11.536 -2.9463 -0.5421  0.1855
  654TIP3    H223378   3.943   3.442  11.631 -0.5132  2.1201 -0.3002
  655TIP3   OH223379   5.704   0.298   4.870 -0.0567 -0.3303  0.9196
  655TIP3    H123380   5.739   0.222   4.824 -0.8102  0.0200 -0.3076
  655TIP3    H223381   5.609   0.293   4.854  0.0643  2.1741 -1.3928
  656TIP3   OH223382   0.346   1.230  12.627  0.0440  0.3153  0.5183
  656TIP3    H123383   0.424   1.184  12.597 -0.5558 -0.4833  0.1547
  656TIP3    H223384   0.341   1.308  12.572  1.9055  1.6627  2.1313
  657TIP3   OH223385   6.029   0.227  12.677  0.2144 -0.2697  0.0142
  657TIP3    H123386   6.010   0.133  12.680  0.4470 -0.3072  0.4931
  657TIP3    H223387   6.124   0.231  12.665  0.0300 -0.0893 -1.5020
  658TIP3   OH223388   4.221   6.715  15.759  0.1565  0.1977 -0.0232
  658TIP3    H123389   4.173   6.635  15.780 -0.8545  1.0236  0.9029
  658TIP3    H223390   4.309   6.700  15.794  0.0830 -0.6480 -0.1904
  659TIP3   OH223391   0.657   4.737  13.087  0.4718  0.3268  0.0990
  659TIP3    H123392   0.570   4.721  13.121  0.9423 -0.8801  0.7907
  659TIP3    H223393   0.645   4.808  13.023 -1.2843 -0.8668 -1.0031
  660TIP3   OH223394   1.954   3.901  14.836 -0.1448 -0.2898 -0.1694
  660TIP3    H123395   1.927   3.938  14.920 -1.6040  1.8808 -1.5032
  660TIP3    H223396   1.973   3.809  14.856 -0.4405  0.1469  2.5101
  661TIP3   OH223397   1.633   5.311   4.479  0.7005  0.5963  0.4892
  661TIP3    H123398   1.588   5.355   4.406  0.7125  0.3530  0.3338
  661TIP3    H223399   1.593   5.224   4.482  2.7265 -0.4950 -1.1520
  662TIP3   OH223400   1.099   4.555   5.536 -0.1751 -0.0240  0.0291
  662TIP3    H123401   1.120   4.644   5.566 -1.3591 -0.2118  1.5378
  662TIP3    H223402   1.006   4.560   5.511 -0.2558 -0.8272  0.1424
  663TIP3   OH223403   6.238   6.634   4.099 -0.2273  0.1849  0.1926
  663TIP3    H123404   6.322   6.594   4.124  1.2944  3.6738  1.3667
  663TIP3    H223405   6.182   6.622   4.176 -1.2088 -2.8410 -0.8794
  664TIP3   OH223406   0.667   3.434  13.136 -0.0061  0.1084 -0.1052
  664TIP3    H123407   0.588   3.413  13.187  0.9451 -1.0838  0.9635
  664TIP3    H223408   0.668   3.529  13.131 -0.6613  0.2187  1.2899
  665TIP3   OH223409   5.465   4.202  12.819 -0.3540 -0.0497  0.7115
  665TIP3    H123410   5.420   4.279  12.854 -0.4943  0.3434 -0.3122
  665TIP3    H223411   5.549   4.234  12.787 -0.4262 -0.3097  0.2480
  666TIP3   OH223412   1.685   2.363  14.506  0.2066 -0.2786  0.7170
  666TIP3    H123413   1.679   2.407  14.421 -0.5673  1.5869  1.6664
  666TIP3    H223414   1.764   2.309  14.500 -0.8816 -1.7438 -1.8173
  667TIP3   OH223415   5.766   5.117   5.068 -0.0882 -0.3966  0.0461
  667TIP3    H123416   5.684   5.079   5.038 -0.1178  0.1948 -0.6870
  667TIP3    H223417   5.769   5.203   5.025  0.3606  0.0703  0.9842
  668TIP3   OH223418   6.664   0.390  16.910 -0.0842 -0.1995 -0.3029
  668TIP3    H123419   6.598   0.442  16.956 -0.1207 -0.3721 -0.1585
  668TIP3    H223420   6.624   0.305  16.898 -0.0669 -0.1605 -0.6437
  669TIP3   OH223421   4.900   6.217   3.744  0.5002 -0.4771  0.0171
  669TIP3    H123422   4.849   6.238   3.665 -0.9436 -0.1618  1.0041
  669TIP3    H223423   4.975   6.276   3.740 -0.2985  0.5441 -0.4211
  670TIP3   OH223424   4.556   0.304   0.700 -0.4023  0.0147 -0.2213
  670TIP3    H123425   4.575   0.230   0.757 -2.5804 -0.1546  0.3631
  670TIP3    H223426   4.516   0.370   0.757  1.0759  1.5026 -0.8169
  671TIP3   OH223427   5.800   0.387  12.863 -0.0431  0.6103  0.2686
  671TIP3    H123428   5.888   0.424  12.867  0.4518 -0.3907 -0.9188
  671TIP3    H223429   5.806   0.304  12.911 -0.2974  0.4673  0.0609
  672TIP3   OH223430   5.446   5.391  15.233 -0.1629  0.6880  0.5983
  672TIP3    H123431   5.537   5.386  15.202 -0.2566  0.6772  0.3179
  672TIP3    H223432   5.452   5.430  15.320  0.2512 -0.7956  1.2602
  673TIP3   OH223433   4.517   0.637  15.718  0.3025  0.5590  0.3245
  673TIP3    H123434   4.517   0.618  15.812  1.3347 -1.3532 -0.0145
  673TIP3    H223435   4.436   0.686  15.703 -1.0348 -1.0684  1.8407
  674TIP3   OH223436   1.196   5.341   0.707 -0.1851  0.3699 -0.3673
  674TIP3    H123437   1.283   5.306   0.690  1.4831  3.3776  1.0664
  674TIP3    H223438   1.149   5.270   0.751  0.9447 -1.8418 -2.4887
  675TIP3   OH223439   2.213   3.861  11.691  0.4729 -0.4453 -0.2750
  675TIP3    H123440   2.307   3.865  11.672  0.5796  0.4949  0.4000
  675TIP3    H223441   2.200   3.776  11.732  0.9960 -0.6613 -0.5484
  676TIP3   OH223442   6.138   5.912   4.153  0.2880 -0.0187  0.5283
  676TIP3    H123443   6.128   5.936   4.061  1.2446  1.3863  0.7496
  676TIP3    H223444   6.161   5.819   4.151 -1.2989 -0.4318 -0.5253
  677TIP3   OH223445   1.357   5.024   5.329 -0.0774 -0.1023 -0.5148
  677TIP3    H123446   1.287   5.069   5.376  0.4662 -0.3675  0.5756
  677TIP3    H223447   1.312   4.959   5.274 -0.8183  1.2532 -1.5645
  678TIP3   OH223448   5.206   4.726   1.607 -0.0966  0.1245 -0.0057
  678TIP3    H123449   5.150   4.801   1.627  0.1973  0.3955 -0.1993
  678TIP3    H223450   5.247   4.704   1.691  0.7762  0.9704 -0.1868
  679TIP3   OH223451   5.356   1.071  15.957  0.0814 -0.1943 -0.4564
  679TIP3    H123452   5.416   1.115  16.018  1.9513 -1.6273 -1.1692
  679TIP3    H223453   5.412   1.012  15.907 -2.1385 -2.5561 -0.3420
  680TIP3   OH223454   6.389   2.027  15.472  0.4746 -0.1166 -0.1541
  680TIP3    H123455   6.412   2.118  15.489  0.0074  0.3469 -1.7545
  680TIP3    H223456   6.382   2.022  15.376 -1.5419 -1.3108 -0.0096
  681TIP3   OH223457   3.447   5.984  11.664  0.2047  0.2761 -0.2471
  681TIP3    H123458   3.530   5.940  11.646 -0.1541  0.0970 -1.5931
  681TIP3    H223459   3.450   6.004  11.758  1.6467  0.0447 -0.2199
  682TIP3   OH223460   6.258   5.765  16.508 -0.2372 -0.2900 -0.3089
  682TIP3    H123461   6.288   5.853  16.485 -0.0790 -0.0155  0.8795
  682TIP3    H223462   6.164   5.774  16.521 -0.3469 -0.4719 -0.9685
  683TIP3   OH223463   5.136   6.509   5.203 -0.8793  0.0188  0.1449
  683TIP3    H123464   5.082   6.559   5.263 -1.1030 -0.3292  0.2329
  683TIP3    H223465   5.114   6.418   5.220 -1.2184 -0.0686 -0.7252
  684TIP3   OH223466   3.256   1.005   0.215  0.0226  0.0201 -0.1582
  684TIP3    H123467   3.223   0.957   0.291  1.2901  0.6768  0.8593
  684TIP3    H223468   3.186   1.000   0.150 -0.5401 -1.7394  0.5360
  685TIP3   OH223469   6.144   3.164   6.056  0.1525 -0.4305  0.3894
  685TIP3    H123470   6.093   3.109   5.997  0.8072 -0.2360 -0.3595
  685TIP3    H223471   6.233   3.163   6.021  0.2389  0.8741  0.5226
  686TIP3   OH223472   1.391   0.607  10.758 -0.0001 -0.4363 -0.9890
  686TIP3    H123473   1.374   0.513  10.759 -1.4539 -0.2694 -3.5399
  686TIP3    H223474   1.340   0.641  10.685 -0.1321  2.4932  0.3013
  687TIP3   OH223475   0.073   2.847   0.554  0.6387 -0.0102 -0.2747
  687TIP3    H123476   0.051   2.937   0.578  0.9044 -0.1799  0.6097
  687TIP3    H223477   0.155   2.856   0.505 -0.5128  0.4566 -2.2383
  688TIP3   OH223478   0.974   0.925  14.677  0.2998  0.4058 -0.1756
  688TIP3    H123479   0.937   0.839  14.696  1.1728  0.4118  1.7920
  688TIP3    H223480   0.959   0.938  14.584 -1.4746 -1.0865 -0.1468
  689TIP3   OH223481   5.568   1.005  15.743 -0.7420  0.2793  0.1727
  689TIP3    H123482   5.573   0.920  15.701  2.4966 -0.2421  1.3011
  689TIP3    H223483   5.632   1.059  15.697 -2.1279  1.8948  0.0224
  690TIP3   OH223484   6.752   5.910  12.995 -0.0451  0.4779 -0.5998
  690TIP3    H123485   6.789   5.981  13.048  0.2757 -0.4866  0.4975
  690TIP3    H223486   6.682   5.874  13.048 -0.4988  0.2437 -1.3430
  691TIP3   OH223487   6.094   2.794  11.795  0.1009  0.0617  0.3803
  691TIP3    H123488   6.041   2.728  11.839 -2.5866  1.7806 -0.0738
  691TIP3    H223489   6.047   2.813  11.714  2.2315  0.6430 -0.8100
  692TIP3   OH223490   1.410   4.004  14.596  0.0572 -0.3382 -0.0661
  692TIP3    H123491   1.342   3.945  14.564  1.2464 -2.1317  0.5564
  692TIP3    H223492   1.387   4.019  14.688 -2.9699  4.2535 -1.1958
  693TIP3   OH223493   3.858   1.983  11.165 -0.4906 -0.1041 -0.6000
  693TIP3    H123494   3.823   2.072  11.165  0.4160  0.3437 -3.5262
  693TIP3    H223495   3.950   1.994  11.143  0.1637 -1.6686  1.1283
  694TIP3   OH223496   3.261   1.375  16.107 -0.1393 -0.2972  0.0148
  694TIP3    H123497   3.194   1.349  16.170  0.5855 -3.8158 -0.4631
  694TIP3    H223498   3.247   1.319  16.032  3.4104 -1.3903 -0.0183
  695TIP3   OH223499   2.590   2.487  11.654 -0.0883 -0.6156 -0.3682
  695TIP3    H123500   2.553   2.575  11.663 -1.3477 -1.2092  0.5835
  695TIP3    H223501   2.533   2.432  11.707  0.2743 -2.1220 -1.4840
  696TIP3   OH223502   6.197   5.977  11.501 -0.7209 -0.4006 -0.1552
  696TIP3    H123503   6.235   6.024  11.576  0.0073 -0.5671 -0.4157
  696TIP3    H223504   6.271   5.957  11.445 -1.3736  0.5411 -1.3984
  697TIP3   OH223505   0.448   6.678   0.752  0.2439 -0.2074 -0.3233
  697TIP3    H123506   0.534   6.685   0.711 -0.0732 -1.4740 -1.2610
  697TIP3    H223507   0.457   6.604   0.813  0.0811  0.2756  0.2987
  698TIP3   OH223508   4.123   0.969   1.172  0.1507  0.1606  0.5118
  698TIP3    H123509   4.077   0.966   1.256 -0.4320 -0.6598  0.1744
  698TIP3    H223510   4.073   1.031   1.119  1.0972  1.4724  1.0745
  699TIP3   OH223511   1.922   0.773   0.407 -0.3400 -0.2722 -0.4355
  699TIP3    H123512   2.010   0.763   0.445 -0.5847  0.1365  0.2451
  699TIP3    H223513   1.875   0.694   0.435 -0.8298  0.4927  0.9911
  700TIP3   OH223514   0.697   2.379   0.728  0.2304 -0.1594 -0.4214
  700TIP3    H123515   0.611   2.346   0.703 -0.4055 -0.1223  1.5981
  700TIP3    H223516   0.740   2.305   0.772  1.6521 -0.4895 -2.2212
  701TIP3   OH223517   3.909   1.220   4.992  0.3387  0.3470  0.5214
  701TIP3    H123518   3.838   1.247   4.934  0.2955 -0.6844  0.0680
  701TIP3    H223519   3.962   1.161   4.939  0.8163  0.1065  1.2512
  702TIP3   OH223520   4.557   3.681  11.641  0.6030 -0.1275  0.8286
  702TIP3    H123521   4.647   3.653  11.623  1.5164  2.7042  0.5024
  702TIP3    H223522   4.504   3.629  11.581  1.8524 -2.4598  1.5776
  703TIP3   OH223523   3.326   0.991  16.326  0.0160 -0.2766 -0.3149
  703TIP3    H123524   3.392   1.060  16.323  1.0324 -1.2212 -0.2569
  703TIP3    H223525   3.253   1.030  16.375  0.5631  0.7498 -0.2865
  704TIP3   OH223526   5.898   3.588   0.215  0.1448  0.1125  0.2613
  704TIP3    H123527   5.901   3.493   0.218 -0.3654  0.1001  0.7093
  704TIP3    H223528   5.968   3.613   0.155 -1.4239 -0.6580 -2.0218
  705TIP3   OH223529   5.200   6.018  14.895  0.0868  0.5632  0.0048
  705TIP3    H123530   5.153   5.992  14.974  0.6113 -1.0601 -0.1780
  705TIP3    H223531   5.269   5.951  14.885 -0.6310  0.0849 -2.3981
  706TIP3   OH223532   5.950   2.630  16.922  0.1689 -0.0504 -0.2991
  706TIP3    H123533   5.942   2.726  16.923 -1.3573 -0.1501  0.9854
  706TIP3    H223534   5.953   2.608  16.829 -1.6743  1.1261 -0.7044
  707TIP3   OH223535   1.389   4.364   0.962 -0.1873 -0.3301  0.1935
  707TIP3    H123536   1.456   4.321   1.014 -1.2558 -1.8002  0.4037
  707TIP3    H223537   1.395   4.324   0.876  0.4023  0.8534 -0.3490
  708TIP3   OH223538   1.931   2.527   1.733  0.2692 -0.2595  0.3738
  708TIP3    H123539   1.998   2.547   1.798  0.7632 -0.3530 -0.1026
  708TIP3    H223540   1.889   2.447   1.766 -0.6367  0.6250  1.4499
  709TIP3   OH223541   4.467   1.818  14.147 -0.3706  0.0372 -0.2426
  709TIP3    H123542   4.443   1.909  14.164 -1.2423  0.0196 -1.2232
  709TIP3    H223543   4.398   1.786  14.089 -1.2727 -1.9139  1.7651
  710TIP3   OH223544   2.577   6.505  13.488 -0.4742  0.0653 -0.2096
  710TIP3    H123545   2.517   6.556  13.433 -2.2490 -0.7619  0.8544
  710TIP3    H223546   2.526   6.486  13.567  0.1125 -3.2776 -0.5155
  711TIP3   OH223547   4.866   1.932  15.335  0.1814 -0.2299 -0.2878
  711TIP3    H123548   4.944   1.877  15.337 -0.0059 -0.4782  0.4872
  711TIP3    H223549   4.794   1.874  15.363 -0.3439 -0.0926 -1.3056
  712TIP3   OH223550   2.084   0.238   1.918  0.2412  0.0158 -0.2228
  712TIP3    H123551   2.151   0.212   1.982 -2.1694 -3.1168  1.3093
  712TIP3    H223552   2.027   0.297   1.967  0.1478  0.1652 -0.5119
  713TIP3   OH223553   3.313   1.380  13.000  0.0718  0.0544  0.1752
  713TIP3    H123554   3.343   1.291  12.985  1.3974  0.7732 -1.8359
  713TIP3    H223555   3.217   1.373  13.001  0.1601 -1.4465  0.7410
  714TIP3   OH223556   1.669   5.182   1.867 -0.2429  0.4123  0.3493
  714TIP3    H123557   1.610   5.256   1.880 -1.5276 -0.3440 -0.8326
  714TIP3    H223558   1.614   5.105   1.880  1.0249 -0.3551  1.4050
  715TIP3   OH223559   0.574   1.471   3.153 -0.4203 -0.2473 -0.0109
  715TIP3    H123560   0.622   1.491   3.233 -0.4105  0.0833 -0.0973
  715TIP3    H223561   0.641   1.443   3.091 -0.2109  1.1138 -0.4224
  716TIP3   OH223562   3.849   0.115   2.297 -0.3328 -0.4944 -0.2987
  716TIP3    H123563   3.941   0.124   2.273  0.7051 -3.8247  1.7870
  716TIP3    H223564   3.808   0.076   2.219 -0.0628  1.0693 -1.2634
  717TIP3   OH223565   3.687   1.396  14.273  0.0635 -0.0209 -0.3693
  717TIP3    H123566   3.660   1.326  14.333  2.8071  0.8010  2.0374
  717TIP3    H223567   3.635   1.472  14.300 -0.5071 -0.2457 -0.7863
  718TIP3   OH223568   4.664   4.509   1.035  0.0049  0.0741  0.2135
  718TIP3    H123569   4.685   4.549   0.951  0.6890  0.7995  0.7051
  718TIP3    H223570   4.609   4.433   1.014 -0.1725  0.4872 -0.8425
  719TIP3   OH223571   4.603   5.744  15.262 -0.7127 -0.1147 -0.6474
  719TIP3    H123572   4.636   5.715  15.348 -3.7124 -0.9023  0.3424
  719TIP3    H223573   4.559   5.827  15.281 -1.0963 -0.1213 -1.5043
  720TIP3   OH223574   6.740   6.480   5.774  0.2970 -1.0667  0.3824
  720TIP3    H123575   6.675   6.423   5.733  0.5101 -1.3792  0.4846
  720TIP3    H223576   6.806   6.421   5.810 -0.1989 -0.8345  1.7416
  721TIP3   OH223577   2.901   0.253   2.802  0.0633  0.4763 -0.3379
  721TIP3    H123578   2.841   0.324   2.779 -2.4883 -1.9487 -1.7709
  721TIP3    H223579   2.941   0.227   2.720 -2.2055 -2.3095 -0.7179
  722TIP3   OH223580   6.479   6.215  11.914 -0.0335  0.6439  0.5929
  722TIP3    H123581   6.520   6.291  11.955 -1.7176  0.7371  2.2504
  722TIP3    H223582   6.451   6.160  11.987  0.3541 -1.1669 -0.5540
  723TIP3   OH223583   6.036   6.586   3.323  0.0524  0.2828  0.5354
  723TIP3    H123584   5.959   6.623   3.365 -0.8176  0.0426 -0.7769
  723TIP3    H223585   6.075   6.659   3.275  0.7808  0.4548  1.3738
  724TIP3   OH223586   6.746   4.317   0.047 -0.1475  0.4222 -0.0742
  724TIP3    H123587   6.667   4.365   0.023 -1.7791 -1.3218  1.4931
  724TIP3    H223588   6.730   4.288   0.137  1.4936 -1.5190 -0.3400
  725TIP3   OH223589   0.050   0.725   5.327 -0.5670  0.0885 -0.2777
  725TIP3    H123590  -0.041   0.749   5.349 -0.6627  0.1017 -0.6749
  725TIP3    H223591   0.096   0.727   5.411 -1.0799 -0.5751  0.0290
  726TIP3   OH223592   2.929   5.528   1.897 -0.0990  0.1962 -0.3667
  726TIP3    H123593   3.022   5.539   1.911  0.0627 -1.3652  0.0220
  726TIP3    H223594   2.918   5.435   1.879 -1.4179  0.5787 -1.7788
  727TIP3   OH223595   5.977   4.445   0.629 -0.1559 -1.0746 -0.5738
  727TIP3    H123596   5.900   4.501   0.633  0.1309 -0.7190  2.4054
  727TIP3    H223597   6.046   4.497   0.670  0.9427 -2.4124 -0.6482
  728TIP3   OH223598   5.281   3.140  11.875  0.0269  0.0731  0.0003
  728TIP3    H123599   5.353   3.193  11.911  0.9898 -0.9154 -0.3896
  728TIP3    H223600   5.207   3.199  11.871  0.2506  0.6083  2.3333
  729TIP3   OH223601   3.109   0.592  14.832 -0.1270 -0.3472  0.2893
  729TIP3    H123602   3.037   0.651  14.814  1.4014  1.6244  0.3262
  729TIP3    H223603   3.075   0.533  14.900 -1.6642  0.5322  0.3226
  730TIP3   OH223604   5.384   0.464  14.140  0.1872  0.0881  0.4065
  730TIP3    H123605   5.464   0.513  14.158  0.1243  0.6242 -0.6504
  730TIP3    H223606   5.367   0.480  14.047 -1.8683  1.1133  0.8994
  731TIP3   OH223607   5.507   2.125  14.152  0.1703  0.7202 -0.0727
  731TIP3    H123608   5.439   2.192  14.158 -0.5203  0.2989 -2.1648
  731TIP3    H223609   5.571   2.162  14.090  0.6664  0.1523  0.0967
  732TIP3   OH223610   5.265   0.680   5.596  0.4682 -0.8036  0.5404
  732TIP3    H123611   5.193   0.652   5.653  0.4654 -1.4783  0.2139
  732TIP3    H223612   5.223   0.698   5.512  0.8761 -2.7093 -0.1072
  733TIP3   OH223613   3.485   6.109   4.765  0.5068 -0.1100  0.6927
  733TIP3    H123614   3.462   6.199   4.742  2.0458 -0.5233 -3.1431
  733TIP3    H223615   3.409   6.057   4.738  0.4628 -0.1971  0.9730
  734TIP3   OH223616   2.889   0.704   5.744 -0.1733  0.6051  0.1242
  734TIP3    H123617   2.820   0.767   5.721 -0.3014  0.6069  0.5180
  734TIP3    H223618   2.849   0.646   5.808 -0.0683  0.0883 -0.2764
  735TIP3   OH223619   5.385   0.454  15.116  0.1055  0.1991  0.2764
  735TIP3    H123620   5.309   0.396  15.123 -0.8921  1.5637  1.1601
  735TIP3    H223621   5.405   0.456  15.022 -1.1717  0.0855 -0.0128
  736TIP3   OH223622   6.162   5.160  16.411 -0.5069  0.0559 -0.0481
  736TIP3    H123623   6.217   5.162  16.488 -1.8317  0.4757  0.9280
  736TIP3    H223624   6.223   5.162  16.337  0.8395 -1.4751  0.9439
  737TIP3   OH223625   1.736   4.563   3.762  0.3228  0.0240 -0.6057
  737TIP3    H123626   1.751   4.578   3.856 -0.2350 -1.6284 -0.2340
  737TIP3    H223627   1.822   4.537   3.729  0.2482 -0.6778 -0.2725
  738TIP3   OH223628   6.129   0.358  16.049 -0.5193 -0.4017 -0.5953
  738TIP3    H123629   6.058   0.356  15.985  0.0538 -2.3573 -1.2306
  738TIP3    H223630   6.149   0.266  16.066  2.9883  0.0103 -1.7157
  739TIP3   OH223631   5.759   1.106   1.965  0.1059 -0.3730 -0.3178
  739TIP3    H123632   5.770   1.049   2.041 -2.8081 -1.2444 -0.4241
  739TIP3    H223633   5.722   1.050   1.898 -0.2862  1.0669 -1.3641
  740TIP3   OH223634   5.307   5.661  16.068 -0.2588  0.2858  0.4578
  740TIP3    H123635   5.236   5.639  16.008  0.4880  0.8272 -0.6427
  740TIP3    H223636   5.375   5.596  16.049  1.0965  2.0875 -1.2991
  741TIP3   OH223637   3.207   2.658  11.345 -0.0011  0.2074  0.1510
  741TIP3    H123638   3.152   2.595  11.391  0.9389 -1.1050 -0.4829
  741TIP3    H223639   3.287   2.664  11.398  0.6382 -0.4920 -0.7094
  742TIP3   OH223640   5.613   2.381   4.397  0.6662 -0.2202 -0.1816
  742TIP3    H123641   5.629   2.473   4.418  1.1300 -0.2978 -0.1780
  742TIP3    H223642   5.556   2.384   4.320  0.1993  0.0663  0.1706
  743TIP3   OH223643   2.683   1.293   1.333 -0.5421  0.2268  0.9280
  743TIP3    H123644   2.626   1.293   1.257 -0.8125  5.0124  0.8650
  743TIP3    H223645   2.762   1.247   1.304 -1.6198 -0.3442 -1.3022
  744TIP3   OH223646   0.287   2.121  13.999  0.4847 -0.3515  0.1829
  744TIP3    H123647   0.207   2.151  13.955 -0.0170  0.6289  1.6897
  744TIP3    H223648   0.358   2.149  13.940 -0.2100 -0.0163 -0.5131
  745TIP3   OH223649   1.347   6.177  16.822  0.2967 -0.1143 -0.4010
  745TIP3    H123650   1.282   6.240  16.854 -1.1995 -0.8650 -1.8276
  745TIP3    H223651   1.295   6.103  16.792  1.9458 -1.5029  0.0239
  746TIP3   OH223652   2.634   1.121  13.866 -0.1281 -0.0985  0.5460
  746TIP3    H123653   2.618   1.202  13.818 -0.9321  0.1265  1.1690
  746TIP3    H223654   2.589   1.133  13.949  0.0589 -1.0423  0.7958
  747TIP3   OH223655   5.724   0.887   1.522  0.0541 -0.4214 -0.8831
  747TIP3    H123656   5.697   0.876   1.431 -1.3301 -1.8659 -0.3394
  747TIP3    H223657   5.776   0.809   1.541  1.7800  0.6680 -0.8761
  748TIP3   OH223658   4.010   4.101   1.091  0.3221 -0.4608 -0.0065
  748TIP3    H123659   3.964   4.018   1.078  1.2293 -1.0295  0.3057
  748TIP3    H223660   4.086   4.095   1.032  0.0792  0.4061 -0.4192
  749TIP3   OH223661   2.829   5.547   4.754  0.5220 -0.1417  0.2070
  749TIP3    H123662   2.830   5.608   4.680 -4.2327  0.1221  0.0333
  749TIP3    H223663   2.858   5.598   4.829 -0.3340  1.4594 -0.5064
  750TIP3   OH223664   1.481   3.883  13.446 -0.3075 -0.7505 -0.1892
  750TIP3    H123665   1.490   3.954  13.382  0.0223  0.3329  1.0185
  750TIP3    H223666   1.570   3.868  13.478 -0.6955  0.1388  1.4520
  751TIP3   OH223667   2.505   3.179   4.894 -0.0614 -0.3089 -0.1603
  751TIP3    H123668   2.451   3.153   4.820 -0.2575  1.1442 -0.5547
  751TIP3    H223669   2.444   3.219   4.956  0.5929  2.0580 -0.9383
  752TIP3   OH223670   6.565   1.679   2.935  0.1979 -0.1240 -0.3422
  752TIP3    H123671   6.627   1.747   2.907 -0.2107 -0.4046 -2.0314
  752TIP3    H223672   6.521   1.717   3.010  1.8586  0.4013  0.4239
  753TIP3   OH223673   0.381   5.865  14.729 -0.1890  0.1220  0.7358
  753TIP3    H123674   0.328   5.819  14.663 -1.7151  1.0943  1.2252
  753TIP3    H223675   0.468   5.827  14.720 -0.3160  0.2588 -1.8846
  754TIP3   OH223676   0.917   3.389  13.915  0.4809 -0.5000 -0.4647
  754TIP3    H123677   1.002   3.425  13.889 -0.1727  2.7700  1.3358
  754TIP3    H223678   0.860   3.465  13.921 -2.1928 -2.4028 -0.0597
  755TIP3   OH223679   2.424   5.219  11.807  0.3752 -0.4713  0.2032
  755TIP3    H123680   2.392   5.268  11.883  1.6477  0.2001  0.3304
  755TIP3    H223681   2.438   5.131  11.840  2.8755  0.2776  1.3451
  756TIP3   OH223682   2.125   4.274  10.498  0.3931  0.5931  0.5677
  756TIP3    H123683   2.182   4.349  10.483  0.2753  1.1182  2.4480
  756TIP3    H223684   2.051   4.288  10.439  2.6930 -0.8142 -2.9376
  757TIP3   OH223685   1.055   5.803   0.734 -0.8412 -0.0513  0.2807
  757TIP3    H123686   1.081   5.801   0.642 -1.0468  0.1468  0.2189
  757TIP3    H223687   0.959   5.812   0.732 -0.9749 -1.1641  0.4970
  758TIP3   OH223688   6.560   6.757  10.620 -0.0101  0.2935  0.2482
  758TIP3    H123689   6.591   6.667  10.623  0.3005  0.3432 -0.9400
  758TIP3    H223690   6.465   6.750  10.622  0.0258  0.0042  1.2709
  759TIP3   OH223691   3.128   2.734  15.039 -0.1147 -0.3072  0.8396
  759TIP3    H123692   3.109   2.820  15.079 -1.8125 -0.0675 -0.3818
  759TIP3    H223693   3.060   2.676  15.075  0.3864 -0.8997  0.8460
  760TIP3   OH223694   2.720   3.461  13.553  0.4641  0.1833 -0.9002
  760TIP3    H123695   2.721   3.380  13.602 -2.5248  0.7806  0.3595
  760TIP3    H223696   2.714   3.434  13.461  1.1713 -0.9735 -0.6207
  761TIP3   OH223697   3.841   4.170   0.637  0.4270  0.6117  0.0139
  761TIP3    H123698   3.918   4.129   0.597  0.7991  0.3712  0.9419
  761TIP3    H223699   3.844   4.261   0.608 -0.4085  0.0268 -2.0769
  762TIP3   OH223700   6.203   1.713  12.071  0.0357  0.5368 -0.2924
  762TIP3    H123701   6.186   1.655  11.996  1.6643 -0.2139 -0.1286
  762TIP3    H223702   6.219   1.799  12.033 -1.4500  0.6934 -0.6129
  763TIP3   OH223703   1.833   5.889   0.094  0.3181 -0.1067  0.5022
  763TIP3    H123704   1.836   5.833   0.016 -1.0195  0.4488  0.0257
  763TIP3    H223705   1.901   5.853   0.151  1.0844 -0.7549 -0.7590
  764TIP3   OH223706   6.139   5.186   4.295  0.1879 -0.0666 -0.0429
  764TIP3    H123707   6.115   5.230   4.376 -0.3218  3.4239 -1.8878
  764TIP3    H223708   6.058   5.183   4.244  0.8053 -0.7938 -1.0239
  765TIP3   OH223709   0.513   5.393   2.896 -0.7048  0.0212  0.1482
  765TIP3    H123710   0.571   5.456   2.938  1.5878  0.0091 -2.7010
  765TIP3    H223711   0.565   5.312   2.892 -1.4717 -0.4340 -1.1611
  766TIP3   OH223712   6.510   3.109  14.733 -0.1429 -0.4364  0.5247
  766TIP3    H123713   6.456   3.040  14.694  2.5122 -1.1777 -2.2692
  766TIP3    H223714   6.573   3.062  14.787  0.4384 -0.0302  0.2094
  767TIP3   OH223715   5.772   1.580  12.670  0.5177  0.2102  0.2066
  767TIP3    H123716   5.847   1.627  12.706  0.8214  0.0267 -0.1808
  767TIP3    H223717   5.782   1.490  12.701  0.6198  0.1182 -0.0884
  768TIP3   OH223718   3.407   0.072  15.640 -0.0650 -0.7202  0.3927
  768TIP3    H123719   3.379  -0.017  15.619 -0.6641 -0.5094  0.2723
  768TIP3    H223720   3.427   0.070  15.733  0.7793 -1.1972  0.2085
  769TIP3   OH223721   6.578   5.465  15.168 -0.9336  0.3551  0.9459
  769TIP3    H123722   6.647   5.505  15.221 -0.8844  1.2619  0.2229
  769TIP3    H223723   6.596   5.372  15.172  0.9542  0.6273 -0.0346
  770TIP3   OH223724   1.042   5.830  12.527 -0.2986  0.8130 -0.4067
  770TIP3    H123725   1.131   5.837  12.494 -0.4005 -2.2557 -1.6042
  770TIP3    H223726   1.017   5.739  12.511 -3.4584  1.4189  0.4172
  771TIP3   OH223727   5.177   6.115  15.409  0.3719 -0.4905 -0.0537
  771TIP3    H123728   5.214   6.170  15.478 -2.1298  2.0564 -0.5970
  771TIP3    H223729   5.102   6.072  15.450  0.8832 -1.6918 -0.3225
  772TIP3   OH223730   0.731   1.583   1.719  0.2454 -0.2029  0.0544
  772TIP3    H123731   0.688   1.611   1.638  2.5505  0.5312 -0.9746
  772TIP3    H223732   0.664   1.532   1.765 -1.8556  1.2335 -1.2440
  773TIP3   OH223733   0.746   4.604  12.108  0.3308  0.2140  0.5355
  773TIP3    H123734   0.731   4.654  12.027  1.4950 -0.7130 -0.2876
  773TIP3    H223735   0.669   4.546  12.113  0.7942 -0.5423 -0.5705
  774TIP3   OH223736   5.588   0.837  14.067 -0.5094 -0.3648  0.1172
  774TIP3    H123737   5.616   0.889  14.142 -2.1621  0.1157  0.4399
  774TIP3    H223738   5.492   0.835  14.073 -0.5764 -1.9609 -0.8916
  775TIP3   OH223739   2.537   3.843  14.489  0.0249 -0.0408  0.1476
  775TIP3    H123740   2.482   3.838  14.567  0.1011 -2.8296  0.1277
  775TIP3    H223741   2.618   3.798  14.515 -0.7477 -2.9713 -2.0710
  776TIP3   OH223742   3.592   0.972  11.688  0.1649 -0.1979 -0.0681
  776TIP3    H123743   3.646   0.894  11.682  0.4436 -0.0070 -0.0623
  776TIP3    H223744   3.655   1.045  11.690 -0.0934  0.0326 -0.2167
  777TIP3   OH223745   3.759   2.342  15.175 -0.0397 -0.0158 -0.4146
  777TIP3    H123746   3.729   2.252  15.193 -1.0187  0.5706  1.0829
  777TIP3    H223747   3.816   2.363  15.248  1.3450  0.1092 -1.5000
  778TIP3   OH223748   0.111   5.327  14.209 -0.3618  0.0620  0.3932
  778TIP3    H123749   0.157   5.268  14.149 -0.8722  0.1237 -0.0659
  778TIP3    H223750   0.123   5.287  14.295  0.6758  0.1577  0.3104
  779TIP3   OH223751   3.245   0.370  12.960  0.4425 -0.4385  0.2680
  779TIP3    H123752   3.238   0.304  13.028  1.4026 -0.1225  0.6883
  779TIP3    H223753   3.309   0.335  12.898 -0.1859 -0.5818 -0.3056
  780TIP3   OH223754   0.703   4.137   0.090 -0.5202  0.4623 -0.8344
  780TIP3    H123755   0.612   4.161   0.077 -0.8199  0.1860  0.6063
  780TIP3    H223756   0.718   4.147   0.184  0.4964 -0.9618 -0.8085
  781TIP3   OH223757   0.745   4.489  11.723  0.6698 -0.5568 -0.2778
  781TIP3    H123758   0.723   4.406  11.764 -1.2607 -0.5259 -1.1163
  781TIP3    H223759   0.708   4.556  11.781  2.2770 -0.2259  0.4342
  782TIP3   OH223760   4.649   3.198  11.120  0.1433 -0.1847 -0.2659
  782TIP3    H123761   4.557   3.218  11.098 -0.1373 -2.1292 -1.0078
  782TIP3    H223762   4.699   3.236  11.048 -0.0852  0.6750  0.0170
  783TIP3   OH223763   4.356   1.129  15.705 -0.1236  0.3413 -0.1789
  783TIP3    H123764   4.414   1.122  15.630  0.2765  1.8429 -0.0404
  783TIP3    H223765   4.395   1.197  15.760 -0.3222 -0.8070  1.4815
  784TIP3   OH223766   2.246   4.691   6.008  0.2341  0.3034 -0.0581
  784TIP3    H123767   2.271   4.606   6.043 -0.4681  0.6297  1.2785
  784TIP3    H223768   2.185   4.727   6.072  0.4387  1.7744 -0.6460
  785TIP3   OH223769   0.256   5.338  12.852 -0.3118 -0.1337 -0.2038
  785TIP3    H123770   0.172   5.378  12.832  0.4859  0.8805 -1.6885
  785TIP3    H223771   0.280   5.291  12.773  0.0065 -1.3848  0.6061
  786TIP3   OH223772   3.901   0.689  16.498  0.0157 -0.0347  0.0954
  786TIP3    H123773   3.898   0.665  16.406 -1.3278 -2.5812  0.7125
  786TIP3    H223774   3.830   0.753  16.508  0.3221  0.4389 -0.6585
  787TIP3   OH223775   5.287   5.811  12.736 -0.1598  0.1550  0.1882
  787TIP3    H123776   5.318   5.822  12.826  1.4508  1.3764 -0.4685
  787TIP3    H223777   5.209   5.866  12.731 -0.9245 -0.7972  1.1145
  788TIP3   OH223778   1.338   3.395   0.342  0.0229 -0.1655  0.1312
  788TIP3    H123779   1.354   3.477   0.294 -1.3406  0.2136  0.2693
  788TIP3    H223780   1.338   3.327   0.274  2.2109 -0.2345  0.1395
  789TIP3   OH223781   0.100   0.220   6.391 -0.1720  0.0033  0.2846
  789TIP3    H123782   0.148   0.301   6.403 -0.1298  0.2225 -1.1397
  789TIP3    H223783   0.012   0.239   6.424 -0.5759  1.1226 -1.3209
  790TIP3   OH223784   3.371   0.135   0.733 -0.7031 -0.2489  0.4859
  790TIP3    H123785   3.400   0.059   0.682 -0.4983 -0.4531  0.8976
  790TIP3    H223786   3.279   0.147   0.709 -0.7199 -0.5917  0.3740
  791TIP3   OH223787   6.431   3.029  16.393  0.1177 -0.5120 -0.1352
  791TIP3    H123788   6.483   3.107  16.372  0.5420 -0.6425  0.4062
  791TIP3    H223789   6.451   2.968  16.323  1.3889 -0.8817  0.5159
  792TIP3   OH223790   6.513   6.219  15.691  0.4662  0.5563  0.0092
  792TIP3    H123791   6.460   6.165  15.632  0.4539  0.0725  0.4573
  792TIP3    H223792   6.603   6.204  15.663  0.3156  2.7790 -1.9429
  793TIP3   OH223793   3.473   5.918  14.199 -0.2375 -0.0445  0.2956
  793TIP3    H123794   3.517   5.921  14.283 -1.2954  1.2729  0.8255
  793TIP3    H223795   3.462   6.009  14.173 -1.6920 -0.3581 -0.3106
  794TIP3   OH223796   4.942   3.615   6.669 -0.2622  0.1331  0.1833
  794TIP3    H123797   5.015   3.671   6.643 -0.8548  0.6489 -0.4161
  794TIP3    H223798   4.966   3.528   6.639  0.3195  0.2134  0.4179
  795TIP3   OH223799   6.196   4.775  16.955 -0.0088  0.1608  0.0714
  795TIP3    H123800   6.194   4.748  17.047 -2.4563 -2.9136 -0.7073
  795TIP3    H223801   6.237   4.702  16.910 -1.0779  0.5012 -1.5352
  796TIP3   OH223802   1.203   4.338  16.976  0.1619 -0.1120  0.5108
  796TIP3    H123803   1.130   4.394  16.951 -0.5433 -0.9150  0.6969
  796TIP3    H223804   1.268   4.397  17.013 -0.7553  0.5247  1.1510
  797TIP3   OH223805   1.764   2.098  12.260  0.1205  0.2047 -0.3423
  797TIP3    H123806   1.672   2.122  12.256 -0.4330 -1.4780  0.9018
  797TIP3    H223807   1.793   2.128  12.346  0.2838 -0.6198 -0.0963
  798TIP3   OH223808   1.280   3.835  16.027  0.3027 -0.7243  0.5825
  798TIP3    H123809   1.358   3.848  15.973  0.4434 -0.4880  0.8450
  798TIP3    H223810   1.289   3.898  16.098  0.9135 -2.1245  1.7920
  799TIP3   OH223811   4.641   0.094   1.371  0.1939 -0.2188 -0.2065
  799TIP3    H123812   4.649   0.152   1.295  1.8245  1.3698  1.0859
  799TIP3    H223813   4.597   0.147   1.438 -1.1327 -1.5575  0.0263
  800TIP3   OH223814   5.490   1.154   1.968 -0.0312 -0.9129  0.2783
  800TIP3    H123815   5.584   1.173   1.970 -0.2487  0.2332  0.1458
  800TIP3    H223816   5.454   1.206   2.040 -0.9131  0.7970 -1.3168
  801TIP3   OH223817   1.480   3.515  15.346 -0.4678  0.0356 -0.2930
  801TIP3    H123818   1.559   3.570  15.352 -0.1072 -0.6285  1.6592
  801TIP3    H223819   1.476   3.489  15.254  1.5726  0.1397 -0.4531
  802TIP3   OH223820   2.072   4.341   4.097 -0.5420  0.3225  0.4079
  802TIP3    H123821   1.991   4.310   4.138 -0.5797 -2.7663 -1.6916
  802TIP3    H223822   2.139   4.279   4.127  0.6395  1.5601  0.4155
  803TIP3   OH223823   6.117   2.148   3.603  0.2575  0.1285 -0.0232
  803TIP3    H123824   6.184   2.167   3.537  0.0509  1.4946  0.1292
  803TIP3    H223825   6.038   2.128   3.552  0.5121 -0.4630 -0.1937
  804TIP3   OH223826   5.306   4.142  16.048 -0.2888  0.2198  0.2057
  804TIP3    H123827   5.357   4.215  16.014  0.0063 -0.3974 -0.7093
  804TIP3    H223828   5.233   4.183  16.094  1.1582  1.1290  1.8174
  805TIP3   OH223829   1.012   1.075  16.914 -0.1219 -0.8031  1.2911
  805TIP3    H123830   0.992   1.164  16.943 -1.6030 -0.4183 -0.7381
  805TIP3    H223831   1.068   1.039  16.984  1.5948  2.1043  1.5756
  806TIP3   OH223832   1.532   1.814  16.240  0.1029 -0.1986  0.2550
  806TIP3    H123833   1.481   1.859  16.173 -1.2942 -1.3110  0.5272
  806TIP3    H223834   1.623   1.821  16.209 -0.3956  0.2022 -1.2191
  807TIP3   OH223835   5.002   6.510  12.145 -0.0465 -0.2491  0.1156
  807TIP3    H123836   4.972   6.467  12.065  1.6110 -1.9220  0.3186
  807TIP3    H223837   4.992   6.443  12.213  2.0030 -0.1545  0.5742
  808TIP3   OH223838   4.431   6.788   4.919  0.7037 -0.1491 -0.0134
  808TIP3    H123839   4.347   6.782   4.965  1.0567 -0.4494  0.6009
  808TIP3    H223840   4.466   6.699   4.922 -0.2008 -0.7123 -2.7081
  809TIP3   OH223841   6.076   5.897  17.169 -0.0409  0.2423  0.1120
  809TIP3    H123842   5.989   5.875  17.137 -1.0193  0.4420  2.3962
  809TIP3    H223843   6.061   5.934  17.256  2.2795  0.9984  0.2747
  810TIP3   OH223844   5.017   6.372  13.581 -0.1707  0.5590  0.4115
  810TIP3    H123845   4.994   6.303  13.643 -1.1168  0.4302 -0.0570
  810TIP3    H223846   4.991   6.453  13.624 -0.1802  0.5257  0.4681
  811TIP3   OH223847   2.116   3.094  14.868 -0.3317 -0.1911  0.3211
  811TIP3    H123848   2.109   3.172  14.815 -1.2707 -0.7751 -0.4531
  811TIP3    H223849   2.055   3.109  14.941  1.1531  0.7219  1.4248
  812TIP3   OH223850   1.109   6.135  13.235 -0.4543 -0.2375 -0.2114
  812TIP3    H123851   1.110   6.075  13.310 -1.2207  0.8861  0.7227
  812TIP3    H223852   1.202   6.146  13.212 -0.1947 -0.4459  0.6902
  813TIP3   OH223853   1.062   1.772   2.531  0.0946  0.7802  0.3952
  813TIP3    H123854   1.110   1.804   2.455 -0.8231  0.9362 -0.1300
  813TIP3    H223855   0.983   1.732   2.495 -0.2162  0.5953  1.2459
  814TIP3   OH223856   2.058   0.855   3.997 -0.5864 -0.1700  0.0764
  814TIP3    H123857   2.077   0.837   4.089 -0.2308 -0.6121 -0.0806
  814TIP3    H223858   1.984   0.916   3.999 -0.0203  0.5097  0.6675
  815TIP3   OH223859   3.951   5.984   4.025 -0.2108 -0.0267  0.0138
  815TIP3    H123860   3.858   5.995   4.045 -0.1265  0.8625 -0.0327
  815TIP3    H223861   3.971   6.055   3.964  0.4515 -0.3453 -0.1568
  816TIP3   OH223862   0.634   3.708  13.044 -0.0822  0.0570 -0.6197
  816TIP3    H123863   0.548   3.743  13.021 -0.5474 -1.6336 -1.6107
  816TIP3    H223864   0.673   3.681  12.961  0.0880 -2.0538  0.0819
  817TIP3   OH223865   2.619   4.497   2.561  0.4471 -0.1126 -0.3342
  817TIP3    H123866   2.687   4.460   2.617 -0.1586 -1.5227 -0.4659
  817TIP3    H223867   2.537   4.472   2.604 -0.0017  1.2592 -0.3611
  818TIP3   OH223868   4.100   0.299  16.161  0.0016  0.0105 -0.1001
  818TIP3    H123869   4.019   0.347  16.179  0.3572  1.4943 -2.0883
  818TIP3    H223870   4.161   0.329  16.229 -0.3070  1.0389 -0.2668
  819TIP3   OH223871   0.639   0.266   2.755  0.1147 -0.3725 -0.1821
  819TIP3    H123872   0.573   0.280   2.823  2.0672  0.3186  1.6792
  819TIP3    H223873   0.591   0.226   2.682 -2.3988  0.5238  0.8999
  820TIP3   OH223874   5.005   0.644  11.291 -0.0336 -0.1710  0.3522
  820TIP3    H123875   5.096   0.622  11.307 -0.1864 -1.4585 -0.4667
  820TIP3    H223876   4.979   0.589  11.217 -1.0398  1.2889 -0.4284
  821TIP3   OH223877   6.323   0.158  14.692 -0.2920  0.0332 -0.1875
  821TIP3    H123878   6.417   0.140  14.693 -0.5225 -1.3614  1.5808
  821TIP3    H223879   6.317   0.252  14.676  1.3770  0.0817 -0.7408
  822TIP3   OH223880   3.635   5.195  11.690 -0.1444  0.0154 -0.5013
  822TIP3    H123881   3.605   5.273  11.644  0.9213 -0.3294 -1.8395
  822TIP3    H223882   3.554   5.154  11.722 -0.6543  2.3274  1.4490
  823TIP3   OH223883   6.515   4.344   3.318 -0.0048  0.2266  0.2113
  823TIP3    H123884   6.493   4.335   3.411 -2.2862 -1.8586 -0.4435
  823TIP3    H223885   6.571   4.268   3.299 -0.3083  0.1304 -0.3170
  824TIP3   OH223886   4.555   4.241   4.261  0.2320 -0.2867  0.4225
  824TIP3    H123887   4.542   4.282   4.175 -0.3439  0.4400  0.8471
  824TIP3    H223888   4.597   4.308   4.314  1.3698 -1.0190  0.4733
  825TIP3   OH223889   3.143   2.204  17.036  0.0178  0.1292  0.2210
  825TIP3    H123890   3.141   2.131  16.974  1.1730  1.4647 -1.4373
  825TIP3    H223891   3.142   2.161  17.122 -1.6875 -1.7675 -0.6519
  826TIP3   OH223892   2.713   3.757  13.843  0.5495  0.1492 -0.7295
  826TIP3    H123893   2.761   3.837  13.863  0.3412  0.2973 -0.8121
  826TIP3    H223894   2.643   3.754  13.908  1.3774 -0.6871  0.1364
  827TIP3   OH223895   1.037   1.628  11.606  0.6988 -0.0669  0.6375
  827TIP3    H123896   1.038   1.545  11.558  0.9303 -0.2089  0.8865
  827TIP3    H223897   1.098   1.684  11.559  0.9275 -0.2075  0.7678
  828TIP3   OH223898   2.239   3.351   2.081  0.0671  0.3843  0.8257
  828TIP3    H123899   2.147   3.370   2.100 -0.0036  0.8530  0.0615
  828TIP3    H223900   2.236   3.300   2.000  0.6758  4.6762 -2.1913
  829TIP3   OH223901   5.901   3.564   3.184  0.1538 -0.5683  0.1388
  829TIP3    H123902   5.855   3.636   3.141  0.6283 -0.4801 -0.2383
  829TIP3    H223903   5.992   3.573   3.153  0.5076 -0.4978  1.1577
  830TIP3   OH223904   3.116   0.216  14.734  0.2500  0.0247  0.1963
  830TIP3    H123905   3.133   0.166  14.813 -1.1686 -0.2750  0.3443
  830TIP3    H223906   3.021   0.208  14.720  0.2911  1.0380 -0.8753
  831TIP3   OH223907   6.572   3.163   1.493 -0.2584  0.2395  0.4387
  831TIP3    H123908   6.545   3.078   1.529  0.2964 -0.0874  0.0810
  831TIP3    H223909   6.538   3.163   1.404  3.2493 -1.3809 -1.0625
  832TIP3   OH223910   3.879   4.067  13.976 -0.3295  0.3104 -0.8070
  832TIP3    H123911   3.940   4.137  14.000  1.1449 -0.8386 -1.0487
  832TIP3    H223912   3.836   4.043  14.058  1.2276 -0.3803 -0.1500
  833TIP3   OH223913   3.412   4.126   2.352  0.3413  0.0115  0.1608
  833TIP3    H123914   3.373   4.172   2.426 -1.0667  1.7185 -1.5313
  833TIP3    H223915   3.400   4.034   2.372 -2.0623  0.4345  1.0512
  834TIP3   OH223916   0.558   1.684   1.487  0.4342 -0.6752 -0.0927
  834TIP3    H123917   0.480   1.735   1.507  0.1517 -0.4433 -1.6743
  834TIP3    H223918   0.620   1.748   1.450  0.6461 -1.2031 -0.6602
  835TIP3   OH223919   2.831   2.497  15.977  0.1218  0.2419  0.1591
  835TIP3    H123920   2.739   2.477  15.960 -0.3849  1.8543  0.8494
  835TIP3    H223921   2.844   2.477  16.070  0.3272  0.5168  0.1929
  836TIP3   OH223922   4.673   1.805  11.752  0.0023  0.5721 -0.6762
  836TIP3    H123923   4.639   1.740  11.691  1.2197  0.0884 -0.8622
  836TIP3    H223924   4.688   1.883  11.698 -2.1181  1.2855 -0.3227
  837TIP3   OH223925   1.586   2.136  13.068  0.0577  0.0240 -0.4108
  837TIP3    H123926   1.571   2.099  13.155 -0.7716 -1.1893 -1.0414
  837TIP3    H223927   1.566   2.229  13.078 -0.8108 -0.2476  0.5126
  838TIP3   OH223928   1.471   0.137  17.183  0.1567 -0.7927 -0.0134
  838TIP3    H123929   1.436   0.223  17.159  0.5608 -0.6153  0.0238
  838TIP3    H223930   1.487   0.143  17.277 -0.0012 -0.9738  0.0231
  839TIP3   OH223931   5.545   6.283  14.503 -0.1731 -0.2232  0.5529
  839TIP3    H123932   5.571   6.367  14.465  0.4100 -1.3467 -1.7016
  839TIP3    H223933   5.560   6.295  14.597  1.1881  1.7452  0.1713
  840TIP3   OH223934   4.744   6.475   2.506  0.1457  0.0939  0.3706
  840TIP3    H123935   4.821   6.492   2.561  1.1439 -2.4797 -0.0934
  840TIP3    H223936   4.764   6.519   2.423  0.2029  1.0456  0.8629
  841TIP3   OH223937   2.608   2.173   5.895  0.3530 -0.1791  0.0228
  841TIP3    H123938   2.679   2.111   5.878  0.5896 -0.6064  2.2732
  841TIP3    H223939   2.627   2.208   5.983 -2.3282 -0.5054  0.8200
  842TIP3   OH223940   5.107   6.217   5.220 -0.4030 -0.3266 -0.0254
  842TIP3    H123941   5.012   6.219   5.207 -0.9309  0.4006  3.1222
  842TIP3    H223942   5.128   6.125   5.236 -1.2283 -0.1166  2.6620
  843TIP3   OH223943   1.783   4.902  16.813  0.3751 -0.5977  0.2530
  843TIP3    H123944   1.806   4.995  16.815  0.8572 -0.7100  2.0033
  843TIP3    H223945   1.864   4.858  16.840  0.8155 -1.7212 -2.6071
  844TIP3   OH223946   1.108   4.606   3.174 -0.0958 -0.2411  0.8741
  844TIP3    H123947   1.094   4.512   3.190 -0.5357 -0.3559 -0.0554
  844TIP3    H223948   1.063   4.622   3.090 -1.0902  1.0719  1.6165
  845TIP3   OH223949   5.824   2.949  10.889  0.3175 -0.0050 -0.4240
  845TIP3    H123950   5.777   2.948  10.806 -1.3275  1.1052  0.4375
  845TIP3    H223951   5.882   3.026  10.883 -0.6837  0.8002 -0.1223
  846TIP3   OH223952   4.404   3.057  14.604  0.1858 -0.0580  0.0625
  846TIP3    H123953   4.326   3.104  14.635 -0.7019 -1.4893  0.0921
  846TIP3    H223954   4.461   3.052  14.680  0.0631  0.5004  0.1955
  847TIP3   OH223955   3.133   5.130  13.557 -0.0553 -0.5678 -0.2841
  847TIP3    H123956   3.060   5.131  13.496  1.1175  1.3744 -1.7748
  847TIP3    H223957   3.097   5.166  13.638 -1.1570 -1.3594 -0.3933
  848TIP3   OH223958   1.209   0.415  16.247 -0.7697  0.0594  0.4297
  848TIP3    H123959   1.183   0.339  16.194 -0.7388  1.1763 -1.2521
  848TIP3    H223960   1.126   0.454  16.274 -0.9499  1.8939 -2.4163
  849TIP3   OH223961   1.332   5.799  12.829 -0.5862  0.4614 -0.0590
  849TIP3    H123962   1.323   5.852  12.908 -2.0179 -0.4566  0.4318
  849TIP3    H223963   1.276   5.723  12.845  0.4198 -0.5635 -1.2746
  850TIP3   OH223964   2.177   1.214   6.455 -0.4968 -0.0941 -0.2868
  850TIP3    H123965   2.089   1.241   6.481  0.1779  2.1670 -0.1005
  850TIP3    H223966   2.229   1.220   6.535 -0.0308 -0.6972 -0.5417
  851TIP3   OH223967   6.071   0.515  15.576  0.1217  0.3622  0.1499
  851TIP3    H123968   6.126   0.438  15.566 -0.5942  0.0647 -2.3283
  851TIP3    H223969   6.050   0.541  15.486 -1.8521  1.8513  0.9602
  852TIP3   OH223970   2.934   3.001   3.639  0.1327 -0.2578  0.0044
  852TIP3    H123971   2.944   3.092   3.612 -0.0591 -0.3882 -0.5383
  852TIP3    H223972   3.004   2.986   3.702  1.1597 -0.1837 -1.0852
  853TIP3   OH223973   0.044   1.725   5.130 -0.4991 -0.0550 -0.5528
  853TIP3    H123974  -0.035   1.773   5.108  0.2578  1.1729 -0.6914
  853TIP3    H223975   0.116   1.784   5.107  0.4335 -0.6466  0.6745
  854TIP3   OH223976   5.078   6.744   5.370  0.3474 -0.3434 -0.0777
  854TIP3    H123977   5.036   6.820   5.410  0.9167  0.3343 -0.7238
  854TIP3    H223978   5.157   6.730   5.422  0.0448 -0.7560  0.2850
  855TIP3   OH223979   0.490   5.116   4.619  0.6345  0.5081 -0.0566
  855TIP3    H123980   0.458   5.113   4.529  1.4816 -0.5002 -0.3306
  855TIP3    H223981   0.469   5.030   4.656  1.0212  0.6250  0.4595
  856TIP3   OH223982   2.220   0.737  14.603  0.2156  0.2413 -0.1007
  856TIP3    H123983   2.309   0.703  14.617  0.0372 -0.0205  0.4205
  856TIP3    H223984   2.217   0.758  14.510  0.9612  0.6328 -0.0528
  857TIP3   OH223985   0.226   0.400  11.739 -0.3245  0.0940 -0.1533
  857TIP3    H123986   0.237   0.484  11.784 -1.8275  0.9449 -1.2760
  857TIP3    H223987   0.161   0.353  11.791  0.2546 -0.2509  0.2758
  858TIP3   OH223988   4.624   1.374  10.993 -0.3493 -0.6417  0.2892
  858TIP3    H123989   4.623   1.418  10.908  1.8420 -0.8070  0.1046
  858TIP3    H223990   4.717   1.359  11.010 -0.7587 -0.8539  2.5999
  859TIP3   OH223991   4.556   2.917   3.185 -0.2452  0.6923  0.3578
  859TIP3    H123992   4.552   2.865   3.266  0.0756  1.4436  0.8640
  859TIP3    H223993   4.648   2.940   3.176 -0.4766  1.7308  0.5030
  860TIP3   OH223994   4.601   4.703   1.942  0.4641  0.2713 -0.4851
  860TIP3    H123995   4.645   4.678   2.023  0.5146 -0.9657 -0.8629
  860TIP3    H223996   4.668   4.752   1.893  2.2067 -3.0977 -1.8307
  861TIP3   OH223997   2.943   4.121  15.719 -0.7045  0.2358  0.2058
  861TIP3    H123998   2.895   4.168  15.787 -2.2037  0.1819 -0.7722
  861TIP3    H223999   3.007   4.185  15.687 -0.4970  0.5047  1.1248
  862TIP3   OH224000   4.214   4.063   2.090 -0.1629 -0.2458  0.1405
  862TIP3    H124001   4.224   4.054   1.995 -1.4688 -0.7990  0.0365
  862TIP3    H224002   4.263   3.990   2.127  1.2512  0.5769 -0.0344
  863TIP3   OH224003   1.012   0.203  13.453  0.0577  0.6023 -0.0352
  863TIP3    H124004   0.919   0.225  13.451  0.2819  1.6330  0.5787
  863TIP3    H224005   1.026   0.168  13.541  0.4966  1.6060  0.3055
  864TIP3   OH224006   1.390   4.608  13.762  0.5672  0.2959 -0.0747
  864TIP3    H124007   1.408   4.518  13.790 -1.7989 -0.1319  0.2936
  864TIP3    H224008   1.298   4.623  13.787  0.2956  2.1323 -1.9003
  865TIP3   OH224009   3.179   3.844  11.069 -0.3021 -0.1905 -0.0944
  865TIP3    H124010   3.096   3.798  11.080 -1.1775  1.2187 -0.5253
  865TIP3    H224011   3.160   3.915  11.008  1.4295 -0.3031 -0.8448
  866TIP3   OH224012   1.105   6.389  11.372  0.2138  0.3417 -0.5154
  866TIP3    H124013   1.199   6.381  11.356  0.1953  1.8489 -1.6469
  866TIP3    H224014   1.094   6.478  11.405 -0.6556 -0.3379  1.1288
  867TIP3   OH224015   4.440   1.058  11.049  0.1646  0.0757  0.4066
  867TIP3    H124016   4.458   1.097  10.963 -1.1021 -0.4609 -0.1233
  867TIP3    H224017   4.393   0.977  11.029 -0.3067  0.0393  1.6134
  868TIP3   OH224018   5.399   5.885   5.973  0.1194 -0.0838  0.1634
  868TIP3    H124019   5.317   5.878   5.925 -0.1562 -0.9163  0.7241
  868TIP3    H224020   5.376   5.862   6.063  0.5417  1.8426  0.8044
  869TIP3   OH224021   3.288   4.007  13.074  0.4873 -0.1803 -0.1247
  869TIP3    H124022   3.340   3.978  12.999  2.1532  0.8291  0.5919
  869TIP3    H224023   3.334   3.971  13.150  1.1583  2.1085  0.6214
  870TIP3   OH224024   0.650   6.115  15.628 -0.2508  0.3037  0.0985
  870TIP3    H124025   0.623   6.166  15.705  0.1247 -0.1502  0.5426
  870TIP3    H224026   0.745   6.129  15.623 -0.2355  0.1110 -0.1226
  871TIP3   OH224027   1.375   5.745   0.630 -0.7643  0.0644  0.2011
  871TIP3    H124028   1.419   5.660   0.637  0.0979  0.2933 -1.7892
  871TIP3    H224029   1.315   5.736   0.556 -0.4861  1.2387 -0.1922
  872TIP3   OH224030   6.216   0.391  14.453  0.1113 -0.1263  0.2673
  872TIP3    H124031   6.295   0.404  14.505  0.1735  0.2948  0.0739
  872TIP3    H224032   6.229   0.447  14.376 -0.1676 -0.4148  0.0095
  873TIP3   OH224033   1.073   0.202  12.822 -0.3981  0.0420  0.2025
  873TIP3    H124034   1.155   0.160  12.797 -0.3531  1.2203 -1.7334
  873TIP3    H224035   1.022   0.131  12.862  0.7620 -1.1833 -0.4074
  874TIP3   OH224036   3.412   5.113   2.009  0.3641  0.2875 -0.2448
  874TIP3    H124037   3.397   5.020   2.027  2.2240  0.4691  2.8546
  874TIP3    H224038   3.503   5.118   1.982 -0.1083  1.1184 -1.8395
  875TIP3   OH224039   1.934   2.409  11.325 -0.3637 -0.0656  0.1597
  875TIP3    H124040   1.954   2.493  11.284  0.6275  0.6643  2.0005
  875TIP3    H224041   2.018   2.365  11.333 -0.6640 -0.5765  0.5793
  876TIP3   OH224042   1.941   4.056   2.620 -0.3699 -0.2411 -0.1285
  876TIP3    H124043   1.917   4.139   2.662  0.5913 -1.3410  2.8892
  876TIP3    H224044   2.035   4.063   2.606 -0.3552 -0.6512 -0.2262
  877TIP3   OH224045   1.660   5.611  15.620  0.4893  0.2105  0.7125
  877TIP3    H124046   1.715   5.631  15.545 -0.1999 -1.6145 -0.3642
  877TIP3    H224047   1.699   5.659  15.693  1.9183  1.0367 -0.5463
  878TIP3   OH224048   3.182   1.548   4.652 -0.1219  0.2021  0.1351
  878TIP3    H124049   3.095   1.565   4.687  0.6539  0.9589  1.7692
  878TIP3    H224050   3.165   1.503   4.569 -2.1115  2.2627 -0.6978
  879TIP3   OH224051   4.439   0.330   3.184 -0.0884 -0.0410 -0.2736
  879TIP3    H124052   4.502   0.259   3.198 -1.0897 -0.8817  0.0526
  879TIP3    H224053   4.449   0.387   3.261  1.8841  1.1265 -1.3072
  880TIP3   OH224054   0.189   0.479  17.103  0.6883  0.4863  0.2400
  880TIP3    H124055   0.171   0.452  17.013  1.4265  0.5699  0.0552
  880TIP3    H224056   0.280   0.453  17.117  1.1337  2.0322  0.3740
  881TIP3   OH224057   5.060   5.896   2.200  0.1628  0.2484  0.6444
  881TIP3    H124058   5.137   5.931   2.155 -0.1650  0.6919  0.4249
  881TIP3    H224059   5.026   5.969   2.251 -0.7980  0.4019 -0.1788
  882TIP3   OH224060   5.605   6.209   1.799 -0.4206  0.0302 -0.2472
  882TIP3    H124061   5.637   6.233   1.712 -1.5735 -0.8044 -0.9347
  882TIP3    H224062   5.684   6.201   1.852  0.2959  0.7130 -1.1685
  883TIP3   OH224063   5.256   0.385  14.651  0.2848  0.6883 -0.2968
  883TIP3    H124064   5.176   0.348  14.614 -0.8707  2.1143  0.6631
  883TIP3    H224065   5.281   0.325  14.721 -0.8933  1.0467  0.4667
  884TIP3   OH224066   0.876   1.951   1.693  0.2498 -0.1622  0.0832
  884TIP3    H124067   0.969   1.970   1.679  0.4836  0.1108  1.8541
  884TIP3    H224068   0.837   2.035   1.719 -0.3442 -0.4290  0.0771
  885TIP3   OH224069   5.665   0.144   1.769  0.2149 -0.6517 -0.2098
  885TIP3    H124070   5.720   0.165   1.694  1.7016 -0.5044  0.8793
  885TIP3    H224071   5.624   0.061   1.746  1.3143 -1.0357 -0.8496
  886TIP3   OH224072   3.363   1.347   3.703 -0.1038 -0.0149  0.3237
  886TIP3    H124073   3.296   1.290   3.666 -1.8800  1.3879  1.2145
  886TIP3    H224074   3.375   1.315   3.792  2.0826 -1.6065 -0.4546
  887TIP3   OH224075   6.447   2.801  17.062 -0.1511 -0.4488  0.8611
  887TIP3    H124076   6.445   2.767  17.151  2.1600 -1.4892  0.5822
  887TIP3    H224077   6.372   2.759  17.019  0.0434 -1.7499  1.7209
  888TIP3   OH224078   0.838   6.689  14.079  0.2232  0.1545 -0.0987
  888TIP3    H124079   0.767   6.724  14.133  1.1403  0.7323  0.7655
  888TIP3    H224080   0.819   6.596  14.072  0.1900  0.0280  1.4069
  889TIP3   OH224081   1.270   4.708  16.847 -0.2855 -0.4622 -0.1827
  889TIP3    H124082   1.331   4.781  16.849  1.2645 -1.6674  2.2401
  889TIP3    H224083   1.202   4.731  16.911 -1.0889 -0.1539 -1.1304
  890TIP3   OH224084   5.119   1.607  13.227 -0.3999  0.3239 -0.1272
  890TIP3    H124085   5.118   1.699  13.200 -0.8767  0.8758  1.6498
  890TIP3    H224086   5.116   1.610  13.323  1.1897 -1.5201  0.0485
  891TIP3   OH224087   3.220   6.574   0.702  0.0396  0.0349  0.4012
  891TIP3    H124088   3.249   6.592   0.791  1.6501 -1.1750  0.1639
  891TIP3    H224089   3.127   6.551   0.710 -0.1613  1.1518  1.5730
  892TIP3   OH224090   5.045   1.844   4.596 -0.7339 -0.1804  0.3557
  892TIP3    H124091   5.041   1.784   4.522 -0.1447 -0.1371  0.2832
  892TIP3    H224092   5.035   1.788   4.673  0.0955 -0.4208  0.3014
  893TIP3   OH224093   6.497   2.547  14.610 -0.0700  0.1155 -0.2071
  893TIP3    H124094   6.470   2.496  14.534  2.3330 -0.1335 -0.9702
  893TIP3    H224095   6.583   2.512  14.633  0.0398  1.3941  1.5267
  894TIP3   OH224096   2.757   3.074  13.883  0.3382 -0.1458  0.4403
  894TIP3    H124097   2.662   3.071  13.880  0.3109  0.7182 -2.8239
  894TIP3    H224098   2.783   2.988  13.916 -1.5202 -0.1303  2.1045
  895TIP3   OH224099   6.507   4.143   2.335 -0.0908  0.1711  0.3248
  895TIP3    H124100   6.516   4.155   2.430  1.1753 -0.7277  0.3452
  895TIP3    H224101   6.597   4.149   2.302 -0.3143 -1.1982 -0.5943
  896TIP3   OH224102   3.951   1.546   5.616  0.3299  0.4381 -0.3907
  896TIP3    H124103   3.981   1.458   5.594  0.9566  0.5983 -0.2146
  896TIP3    H224104   3.863   1.534   5.651  1.9326 -0.7266  3.8984
  897TIP3   OH224105   6.057   1.256  14.850 -0.0707 -0.3597  0.0044
  897TIP3    H124106   6.057   1.343  14.890 -0.4282 -0.0576 -0.6422
  897TIP3    H224107   6.048   1.195  14.924 -1.2080  0.2061  0.3513
  898TIP3   OH224108   3.751   6.629  12.003 -1.0365 -0.0198  0.6571
  898TIP3    H124109   3.846   6.636  12.017 -1.0755  0.8372  0.5068
  898TIP3    H224110   3.738   6.538  11.975 -0.6268 -1.0549  3.4773
  899TIP3   OH224111   1.745   4.698   3.145  0.5576 -0.1106 -0.2755
  899TIP3    H124112   1.795   4.648   3.208 -2.5994 -2.4435  0.6473
  899TIP3    H224113   1.695   4.760   3.198 -1.7229 -1.7287 -0.3987
  900TIP3   OH224114   6.072   1.247   2.996 -0.4536 -0.7615  0.3818
  900TIP3    H124115   6.013   1.173   3.012  2.4390 -3.3875 -0.1798
  900TIP3    H224116   6.038   1.288   2.917 -0.8850 -2.9811 -0.6734
  901TIP3   OH224117   3.509   6.343   3.642 -0.5607 -0.1564 -0.3592
  901TIP3    H124118   3.546   6.416   3.592  0.3621 -0.3964 -0.0505
  901TIP3    H224119   3.450   6.384   3.705 -0.5932  0.2695 -0.6700
  902TIP3   OH224120   2.879   5.516  11.398  0.4006 -0.5417  0.3839
  902TIP3    H124121   2.946   5.481  11.456  0.3560  0.0253  0.7767
  902TIP3    H224122   2.896   5.473  11.314  2.9648  1.5727 -0.2990
  903TIP3   OH224123   1.079   3.577  11.619 -0.2067  0.1619 -0.2687
  903TIP3    H124124   1.079   3.625  11.702 -0.1224  0.3362 -0.3683
  903TIP3    H224125   0.992   3.594  11.582  0.1104  0.9137 -0.6892
  904TIP3   OH224126   5.217   4.214   5.883  0.2407  0.6287 -0.0845
  904TIP3    H124127   5.231   4.226   5.977 -0.0479  2.6654 -0.2652
  904TIP3    H224128   5.263   4.288   5.842  1.7350 -1.0657 -1.6872
  905TIP3   OH224129   2.753   1.949  16.040  0.1437 -0.5142 -0.0122
  905TIP3    H124130   2.739   1.892  15.964 -0.8430 -0.3928  0.0671
  905TIP3    H224131   2.832   1.914  16.082  0.1643 -1.1566 -0.5652
  906TIP3   OH224132   2.909   5.775   4.513  0.1239  0.2638 -0.3374
  906TIP3    H124133   2.878   5.697   4.467  1.4020  0.0466 -0.8614
  906TIP3    H224134   2.852   5.845   4.482 -0.4284 -0.2821 -0.5812
  907TIP3   OH224135   5.043   0.941  12.320  0.2747 -0.4956  0.7712
  907TIP3    H124136   4.971   0.994  12.286 -0.8172 -1.6591  1.2027
  907TIP3    H224137   5.045   0.959  12.413 -0.1393 -1.2318  0.9299
  908TIP3   OH224138   5.509   4.867  14.516 -0.5278 -0.1750 -0.4579
  908TIP3    H124139   5.520   4.928  14.444  1.9218 -1.0658 -0.9156
  908TIP3    H224140   5.577   4.891  14.579 -1.6986 -0.3377  0.9476
  909TIP3   OH224141   2.421   3.608   1.193  0.5822  0.0991  0.4550
  909TIP3    H124142   2.386   3.629   1.106 -2.5432 -1.1800  1.2916
  909TIP3    H224143   2.438   3.693   1.233 -2.7684  0.9571  0.3327
  910TIP3   OH224144   1.466   2.183   2.907  0.2327  0.0971 -0.1812
  910TIP3    H124145   1.472   2.276   2.925  0.0074  0.0189  0.3286
  910TIP3    H224146   1.450   2.143   2.993  1.2849 -0.4966 -0.2515
  911TIP3   OH224147   4.237   2.951   3.673 -0.4579  0.0322  0.5551
  911TIP3    H124148   4.252   2.860   3.697 -0.2818  0.5111  2.3852
  911TIP3    H224149   4.146   2.968   3.698 -0.1196  0.6854  1.3891
  912TIP3   OH224150   6.305   2.769  15.952 -0.1070  0.7127 -0.5510
  912TIP3    H124151   6.364   2.732  15.887  0.0586 -0.1042  0.0485
  912TIP3    H224152   6.330   2.861  15.957  0.2802  0.6526 -1.1946
  913TIP3   OH224153   6.075   5.532   4.545  0.6606 -0.6643 -0.4626
  913TIP3    H124154   6.007   5.580   4.592  2.4188  2.1407 -0.6268
  913TIP3    H224155   6.045   5.441   4.548 -1.5693  0.0192  2.0642
  914TIP3   OH224156   4.950   5.348  14.825 -0.2640 -1.2389 -0.7825
  914TIP3    H124157   5.011   5.279  14.850 -0.1626 -0.7982  0.2003
  914TIP3    H224158   4.880   5.302  14.778 -1.0855 -2.2846  1.3521
  915TIP3   OH224159   0.353   4.495   5.140 -0.3161 -0.1998  0.1216
  915TIP3    H124160   0.339   4.475   5.047  1.1152  0.2085 -0.2066
  915TIP3    H224161   0.297   4.432   5.186  0.6065 -1.9077 -0.9724
  916TIP3   OH224162   1.908   6.586   2.614  0.9915 -0.2911  0.3280
  916TIP3    H124163   1.852   6.603   2.538  1.9390  0.8558 -0.1480
  916TIP3    H224164   1.850   6.547   2.679 -0.5074  1.4042  0.0730
  917TIP3   OH224165   0.100   3.860  12.919 -0.3172 -0.0171  0.1813
  917TIP3    H124166   0.078   3.776  12.959 -4.3626  0.5444 -0.3999
  917TIP3    H224167   0.042   3.866  12.842  0.9707  2.6209 -0.7232
  918TIP3   OH224168   2.331   3.561   0.099  0.2855  0.7256  0.4834
  918TIP3    H124169   2.416   3.564   0.054  1.6522 -0.0160  2.8561
  918TIP3    H224170   2.323   3.470   0.129 -0.6180  1.1653  1.6318
  919TIP3   OH224171   4.647   4.705  14.009 -0.2094 -0.1880  0.4414
  919TIP3    H124172   4.710   4.766  14.047 -0.2593  0.2970 -0.2442
  919TIP3    H224173   4.696   4.622  14.002 -0.0542 -0.1625  1.0993
  920TIP3   OH224174   5.785   3.552  12.368  0.1904  0.4522 -0.2050
  920TIP3    H124175   5.710   3.610  12.363  0.6858  1.1421  0.2037
  920TIP3    H224176   5.798   3.537  12.462  1.5623  1.6893 -0.1605
  921TIP3   OH224177   0.891   4.800  14.329 -0.2185  0.0847 -0.2170
  921TIP3    H124178   0.974   4.798  14.281  0.1679 -2.1830  0.4169
  921TIP3    H224179   0.910   4.754  14.411 -1.6095  1.2915  0.8294
  922TIP3   OH224180   0.797   4.626  14.109  0.0643  0.4682 -0.1181
  922TIP3    H124181   0.717   4.672  14.135 -0.2297 -0.0349 -0.1302
  922TIP3    H224182   0.865   4.666  14.163 -0.3406  0.3015  0.5285
  923TIP3   OH224183   1.060   4.920  15.617 -0.1347 -0.8878 -0.1048
  923TIP3    H124184   0.993   4.927  15.549  0.4281  1.2069 -0.4918
  923TIP3    H224185   1.013   4.937  15.699 -0.4545 -1.5750 -0.1334
  924TIP3   OH224186   6.709   5.562   4.090 -0.3963 -0.9512  0.2908
  924TIP3    H124187   6.787   5.564   4.036 -1.1608 -1.6072 -0.8904
  924TIP3    H224188   6.719   5.635   4.152  1.6982 -1.7853  1.0044
  925TIP3   OH224189   5.109   6.596   1.410 -0.0636 -0.0903  1.0069
  925TIP3    H124190   5.080   6.686   1.418 -0.9606 -0.3352  0.6602
  925TIP3    H224191   5.125   6.584   1.316 -1.1256 -0.6222  0.8725
  926TIP3   OH224192   4.870   1.612   4.167 -0.0230  0.2030 -0.0294
  926TIP3    H124193   4.786   1.570   4.184  0.1096 -0.3358 -0.6599
  926TIP3    H224194   4.856   1.704   4.190 -0.3578 -0.1439  1.2562
  927TIP3   OH224195   2.116   2.215  10.869  0.2339  0.0281  0.4681
  927TIP3    H124196   2.174   2.244  10.940  0.5078  1.0000 -0.1250
  927TIP3    H224197   2.030   2.247  10.894  0.5695  1.6471 -0.2833
  928TIP3   OH224198   3.191   0.449   4.999 -0.0532  0.3863 -0.0416
  928TIP3    H124199   3.127   0.509   4.961 -1.0984 -1.3433 -1.1647
  928TIP3    H224200   3.139   0.390   5.054  0.3300 -1.7216 -1.8124
  929TIP3   OH224201   2.485   2.752   2.926 -0.2188 -0.3111  0.0637
  929TIP3    H124202   2.555   2.748   2.991 -0.1975 -1.1763 -0.0084
  929TIP3    H224203   2.404   2.741   2.977 -0.1954 -1.1121 -0.0592
  930TIP3   OH224204   0.991   2.863  17.144 -0.2392 -0.3056 -0.0326
  930TIP3    H124205   1.062   2.883  17.083 -0.2170  1.0844  0.4217
  930TIP3    H224206   1.028   2.795  17.202  0.5733  0.0956 -0.0603
  931TIP3   OH224207   4.998   5.180  17.089  0.6349  0.5241  0.2155
  931TIP3    H124208   4.903   5.172  17.104  0.1793 -2.4836 -3.1495
  931TIP3    H224209   5.006   5.244  17.018  0.6284 -2.1669 -2.3568
  932TIP3   OH224210   6.379   3.789   3.182  0.5893 -0.1842 -0.3015
  932TIP3    H124211   6.446   3.802   3.115  0.7039  0.8353 -0.0083
  932TIP3    H224212   6.395   3.860   3.245 -0.5902 -0.0949 -0.0860
  933TIP3   OH224213   0.406   0.753  13.610 -0.0738  0.1364 -0.3142
  933TIP3    H124214   0.353   0.674  13.618 -0.0377 -0.1999 -2.5704
  933TIP3    H224215   0.370   0.798  13.533  1.8950  0.6805 -0.9839
  934TIP3   OH224216   4.005   4.390   0.883  0.5483  0.1667  0.3436
  934TIP3    H124217   4.049   4.305   0.886  0.1039 -0.1525  4.8070
  934TIP3    H224218   3.915   4.372   0.910 -0.5228  1.7407 -1.8382
  935TIP3   OH224219   3.342   3.119  12.971  1.3984 -0.2367 -0.2040
  935TIP3    H124220   3.312   3.144  13.058 -0.0153 -0.4210 -0.6167
  935TIP3    H224221   3.438   3.126  12.975  1.2296  2.5681  0.4853
  936TIP3   OH224222   2.769   4.629   1.796 -0.4723  0.2463 -0.4994
  936TIP3    H124223   2.862   4.647   1.784 -0.4873  1.4917  0.9261
  936TIP3    H224224   2.733   4.626   1.707  0.3868  2.9233 -1.0150
  937TIP3   OH224225   5.858   3.868  15.010  0.0517 -0.3145 -0.4255
  937TIP3    H124226   5.832   3.882  14.919 -1.6867  3.2118  0.4691
  937TIP3    H224227   5.937   3.921  15.021 -1.5025  1.9200  0.7863
  938TIP3   OH224228   6.505   2.104  15.836 -0.4773 -0.6910 -0.2450
  938TIP3    H124229   6.558   2.024  15.833 -0.8766 -1.0228  0.9529
  938TIP3    H224230   6.551   2.161  15.899 -0.4557 -0.1583 -0.7302
  939TIP3   OH224231   3.684   1.882  13.512 -0.5080 -0.3157  0.6064
  939TIP3    H124232   3.706   1.854  13.423 -0.5254  1.9802 -0.1929
  939TIP3    H224233   3.639   1.966  13.500 -0.5761  0.0130  2.7895
  940TIP3   OH224234   4.138   3.828   0.567  0.1255 -0.0085  0.1588
  940TIP3    H124235   4.117   3.922   0.562 -0.8315 -0.0247  2.4276
  940TIP3    H224236   4.105   3.792   0.485 -0.0600  1.5425 -0.4921
  941TIP3   OH224237   1.184   6.054   4.953 -0.4903  0.1685 -0.0637
  941TIP3    H124238   1.230   6.089   4.876  2.4387  0.2277  1.5891
  941TIP3    H224239   1.113   6.001   4.915  0.1593  1.0418 -2.7750
  942TIP3   OH224240   1.119   4.779  15.352  0.2695  0.2764 -0.3607
  942TIP3    H124241   1.037   4.793  15.304 -0.3870  0.1452  0.7001
  942TIP3    H224242   1.147   4.867  15.377 -0.1756  0.2404  0.2858
  943TIP3   OH224243   0.233   2.576   5.119  0.4397  0.5560 -0.3291
  943TIP3    H124244   0.276   2.553   5.201 -0.2325  0.7685  0.0865
  943TIP3    H224245   0.155   2.520   5.116 -0.9502  2.3451  0.4524
  944TIP3   OH224246   4.425   0.597  14.137 -0.3594 -0.2071 -0.2886
  944TIP3    H124247   4.491   0.529  14.151 -0.0864  0.0724 -0.2058
  944TIP3    H224248   4.451   0.640  14.055 -1.5893 -1.4201 -1.3638
  945TIP3   OH224249   5.439   1.576  14.870  0.8436 -0.3561 -0.0190
  945TIP3    H124250   5.515   1.601  14.922  0.7609 -0.7413  0.2959
  945TIP3    H224251   5.378   1.650  14.879  0.8425 -0.4083  0.4075
  946TIP3   OH224252   4.900   1.357  11.030  0.3971 -0.2976 -0.1041
  946TIP3    H124253   4.959   1.374  10.957  0.8019  0.3449  0.3678
  946TIP3    H224254   4.947   1.293  11.085  0.4921 -0.0737  0.0755
  947TIP3   OH224255   4.603   5.102   3.637 -0.3884  0.1364  0.4193
  947TIP3    H124256   4.629   5.173   3.696  0.1998 -1.1399  1.7661
  947TIP3    H224257   4.528   5.061   3.681 -0.0157 -0.7647  0.2346
  948TIP3   OH224258   1.244   1.207  16.443 -0.3357 -0.7373 -0.0490
  948TIP3    H124259   1.266   1.114  16.448 -1.2510 -1.0579 -1.3899
  948TIP3    H224260   1.159   1.214  16.486  0.4958 -0.1822  1.6019
  949TIP3   OH224261   0.865   2.706   5.841  0.1750 -0.2742  0.3862
  949TIP3    H124262   0.817   2.777   5.883 -0.5556  0.1801 -1.1479
  949TIP3    H224263   0.803   2.668   5.779  1.7447  0.3567 -1.6959
  950TIP3   OH224264   1.552   5.611   1.145  0.2546  0.2561 -0.0065
  950TIP3    H124265   1.539   5.521   1.115  0.4001 -0.1218  1.0154
  950TIP3    H224266   1.577   5.659   1.066  0.0346 -0.5693 -0.5922
  951TIP3   OH224267   1.975   0.429   4.695  0.8019  0.6456 -0.1805
  951TIP3    H124268   2.024   0.511   4.699 -1.4460  2.2254 -2.1428
  951TIP3    H224269   2.037   0.366   4.658  2.3546  1.5774  0.6928
  952TIP3   OH224270   6.420   2.100   6.399  0.1345  0.1484 -0.1172
  952TIP3    H124271   6.456   2.036   6.338 -1.0087 -1.9516  1.3018
  952TIP3    H224272   6.332   2.068   6.418 -0.5182  2.1973  0.6295
  953TIP3   OH224273   2.348   0.040  16.991 -0.0423 -0.1471  0.3977
  953TIP3    H124274   2.323   0.028  17.082  0.0935 -0.7335  0.3578
  953TIP3    H224275   2.356   0.135  16.981 -2.2422  0.0837  0.4068
  954TIP3   OH224276   4.257   0.607  12.231 -0.0918 -0.0624  0.6336
  954TIP3    H124277   4.239   0.598  12.137  0.4309  1.1101  0.4023
  954TIP3    H224278   4.324   0.676  12.236  0.5322 -0.7167  1.8063
  955TIP3   OH224279   5.132   2.715   3.170  0.2890 -0.5149  0.6062
  955TIP3    H124280   5.115   2.770   3.247 -0.6976 -0.5341  0.4141
  955TIP3    H224281   5.144   2.627   3.206 -0.2861 -0.5457  0.7386
  956TIP3   OH224282   3.399   1.623  15.462  0.8640  0.2138  0.3456
  956TIP3    H124283   3.469   1.674  15.503  2.1230 -1.2540  0.1367
  956TIP3    H224284   3.445   1.559  15.407 -0.5872 -1.6226  1.1598
  957TIP3   OH224285   0.502   3.152   1.303 -0.4927  0.5624 -0.2755
  957TIP3    H124286   0.468   3.065   1.283  0.4734  0.2936 -0.7731
  957TIP3    H224287   0.575   3.164   1.243  0.0301  1.3031  0.4890
  958TIP3   OH224288   3.046   0.153   5.808 -0.4233  0.1996  0.1960
  958TIP3    H124289   2.963   0.121   5.844 -0.4469  0.7855  0.6734
  958TIP3    H224290   3.102   0.075   5.805  0.0950  0.3794  2.9213
  959TIP3   OH224291   2.333   2.858  13.757  0.1871  0.6432 -0.0778
  959TIP3    H124292   2.309   2.939  13.802 -0.4185  1.1431 -1.2575
  959TIP3    H224293   2.260   2.842  13.697  1.0620  0.1291 -1.0305
  960TIP3   OH224294   0.783   4.485  14.488 -0.1389 -0.1225 -0.0924
  960TIP3    H124295   0.805   4.460  14.398  0.2654 -0.8367  0.2010
  960TIP3    H224296   0.756   4.403  14.530  1.4694 -0.1501  0.9649
  961TIP3   OH224297   1.249   0.664  16.012  0.0360 -0.1025 -0.7942
  961TIP3    H124298   1.219   0.577  16.039  2.0558 -0.1603  1.6494
  961TIP3    H224299   1.284   0.703  16.092 -1.0198  3.1091 -1.7449
  962TIP3   OH224300   2.588   0.428  12.961  0.7604  0.1038  0.1174
  962TIP3    H124301   2.524   0.410  12.892  0.0174 -0.4428  0.9168
  962TIP3    H224302   2.630   0.509  12.935 -0.0688  0.3230 -0.5791
  963TIP3   OH224303   3.167   2.498   3.708  0.2164 -0.2702  0.1418
  963TIP3    H124304   3.158   2.492   3.803  0.3934 -0.1528  0.1660
  963TIP3    H224305   3.246   2.447   3.688  0.3520 -0.0416  0.0909
  964TIP3   OH224306   1.225   3.135  13.875  0.0122 -0.6297  0.0455
  964TIP3    H124307   1.269   3.125  13.959  0.8645  0.7493 -0.2095
  964TIP3    H224308   1.262   3.215  13.838 -2.5450  0.5018 -0.2854
  965TIP3   OH224309   0.645   3.224   3.782  0.4989 -0.1515 -0.1612
  965TIP3    H124310   0.636   3.283   3.707 -1.2316 -2.3345 -1.8153
  965TIP3    H224311   0.658   3.282   3.857 -1.9467  2.4128 -1.5239
  966TIP3   OH224312   5.179   2.948   4.887 -0.7558  0.5900 -0.0984
  966TIP3    H124313   5.100   2.928   4.836 -1.3052 -0.7805  1.2033
  966TIP3    H224314   5.145   2.969   4.975  0.2753  1.0722  0.1976
  967TIP3   OH224315   2.210   0.862   1.585  0.3032  0.1320 -0.1002
  967TIP3    H124316   2.227   0.920   1.659 -0.2531 -0.0046  0.1408
  967TIP3    H224317   2.292   0.862   1.534  0.3339  1.0570 -0.0601
  968TIP3   OH224318   6.199   2.018   0.749 -0.8511  0.4517 -0.3853
  968TIP3    H124319   6.152   2.002   0.831 -4.3216  1.9351 -1.8686
  968TIP3    H224320   6.220   1.931   0.717 -1.4304 -0.2583  1.0350
  969TIP3   OH224321   0.589   1.252   5.456  0.0139  0.0110 -0.1180
  969TIP3    H124322   0.634   1.169   5.473 -2.0344 -0.9130  1.1753
  969TIP3    H224323   0.583   1.294   5.542  0.5520  1.2983 -0.6766
  970TIP3   OH224324   3.086   3.455   0.804  0.5959 -0.1313  0.5928
  970TIP3    H124325   3.115   3.546   0.792  0.4725 -0.2420 -0.6916
  970TIP3    H224326   3.166   3.407   0.825  0.8977  0.0342 -0.1592
  971TIP3   OH224327   0.880   6.084  10.883  0.1198  0.4969 -1.1003
  971TIP3    H124328   0.818   6.142  10.928  1.7312  1.5785 -0.1563
  971TIP3    H224329   0.840   5.997  10.888 -1.0930  1.0783 -0.0943
  972TIP3   OH224330   6.544   0.895   4.072 -0.7742 -0.4691 -0.1531
  972TIP3    H124331   6.548   0.986   4.099 -0.6584 -0.2671 -0.8309
  972TIP3    H224332   6.633   0.876   4.041 -1.0881 -0.4844 -1.0474
  973TIP3   OH224333   5.347   3.712   5.118 -0.4006 -0.0905  0.1648
  973TIP3    H124334   5.386   3.799   5.103 -1.2237  0.1889 -0.4189
  973TIP3    H224335   5.322   3.713   5.210 -1.8062  0.8854 -0.1973
  974TIP3   OH224336   3.779   1.150   5.523 -0.4155 -0.1843 -0.3941
  974TIP3    H124337   3.726   1.127   5.599  0.0292 -2.1634 -0.6282
  974TIP3    H224338   3.863   1.177   5.559 -0.5895  0.0168 -0.1397
  975TIP3   OH224339   0.706   6.011   1.765 -0.0783  0.6226  0.2039
  975TIP3    H124340   0.615   5.991   1.746  0.2933 -1.0230 -0.0110
  975TIP3    H224341   0.705   6.101   1.797 -1.6432  0.9531 -0.6836
  976TIP3   OH224342   5.010   0.854   4.918  0.5043  0.3782 -0.2384
  976TIP3    H124343   5.090   0.806   4.941  0.0261 -0.1980  0.2525
  976TIP3    H224344   5.010   0.930   4.976  0.4842  0.1586  0.0496
  977TIP3   OH224345   6.579   4.581   3.189 -0.0499  0.2829 -0.4597
  977TIP3    H124346   6.581   4.654   3.251  1.5439  0.4065 -0.6114
  977TIP3    H224347   6.554   4.505   3.242  0.0560  0.6121  0.0699
  978TIP3   OH224348   0.205   6.324  14.047  0.5369 -1.2284  0.7009
  978TIP3    H124349   0.257   6.378  14.107  1.1370 -0.2624 -0.6545
  978TIP3    H224350   0.115   6.331  14.081  0.4491  1.2825  0.1507
  979TIP3   OH224351   4.322   2.281   2.471  0.4363 -0.4171 -0.1659
  979TIP3    H124352   4.386   2.256   2.405 -1.3057 -0.5973 -1.8797
  979TIP3    H224353   4.239   2.250   2.437 -0.4735 -1.2013  2.5116
  980TIP3   OH224354   3.717   6.745   4.614 -0.0236 -0.1330  0.1070
  980TIP3    H124355   3.801   6.701   4.604  0.3159  0.7399 -1.0871
  980TIP3    H224356   3.712   6.805   4.540 -1.2838  0.5114  0.6781
  981TIP3   OH224357   1.687   0.822  16.733  0.2875 -0.2478 -0.2988
  981TIP3    H124358   1.768   0.872  16.722  1.4244 -2.1142 -0.8010
  981TIP3    H224359   1.659   0.803  16.643 -0.1616 -0.4503 -0.1161
  982TIP3   OH224360   1.257   0.505  11.088 -0.2248  0.3187 -0.3323
  982TIP3    H124361   1.184   0.535  11.142  0.8991  1.6279  0.5132
  982TIP3    H224362   1.217   0.443  11.027 -1.7641 -0.1562  1.0883
  983TIP3   OH224363   2.772   4.074   0.407  0.5736 -0.2724 -0.7795
  983TIP3    H124364   2.819   4.139   0.354 -0.3065  1.2816  0.2485
  983TIP3    H224365   2.794   4.097   0.497  0.9511 -2.0077 -0.3987
  984TIP3   OH224366   0.462   1.749   3.093  0.2025 -0.2646  0.1843
  984TIP3    H124367   0.540   1.707   3.058  1.0014  0.4178  1.0992
  984TIP3    H224368   0.473   1.747   3.188 -0.7137  0.1685  0.3189
  985TIP3   OH224369   5.101   1.765  16.937 -0.2409 -0.0328 -0.3872
  985TIP3    H124370   5.053   1.703  16.882  1.5984 -0.1217 -2.0156
  985TIP3    H224371   5.076   1.851  16.905 -0.6941 -0.0202 -0.0003
  986TIP3   OH224372   2.607   2.821  13.841 -0.7663 -0.2820 -0.2428
  986TIP3    H124373   2.620   2.731  13.872 -2.2017 -0.5613 -0.3754
  986TIP3    H224374   2.512   2.829  13.831 -0.6670  1.2879 -0.1346
  987TIP3   OH224375   2.740   2.281  14.629 -0.2642  0.2885 -0.3811
  987TIP3    H124376   2.802   2.346  14.663  0.1429 -1.1910  1.9221
  987TIP3    H224377   2.656   2.326  14.630  0.1921  1.1633 -0.0275
  988TIP3   OH224378   3.537   4.503   0.390  0.0887 -0.2223 -0.1221
  988TIP3    H124379   3.539   4.589   0.348  1.6931 -0.3200 -0.2869
  988TIP3    H224380   3.568   4.519   0.479 -1.4577 -0.3398  0.4781
  989TIP3   OH224381   6.496   4.195   0.242 -0.1303  0.2032  0.1854
  989TIP3    H124382   6.551   4.119   0.227  0.3994  0.5241  0.4949
  989TIP3    H224383   6.411   4.171   0.205  0.0283 -0.5435  0.2972
  990TIP3   OH224384   5.920   1.047   5.979 -0.1765  0.5071 -0.2672
  990TIP3    H124385   6.004   1.033   5.935 -0.3181  3.3466 -1.7097
  990TIP3    H224386   5.942   1.063   6.070  0.6676 -0.2841 -0.3192
  991TIP3   OH224387   0.602   2.140   4.038 -0.2177 -0.2954  0.1244
  991TIP3    H124388   0.569   2.193   4.110 -0.4770 -0.7630  0.3593
  991TIP3    H224389   0.613   2.201   3.965  0.5337  0.2837  0.7017
  992TIP3   OH224390   0.858   2.920   5.444 -0.3564  0.7063 -0.0859
  992TIP3    H124391   0.836   3.009   5.473 -0.5233 -0.0697  2.4736
  992TIP3    H224392   0.952   2.912   5.459 -0.5067  0.1683  0.6308
  993TIP3   OH224393   1.285   2.899   1.096  0.0775 -0.6406  0.2197
  993TIP3    H124394   1.370   2.935   1.124  0.8295 -0.0404 -2.5171
  993TIP3    H224395   1.233   2.976   1.074 -0.7261 -1.0565  0.6484
  994TIP3   OH224396   2.341   3.360  12.865 -0.3419  0.6198 -0.0048
  994TIP3    H124397   2.285   3.434  12.884 -0.2403  0.7507 -0.2110
  994TIP3    H224398   2.283   3.284  12.866 -0.3631  0.6374  0.6907
  995TIP3   OH224399   2.588   3.839   0.333 -0.5231 -0.3911  0.5578
  995TIP3    H124400   2.650   3.907   0.357 -1.3075  0.6953 -0.4241
  995TIP3    H224401   2.505   3.885   0.320 -0.6859 -1.2300 -1.8420
  996TIP3   OH224402   4.081   1.305  12.077 -0.6362  0.2334  0.5290
  996TIP3    H124403   4.131   1.383  12.052 -1.1031  0.2682 -0.3071
  996TIP3    H224404   4.141   1.232  12.061 -0.6632  0.3181  0.0428
  997TIP3   OH224405   4.785   2.168   3.822 -0.2240 -0.0440  0.4069
  997TIP3    H124406   4.773   2.181   3.916  2.4278 -4.3525  1.6161
  997TIP3    H224407   4.863   2.219   3.800 -0.1932  0.0657  0.7683
  998TIP3   OH224408   5.138   1.914  12.872  0.4698  0.3853 -0.2477
  998TIP3    H124409   5.188   1.835  12.894 -0.1803  0.2161  0.6841
  998TIP3    H224410   5.054   1.902  12.917  0.2798  1.5031 -0.2860
  999TIP3   OH224411   0.609   0.518   1.901  0.3502 -0.3203 -0.4222
  999TIP3    H124412   0.636   0.590   1.845  0.8721  0.8132  1.1974
  999TIP3    H224413   0.683   0.456   1.898  0.4234 -0.2131 -0.8706
 1000TIP3   OH224414   1.204   2.417  13.953 -0.0413  0.0068  0.5802
 1000TIP3    H124415   1.148   2.452  13.884  0.9611  0.1654 -0.1609
 1000TIP3    H224416   1.142   2.390  14.022 -0.9906  0.7615  0.0531
 1001TIP3   OH224417   4.785   3.826   3.786  0.6087  0.1584  0.3849
 1001TIP3    H124418   4.754   3.910   3.821  0.0049  0.4849 -0.8684
 1001TIP3    H224419   4.880   3.829   3.796  0.5624  0.8424  0.6628
 1002TIP3   OH224420   0.531   0.833  15.654  0.2895  0.0127  0.7808
 1002TIP3    H124421   0.444   0.870  15.669 -0.0136 -0.1314 -0.4763
 1002TIP3    H224422   0.562   0.878  15.575  0.8458 -0.8101  0.5191
 1003TIP3   OH224423   2.620   0.890   1.310 -0.1898  0.8328  0.5204
 1003TIP3    H124424   2.608   0.958   1.376 -1.1494  0.6885  0.5044
 1003TIP3    H224425   2.661   0.935   1.236  1.5811  0.8500  1.4481
 1004TIP3   OH224426   5.593   2.784   5.721  0.2253  0.6727 -0.0267
 1004TIP3    H124427   5.688   2.786   5.736  0.1962 -0.2255  0.3378
 1004TIP3    H224428   5.577   2.856   5.659  0.9786  1.5652  0.7737
 1005TIP3   OH224429   2.335   0.147  16.150  0.0700  0.2180 -0.0460
 1005TIP3    H124430   2.391   0.172  16.077  1.7914 -1.0482  0.7677
 1005TIP3    H224431   2.354   0.213  16.218  0.8772 -0.4043  0.3504
 1006TIP3   OH224432   6.436   0.997  10.977 -0.5411  0.7380 -0.5724
 1006TIP3    H124433   6.469   1.026  11.062 -1.5956  0.4122 -0.0414
 1006TIP3    H224434   6.408   0.907  10.991 -2.6776  1.3325 -0.6798
 1007TIP3   OH224435   2.220   5.533   5.156  0.4386  0.1780 -0.0135
 1007TIP3    H124436   2.178   5.545   5.072  0.2285  2.8654  0.3977
 1007TIP3    H224437   2.168   5.584   5.217  0.6495 -1.5968  1.7782
 1008TIP3   OH224438   2.498   6.357   5.033 -0.0646  0.8233  0.1290
 1008TIP3    H124439   2.428   6.318   5.086 -0.6469  1.2587 -0.3015
 1008TIP3    H224440   2.549   6.409   5.095 -0.5165  1.0359  0.3235
 1009TIP3   OH224441   3.334   4.557  15.894 -0.7361  0.6750 -0.1424
 1009TIP3    H124442   3.371   4.610  15.824 -0.4848  1.3254  0.4708
 1009TIP3    H224443   3.326   4.617  15.968  0.2533 -0.3063  0.8039
 1010TIP3   OH224444   0.624   4.670  10.972 -0.2348  0.6087  0.3181
 1010TIP3    H124445   0.704   4.697  11.017 -0.5618  0.0490  1.2628
 1010TIP3    H224446   0.650   4.593  10.922  0.1867  1.3726 -0.6754
 1011TIP3   OH224447   3.794   6.386  11.338 -0.0515  0.1964  0.0246
 1011TIP3    H124448   3.839   6.446  11.278  1.2902  1.3954  2.0890
 1011TIP3    H224449   3.862   6.357  11.398 -1.2257 -1.4189  0.6308
 1012TIP3   OH224450   6.096   3.189   1.520  0.2886  0.2835  0.7841
 1012TIP3    H124451   6.025   3.148   1.470 -0.8432  0.0173  2.5385
 1012TIP3    H224452   6.106   3.275   1.480  1.4198 -0.9136 -1.7436
 1013TIP3   OH224453   0.498   1.936   1.790  0.4511 -0.2579 -0.1312
 1013TIP3    H124454   0.422   1.878   1.798 -0.1379  0.5805  0.6373
 1013TIP3    H224455   0.500   1.959   1.697 -0.1204 -0.4559 -0.1963
 1014TIP3   OH224456   0.825   1.245  14.889  0.0379  0.1278 -0.7064
 1014TIP3    H124457   0.765   1.171  14.901  2.2197 -1.5276  0.9373
 1014TIP3    H224458   0.884   1.216  14.819  2.3739 -0.8570  1.5164
 1015TIP3   OH224459   0.852   3.542  15.082  0.0849 -0.0580  0.1012
 1015TIP3    H124460   0.852   3.575  15.172 -1.1775  0.5738 -0.1046
 1015TIP3    H224461   0.769   3.572  15.045  2.6887  4.5200 -3.0815
 1016TIP3   OH224462   0.925   2.348   6.086  0.5489 -0.0670 -0.0684
 1016TIP3    H124463   0.853   2.398   6.047  0.5163 -0.1958 -0.1723
 1016TIP3    H224464   0.976   2.317   6.011  0.3896 -0.4597 -0.0145
 1017TIP3   OH224465   4.307   3.347  15.616 -0.2518  0.6563  0.7032
 1017TIP3    H124466   4.391   3.383  15.643  0.7329 -0.9015 -0.0951
 1017TIP3    H224467   4.253   3.348  15.695  0.9498  0.5433  1.5433
 1018TIP3   OH224468   4.541   4.165   6.017  0.2553 -0.0550  0.4912
 1018TIP3    H124469   4.530   4.259   6.002  1.5928  0.1938  0.9348
 1018TIP3    H224470   4.627   4.157   6.060 -1.3206 -1.1253  3.7853
 1019TIP3   OH224471   1.611   3.412  13.086 -0.2134  0.1420 -0.1832
 1019TIP3    H124472   1.566   3.331  13.062  0.5486 -0.5198  0.5663
 1019TIP3    H224473   1.641   3.449  13.003 -1.5082  0.2448 -0.6356
 1020TIP3   OH224474   4.880   0.192  17.095 -0.1648 -0.2725  0.0076
 1020TIP3    H124475   4.900   0.100  17.108  2.1447  0.3130  1.0850
 1020TIP3    H224476   4.939   0.220  17.024 -0.0112  0.6115  0.4662
 1021TIP3   OH224477   1.249   1.627  12.327  0.2937 -0.2334 -0.2774
 1021TIP3    H124478   1.237   1.546  12.277 -2.3483  0.9138 -1.7520
 1021TIP3    H224479   1.206   1.694  12.274  0.2506  1.7003  2.0263
 1022TIP3   OH224480   5.052   1.847  16.623  0.1802  0.2564 -0.0973
 1022TIP3    H124481   5.009   1.930  16.644  0.1387  0.4775 -1.0321
 1022TIP3    H224482   4.984   1.796  16.578  0.5748  0.2068 -0.6470
 1023TIP3   OH224483   0.865   4.527   2.726 -0.5381  0.2497  0.6789
 1023TIP3    H124484   0.846   4.464   2.796  1.3666 -0.6014  0.4918
 1023TIP3    H224485   0.954   4.558   2.745  0.6325 -1.0704 -2.0835
 1024TIP3   OH224486   3.779   3.728   3.986 -0.1636 -0.3509  0.0767
 1024TIP3    H124487   3.807   3.818   3.996 -1.5432  0.0126  0.9036
 1024TIP3    H224488   3.858   3.676   4.004  0.3218  0.6446  0.9213
 1025TIP3   OH224489   5.669   6.225   1.505 -0.0276  0.3991  0.2937
 1025TIP3    H124490   5.689   6.132   1.502  0.4840  0.5354 -1.0495
 1025TIP3    H224491   5.731   6.265   1.444  0.7748  1.8124  1.9373
 1026TIP3   OH224492   1.021   5.560   0.273  0.0925  0.1205 -0.2859
 1026TIP3    H124493   0.982   5.499   0.335  0.3472 -1.5223 -1.6686
 1026TIP3    H224494   1.056   5.631   0.328  2.1630 -2.2380  1.7217
 1027TIP3   OH224495   3.638   4.895   1.645 -0.3667 -0.4299 -1.1169
 1027TIP3    H124496   3.717   4.948   1.653 -0.0267 -0.8889 -1.3396
 1027TIP3    H224497   3.670   4.809   1.619 -0.9963 -0.4303 -1.9204
 1028TIP3   OH224498   4.186   5.352   1.990  0.1127 -0.5163 -0.2683
 1028TIP3    H124499   4.224   5.268   1.963 -0.4576 -0.9494  0.2546
 1028TIP3    H224500   4.168   5.341   2.083 -1.1768 -0.2842 -0.4687
 1029TIP3   OH224501   4.563   3.865   1.260  0.0588  0.0276 -0.0256
 1029TIP3    H124502   4.584   3.955   1.234  0.1852 -0.8805 -3.5774
 1029TIP3    H224503   4.617   3.849   1.337  0.9580  2.5936 -0.0268
 1030TIP3   OH224504   3.514   3.529  14.449  0.4782 -0.0172  0.3598
 1030TIP3    H124505   3.441   3.527  14.511  0.2812  0.5236  0.1626
 1030TIP3    H224506   3.476   3.571  14.371  0.5993 -1.0585 -0.2800
 1031TIP3   OH224507   4.494   1.050  17.136  0.1688  0.3723  0.0519
 1031TIP3    H124508   4.560   1.066  17.069 -0.4175  0.4627 -0.5027
 1031TIP3    H224509   4.465   0.961  17.120  0.6854  0.0628  0.7679
 1032TIP3   OH224510   0.934   4.366   1.233  0.0170  0.4844 -0.2834
 1032TIP3    H124511   1.020   4.399   1.206  0.4553 -0.1997  0.2600
 1032TIP3    H224512   0.952   4.281   1.272 -1.0443 -0.1813 -1.1966
 1033TIP3   OH224513   4.711   4.488   3.997 -0.3441 -0.0037  0.2239
 1033TIP3    H124514   4.623   4.459   4.020 -0.7275  1.3816  0.6269
 1033TIP3    H224515   4.707   4.502   3.902 -0.3386 -0.6240  0.1286
 1034TIP3   OH224516   0.842   1.466  14.464  0.3950  0.0164  0.5676
 1034TIP3    H124517   0.822   1.554  14.435 -2.6540 -1.2765 -1.7583
 1034TIP3    H224518   0.761   1.435  14.505  0.6984 -2.3264 -0.4365
 1035TIP3   OH224519   5.646   0.977   2.805  0.6217 -0.6863  0.3470
 1035TIP3    H124520   5.601   1.025   2.735 -0.8870 -2.4854  0.0026
 1035TIP3    H224521   5.621   1.023   2.885 -0.1554 -0.4059 -0.0424
 1036TIP3   OH224522   0.279   5.749   2.172  0.2714  0.0647 -0.2827
 1036TIP3    H124523   0.295   5.706   2.256 -0.0594 -1.1738 -0.8204
 1036TIP3    H224524   0.266   5.841   2.194 -2.8374 -0.6221  1.4303
 1037TIP3   OH224525   0.808   6.488   6.059 -0.2579  0.3075 -0.2139
 1037TIP3    H124526   0.876   6.517   6.120  1.3361 -0.2936 -1.6280
 1037TIP3    H224527   0.797   6.395   6.080  0.8982 -0.1102 -1.3303
 1038TIP3   OH224528   2.489   3.428  10.815  0.0632  0.3301  0.0048
 1038TIP3    H124529   2.537   3.498  10.858 -0.3559  0.6837 -0.0899
 1038TIP3    H224530   2.453   3.469  10.736  2.1982 -0.7011 -1.6041
 1039TIP3   OH224531   4.511   6.623   5.177 -0.1773 -0.3806  0.7712
 1039TIP3    H124532   4.485   6.632   5.269 -0.8743 -1.2842  0.6672
 1039TIP3    H224533   4.582   6.686   5.167  1.7460 -2.0881  2.6294
 1040TIP3   OH224534   6.065   2.918   5.614 -0.2038 -0.9308 -0.7733
 1040TIP3    H124535   5.986   2.927   5.559 -0.8430 -1.1297  0.0882
 1040TIP3    H224536   6.092   2.827   5.602 -1.0344 -1.3137  0.1319
 1041TIP3   OH224537   5.678   1.084  15.232 -0.6975  0.6281  0.0717
 1041TIP3    H124538   5.658   1.167  15.189 -0.0785  0.9690  0.4255
 1041TIP3    H224539   5.625   1.085  15.312 -0.3363  0.9024  0.3127
 1042TIP3   OH224540   5.870   0.704  13.715  0.7096 -0.6792 -0.5833
 1042TIP3    H124541   5.873   0.773  13.648  0.9380 -1.0067 -0.9094
 1042TIP3    H224542   5.961   0.683  13.732  0.7192  0.2857  0.7593
 1043TIP3   OH224543   3.450   4.315   0.097  0.0626 -0.3806  0.0001
 1043TIP3    H124544   3.369   4.333   0.144  0.8751  1.0933  0.9128
 1043TIP3    H224545   3.422   4.290   0.009 -1.3520  1.1135 -0.0192
 1044TIP3   OH224546   4.173   3.664  13.944 -0.3517 -0.2099 -0.1621
 1044TIP3    H124547   4.225   3.626  13.873  2.3763 -0.1020  1.6360
 1044TIP3    H224548   4.125   3.736  13.902  2.6537  1.1201 -1.6065
 1045TIP3   OH224549   1.156   0.486  12.661 -0.1289  0.0365 -0.1748
 1045TIP3    H124550   1.076   0.484  12.608 -0.8995  1.3567  0.8705
 1045TIP3    H224551   1.129   0.454  12.747  0.7464 -0.5733 -0.1079
 1046TIP3   OH224552   0.436   4.082  16.770 -0.4660 -0.3859  0.3840
 1046TIP3    H124553   0.356   4.107  16.724  0.0677  2.4666  0.8177
 1046TIP3    H224554   0.410   4.073  16.862 -0.4783 -0.5121  0.3683
 1047TIP3   OH224555   6.227   5.472   5.844  1.1162  0.1471  0.1600
 1047TIP3    H124556   6.212   5.491   5.937 -0.3082  0.1928 -0.0583
 1047TIP3    H224557   6.253   5.380   5.842  1.3698  0.2056  0.6168
 1048TIP3   OH224558   0.331   0.622  16.707 -0.4527  0.4869  0.1281
 1048TIP3    H124559   0.364   0.536  16.681  0.8295 -0.1809  3.4501
 1048TIP3    H224560   0.239   0.605  16.730 -0.0792 -0.1404  1.2192
 1049TIP3   OH224561   4.794   0.266  14.406 -0.1714  0.3648  0.0618
 1049TIP3    H124562   4.883   0.288  14.376  0.0029  0.7750  0.8564
 1049TIP3    H224563   4.753   0.351  14.421 -0.7842  0.1766 -0.5231
 1050TIP3   OH224564   4.044   0.768  12.885  0.9978  0.0241  0.2132
 1050TIP3    H124565   4.138   0.751  12.893  0.9782  0.4766  1.6277
 1050TIP3    H224566   4.039   0.854  12.844  1.1950 -0.0368  0.0596
 1051TIP3   OH224567   3.858   5.249   5.338  0.1284  0.3199  0.8186
 1051TIP3    H124568   3.770   5.221   5.364 -0.0778 -0.6464 -0.7597
 1051TIP3    H224569   3.883   5.314   5.404 -2.2923  1.6255  0.5639
 1052TIP3   OH224570   5.269   3.285  15.305  0.1188  0.1994  0.2175
 1052TIP3    H124571   5.309   3.211  15.258  1.0357 -0.1958  1.5791
 1052TIP3    H224572   5.314   3.362  15.270 -0.2571  0.0645 -0.6066
 1053TIP3   OH224573   1.529   0.063   6.610  0.3911  0.1988  0.1529
 1053TIP3    H124574   1.463   0.003   6.647 -0.5282 -0.3169 -2.1887
 1053TIP3    H224575   1.565   0.016   6.535  0.3445  2.1736 -1.1832
 1054TIP3   OH224576   2.724   6.046   4.218  0.1204 -0.1911 -0.6070
 1054TIP3    H124577   2.717   5.982   4.147 -1.2198 -1.4608  0.6053
 1054TIP3    H224578   2.714   5.995   4.298 -0.9546  1.5143  0.4209
 1055TIP3   OH224579   0.591   3.877   0.199  0.3816  0.1145 -0.3929
 1055TIP3    H124580   0.587   3.817   0.274  0.4294  2.0729  1.2627
 1055TIP3    H224581   0.684   3.898   0.191  0.0996  2.0770  0.8746
 1056TIP3   OH224582   2.120   4.215  13.057 -0.3308  1.0025  0.0948
 1056TIP3    H124583   2.116   4.188  12.965 -0.1272  1.5172 -0.0693
 1056TIP3    H224584   2.213   4.233  13.072 -0.1305 -0.4900  0.8179
 1057TIP3   OH224585   1.752   1.654  13.060  0.2475 -0.0689 -0.2568
 1057TIP3    H124586   1.791   1.648  13.147 -0.1410 -0.8758 -0.1254
 1057TIP3    H224587   1.684   1.720  13.068  1.0033  0.7225 -0.2637
 1058TIP3   OH224588   0.291   6.732   5.270 -0.3126 -0.0592  0.4730
 1058TIP3    H124589   0.250   6.803   5.220 -0.4614  0.0625  0.7623
 1058TIP3    H224590   0.227   6.711   5.338  0.2835  0.4341  1.2050
 1059TIP3   OH224591   3.359   4.837   1.644 -0.4215  0.1900 -0.2185
 1059TIP3    H124592   3.329   4.924   1.671  1.0542  0.0974  1.9568
 1059TIP3    H224593   3.446   4.852   1.606 -0.2919 -0.3003 -0.1250
 1060TIP3   OH224594   1.837   2.036  15.913  0.3702  0.4048 -0.4854
 1060TIP3    H124595   1.830   2.084  15.831  0.5290 -0.1451 -0.8275
 1060TIP3    H224596   1.927   2.003  15.914 -0.0225 -0.7293 -0.7434
 1061TIP3   OH224597   0.226   0.962   2.257 -0.0262  0.0821  0.1183
 1061TIP3    H124598   0.277   0.939   2.334  0.6173 -1.0441 -0.6146
 1061TIP3    H224599   0.158   0.895   2.252 -0.2268  0.3028 -0.1455
 1062TIP3   OH224600   4.291   0.422   4.468 -0.0181 -0.0137 -0.0876
 1062TIP3    H124601   4.265   0.362   4.398  0.3436  1.8624 -1.9467
 1062TIP3    H224602   4.369   0.382   4.507 -0.1684 -1.0548 -0.8276
 1063TIP3   OH224603   5.254   6.167  11.750 -0.1510 -0.0040 -0.4117
 1063TIP3    H124604   5.292   6.249  11.782  0.6369 -0.6234  0.3034
 1063TIP3    H224605   5.195   6.140  11.821  0.0839 -0.3806 -0.3600
 1064TIP3   OH224606   2.791   3.263  10.424  0.0870 -0.1369 -0.3929
 1064TIP3    H124607   2.739   3.330  10.469  0.1333  0.9574 -1.9093
 1064TIP3    H224608   2.852   3.232  10.491  0.1311  1.4045  0.3326
 1065TIP3   OH224609   6.304   3.051  13.192 -0.0316 -0.3560  0.5954
 1065TIP3    H124610   6.282   3.042  13.099 -0.8079 -1.8042  0.8890
 1065TIP3    H224611   6.318   3.145  13.204  1.4795 -0.2779 -1.2644
 1066TIP3   OH224612   5.608   4.783   4.631 -0.3681  0.3710 -0.0377
 1066TIP3    H124613   5.547   4.734   4.575  0.8251 -1.1791 -0.0609
 1066TIP3    H224614   5.666   4.827   4.569 -0.3885  0.4325 -0.0130
 1067TIP3   OH224615   4.504   5.886  16.688 -0.0176 -0.5790 -0.7746
 1067TIP3    H124616   4.557   5.934  16.752  1.3147  0.0925 -2.3195
 1067TIP3    H224617   4.514   5.794  16.713  0.1206 -0.3033  0.2363
 1068TIP3   OH224618   0.729   1.420  16.410 -0.2354  0.5608  0.1784
 1068TIP3    H124619   0.675   1.493  16.381 -2.5979 -0.1431  2.4107
 1068TIP3    H224620   0.684   1.386  16.488  3.0825 -0.5736  1.7979
 1069TIP3   OH224621   3.802   0.095  13.411 -0.1004  0.4882 -0.6376
 1069TIP3    H124622   3.771   0.185  13.404 -0.9808  0.1934 -0.6992
 1069TIP3    H224623   3.757   0.049  13.340  2.0509  0.4406 -2.0515
 1070TIP3   OH224624   5.786   1.388   0.361  0.5518 -0.2828 -0.1361
 1070TIP3    H124625   5.866   1.341   0.336  0.7695  0.6764 -1.3092
 1070TIP3    H224626   5.726   1.319   0.390  1.5111 -1.0932 -0.0271
 1071TIP3   OH224627   0.383   3.588  11.842  0.2774  0.2824 -0.3390
 1071TIP3    H124628   0.398   3.615  11.751  1.0493  1.8802  0.2309
 1071TIP3    H224629   0.461   3.537  11.864  0.4384  0.5164 -0.3569
 1072TIP3   OH224630   4.079   1.882  17.152  1.0683  0.1397  0.3257
 1072TIP3    H124631   4.099   1.825  17.225 -0.7605 -1.8502 -0.6154
 1072TIP3    H224632   4.017   1.946  17.188 -0.3084 -1.2043  0.4461
 1073TIP3   OH224633   6.025   4.296   0.343  0.3128 -0.2810  0.4382
 1073TIP3    H124634   6.038   4.361   0.413  0.4333  1.1007 -0.8166
 1073TIP3    H224635   5.942   4.321   0.303  0.3280 -0.9591 -0.0248
 1074TIP3   OH224636   4.185   4.919  15.078 -0.1024  0.4429 -0.1821
 1074TIP3    H124637   4.179   5.008  15.113  0.0673  0.7944 -1.0228
 1074TIP3    H224638   4.166   4.862  15.153  0.0514  1.1783  0.4216
 1075TIP3   OH224639   6.513   6.108   5.323  0.4364  0.1725 -0.4332
 1075TIP3    H124640   6.445   6.054   5.364 -0.5037  1.6290  0.0080
 1075TIP3    H224641   6.595   6.066   5.347 -0.0921  0.5408  2.3835
 1076TIP3   OH224642   2.856   2.628  16.554 -0.2615  0.7041 -0.1738
 1076TIP3    H124643   2.787   2.562  16.562 -0.9515  1.1824 -1.7410
 1076TIP3    H224644   2.849   2.679  16.635  0.4997 -1.2657  1.2306
 1077TIP3   OH224645   0.892   1.162  12.977  0.0229 -0.4249  0.1754
 1077TIP3    H124646   0.976   1.115  12.970  1.4440  1.9707  0.2028
 1077TIP3    H224647   0.902   1.217  13.054 -1.1201  0.7420 -0.4681
 1078TIP3   OH224648   1.601   4.188   1.377  0.4664 -0.1275 -0.6842
 1078TIP3    H124649   1.634   4.138   1.451 -0.3572 -0.0557 -0.2566
 1078TIP3    H224650   1.572   4.122   1.314 -3.0226 -0.3262  0.9293
 1079TIP3   OH224651   2.158   2.763   3.918 -0.8971  0.2459  0.3432
 1079TIP3    H124652   2.132   2.698   3.853 -1.2022  0.8990 -0.1978
 1079TIP3    H224653   2.233   2.808   3.879 -0.1239 -0.3611  1.0904
 1080TIP3   OH224654   5.837   3.986   1.911 -0.0287 -0.7503  0.7614
 1080TIP3    H124655   5.845   4.079   1.889  2.4597 -1.4337 -1.7080
 1080TIP3    H224656   5.753   3.960   1.872 -0.2746  0.2156  0.5971
 1081TIP3   OH224657   3.558   5.778   0.782  0.4314  0.2629  0.1983
 1081TIP3    H124658   3.549   5.859   0.732  0.7674 -0.0329 -0.3581
 1081TIP3    H224659   3.504   5.714   0.734  0.3671  0.0958  0.4896
 1082TIP3   OH224660   5.773   0.157   1.127 -0.6751  0.2172  0.3701
 1082TIP3    H124661   5.700   0.205   1.165 -1.4249 -0.5168 -0.1159
 1082TIP3    H224662   5.757   0.157   1.033 -1.0817 -1.5623  0.4067
 1083TIP3   OH224663   3.312   1.605   2.193 -0.5010  0.3706 -0.1512
 1083TIP3    H124664   3.297   1.684   2.141 -0.7654  0.4219 -0.0010
 1083TIP3    H224665   3.291   1.533   2.134  1.2826  0.3489 -0.8044
 1084TIP3   OH224666   4.035   1.853   3.923 -0.0807  0.8109  0.0183
 1084TIP3    H124667   4.087   1.906   3.983 -1.0432  1.6342  0.1421
 1084TIP3    H224668   4.042   1.899   3.839 -1.7558  1.7561  0.3527
 1085TIP3   OH224669   5.585   2.653  15.456 -0.2501 -0.7373  0.0757
 1085TIP3    H124670   5.598   2.674  15.363  3.1680 -0.8232  0.4167
 1085TIP3    H224671   5.637   2.717  15.503  1.1606 -2.9379  1.7094
 1086TIP3   OH224672   3.004   0.347  13.302 -0.6452 -0.0177  0.4421
 1086TIP3    H124673   2.980   0.437  13.320 -1.1342 -0.3305  1.4096
 1086TIP3    H224674   3.068   0.324  13.370  0.1493 -0.1299 -0.3242
 1087TIP3   OH224675   4.495   5.678  12.583 -0.4166 -0.1669  0.2928
 1087TIP3    H124676   4.477   5.714  12.669  2.0468  0.9046  0.4642
 1087TIP3    H224677   4.450   5.593  12.582 -1.8639  0.5234  1.9582
 1088TIP3   OH224678   2.337   3.596   2.023 -0.3160 -0.1176  0.0161
 1088TIP3    H124679   2.432   3.587   2.020 -0.0791  2.1062 -0.9054
 1088TIP3    H224680   2.306   3.510   2.052  2.0925 -0.1448  2.9498
 1089TIP3   OH224681   3.440   1.018  15.104  0.0342  0.4089 -0.2213
 1089TIP3    H124682   3.453   1.066  15.023  0.7112  1.7068  0.6371
 1089TIP3    H224683   3.446   0.926  15.078 -1.7138  0.7071 -1.9660
 1090TIP3   OH224684   5.239   2.623  14.303  0.6206 -0.0776  0.0782
 1090TIP3    H124685   5.305   2.556  14.322  0.6718 -0.3031 -0.8413
 1090TIP3    H224686   5.286   2.689  14.253 -0.0817 -0.8270 -1.6653
 1091TIP3   OH224687   0.365   3.695  14.037 -0.6659 -0.2254 -0.7883
 1091TIP3    H124688   0.413   3.682  13.955  1.4343  0.4667  0.2729
 1091TIP3    H224689   0.431   3.721  14.101 -2.1679 -1.0588  1.2526
 1092TIP3   OH224690   0.072   3.079  10.249  0.3805 -0.2263 -0.2331
 1092TIP3    H124691  -0.004   3.044  10.202 -0.9698 -1.7023  2.7227
 1092TIP3    H224692   0.144   3.022  10.225 -0.2387 -0.8761 -0.5956
 1093TIP3   OH224693   2.706   5.055  16.321 -0.0954 -0.7294  0.5915
 1093TIP3    H124694   2.799   5.068  16.301 -0.2957 -1.6726 -1.1527
 1093TIP3    H224695   2.697   5.082  16.412  1.2739  2.3624 -0.0572
 1094TIP3   OH224696   3.210   6.149   4.774 -0.0303 -0.1432  0.4233
 1094TIP3    H124697   3.212   6.240   4.802 -0.3501  0.5918 -1.7609
 1094TIP3    H224698   3.127   6.116   4.806 -0.8113  0.9363 -0.4184
 1095TIP3   OH224699   0.576   2.301   4.766  1.0188 -0.2520 -0.6922
 1095TIP3    H124700   0.612   2.227   4.815  1.0922 -0.1172 -0.5400
 1095TIP3    H224701   0.595   2.280   4.674  1.4470 -0.2097 -0.6195
 1096TIP3   OH224702   5.505   6.268  11.073  0.5949 -0.4391 -0.1638
 1096TIP3    H124703   5.476   6.179  11.053 -0.6447 -0.2458  0.6678
 1096TIP3    H224704   5.427   6.323  11.059  0.1672 -0.0257  3.0629
 1097TIP3   OH224705   5.899   1.459  16.510  0.2638  0.2498  0.2688
 1097TIP3    H124706   5.929   1.370  16.494 -1.5080 -0.1335 -1.2272
 1097TIP3    H224707   5.884   1.463  16.605 -1.0085 -1.5405  0.1835
 1098TIP3   OH224708   5.249   5.748  15.157 -0.3304  0.0300 -0.4898
 1098TIP3    H124709   5.305   5.757  15.080  0.6728 -0.2254  0.1939
 1098TIP3    H224710   5.204   5.832  15.164 -0.5440  0.0065 -1.4365
 1099TIP3   OH224711   3.460   1.548  14.153  0.1624 -0.4985  0.0649
 1099TIP3    H124712   3.404   1.626  14.156  1.6316  0.5806  2.7711
 1099TIP3    H224713   3.540   1.577  14.110  0.0485 -1.0712 -0.5628
 1100TIP3   OH224714   5.409   1.975   1.289 -0.1574  0.5175  0.0897
 1100TIP3    H124715   5.362   1.914   1.345  1.3344 -0.0492  0.7784
 1100TIP3    H224716   5.420   1.927   1.206  1.6345 -0.4988  0.8585
 1101TIP3   OH224717   1.147   6.043   1.447 -0.3064  0.0783 -0.3749
 1101TIP3    H124718   1.148   5.949   1.431 -2.6994  0.2627 -2.1467
 1101TIP3    H224719   1.149   6.051   1.542  2.7043 -1.5812 -0.1672
 1102TIP3   OH224720   3.101   5.681  15.557  0.3983  0.0321  0.1026
 1102TIP3    H124721   3.147   5.649  15.634  0.4200  0.6339  0.3472
 1102TIP3    H224722   3.008   5.675  15.580  0.3437 -1.1107 -0.3614
 1103TIP3   OH224723   5.018   0.129   3.906 -1.0754 -0.9503 -0.1659
 1103TIP3    H124724   5.065   0.060   3.954 -1.8860 -1.2102  0.2645
 1103TIP3    H224725   5.057   0.128   3.819 -1.1379 -2.0205 -0.1956
 1104TIP3   OH224726   5.039   0.304   4.220  0.3817 -0.4196 -0.1150
 1104TIP3    H124727   4.998   0.327   4.136  2.1077 -2.2378 -1.5671
 1104TIP3    H224728   4.989   0.353   4.285 -0.5169  1.7189 -2.2593
 1105TIP3   OH224729   4.142   1.390   1.438 -0.6921 -0.3646  0.0356
 1105TIP3    H124730   4.098   1.363   1.358 -0.9667 -0.1719  0.1224
 1105TIP3    H224731   4.222   1.432   1.408 -0.4520 -0.9114 -0.1145
 1106TIP3   OH224732   3.161   1.969  12.838 -0.3312  0.0086  0.4158
 1106TIP3    H124733   3.073   1.930  12.841 -1.0421  1.4872 -0.0892
 1106TIP3    H224734   3.161   2.020  12.757  1.0941 -0.1780  0.2831
 1107TIP3   OH224735   2.193   5.789  15.639  0.3802  0.7779 -0.1493
 1107TIP3    H124736   2.220   5.758  15.725  0.2232  0.2661 -0.2802
 1107TIP3    H224737   2.101   5.811  15.649  0.4721  1.1334 -0.0767
 1108TIP3   OH224738   0.406   1.783   4.302 -0.7506  0.4912  0.0344
 1108TIP3    H124739   0.451   1.721   4.245  0.6040  0.5130  1.0348
 1108TIP3    H224740   0.335   1.819   4.248 -0.5336 -0.7044 -1.0765
 1109TIP3   OH224741   2.454   1.237   2.066  0.5868  0.2625 -0.9669
 1109TIP3    H124742   2.424   1.280   2.146 -0.9075  0.0209 -1.3747
 1109TIP3    H224743   2.507   1.163   2.097  0.4629  0.4816 -0.2146
 1110TIP3   OH224744   4.201   1.134  15.273 -0.2951  0.1395 -0.3471
 1110TIP3    H124745   4.167   1.147  15.362  2.4690 -3.4059  1.5357
 1110TIP3    H224746   4.270   1.199  15.264  0.0971 -0.1212  0.5857
 1111TIP3   OH224747   4.569   6.187  10.935 -0.3525 -0.2754  0.1081
 1111TIP3    H124748   4.656   6.227  10.934 -0.1007 -0.8221 -0.0571
 1111TIP3    H224749   4.552   6.163  10.844 -0.9500  0.3949  0.0295
 1112TIP3   OH224750   4.603   5.689   5.582  0.4676 -0.4710  0.4930
 1112TIP3    H124751   4.599   5.606   5.629  0.8929 -0.3850  0.6856
 1112TIP3    H224752   4.584   5.755   5.648 -0.8670 -0.4682  0.1362
 1113TIP3   OH224753   1.871   1.085  13.273  0.1968 -0.1842 -0.2007
 1113TIP3    H124754   1.934   1.014  13.283  0.3869  0.0636  0.4405
 1113TIP3    H224755   1.920   1.157  13.233  0.1950 -0.1652 -0.1690
 1114TIP3   OH224756   5.289   0.447   0.630  0.2623  0.3659 -0.4540
 1114TIP3    H124757   5.321   0.392   0.702  1.0450  1.1632 -0.1755
 1114TIP3    H224758   5.219   0.499   0.668 -0.5509 -0.4871 -0.7442
 1115TIP3   OH224759   5.802   2.225  11.249 -0.1922  0.1323 -0.3759
 1115TIP3    H124760   5.745   2.161  11.206  3.4120 -2.6468 -1.5172
 1115TIP3    H224761   5.835   2.280  11.178  1.2838 -0.6616 -0.3308
 1116TIP3   OH224762   6.073   1.539  13.919  0.2925 -0.0323 -0.4422
 1116TIP3    H124763   6.039   1.466  13.868  0.5670 -2.5522  2.6963
 1116TIP3    H224764   6.168   1.533  13.911  0.3054  0.2660 -0.5301
 1117TIP3   OH224765   3.556   2.259   1.857  0.1885 -0.6293 -0.2335
 1117TIP3    H124766   3.592   2.180   1.818 -1.8001 -1.4760 -0.4729
 1117TIP3    H224767   3.535   2.233   1.947  1.8422  0.4045  0.5095
 1118TIP3   OH224768   4.950   6.020  11.421  0.3065 -0.2984 -0.2287
 1118TIP3    H124769   4.871   6.054  11.464  0.9462  1.3015 -0.2506
 1118TIP3    H224770   5.018   6.026  11.487  0.5188 -1.3387 -0.3264
 1119TIP3   OH224771   0.729   3.340   1.687 -0.0990  0.0621  0.0287
 1119TIP3    H124772   0.726   3.248   1.714 -0.2824 -0.1234 -0.6142
 1119TIP3    H224773   0.663   3.347   1.618  0.0201  0.6418 -0.0273
 1120TIP3   OH224774   0.658   4.872  14.135  0.0550 -0.0536 -0.8143
 1120TIP3    H124775   0.563   4.867  14.129  0.1632 -0.9683 -2.1088
 1120TIP3    H224776   0.676   4.965  14.153 -1.0143  0.5547 -2.6101
 1121TIP3   OH224777   2.957   5.054  13.365  0.7142 -0.2181 -0.3980
 1121TIP3    H124778   2.983   4.962  13.365 -1.2064 -0.8525  1.0497
 1121TIP3    H224779   2.873   5.055  13.319  1.6838  1.2188 -2.2904
 1122TIP3   OH224780   6.190   0.692  16.034 -0.0410 -0.1278  0.3252
 1122TIP3    H124781   6.219   0.719  15.947 -0.2076  0.2962  0.3974
 1122TIP3    H224782   6.241   0.614  16.054  0.3801  0.0782  0.0642
 1123TIP3   OH224783   3.448   5.114   0.360  0.5620  0.1600 -0.3885
 1123TIP3    H124784   3.394   5.091   0.284  2.6762 -0.7122 -1.7032
 1123TIP3    H224785   3.405   5.070   0.434 -0.0223 -1.2472 -1.5289
 1124TIP3   OH224786   1.984   5.625   2.179 -0.2529  0.1871  0.6870
 1124TIP3    H124787   1.908   5.682   2.167 -0.5248 -0.3930 -0.4574
 1124TIP3    H224788   2.044   5.650   2.108  0.3784  0.2321  1.2243
 1125TIP3   OH224789   4.404   2.131  15.370  0.5138  0.0848 -0.0067
 1125TIP3    H124790   4.443   2.062  15.424 -1.1913 -0.6308  0.3586
 1125TIP3    H224791   4.310   2.115  15.374 -0.0636  3.1085  1.0403
 1126TIP3   OH224792   1.706   1.164  17.124 -0.5953  0.0531 -0.1498
 1126TIP3    H124793   1.638   1.111  17.166  0.1482 -2.3591 -1.8279
 1126TIP3    H224794   1.669   1.186  17.039 -0.3659  1.1878  0.0320
 1127TIP3   OH224795   5.676   6.304   3.180 -0.9257 -0.2134 -0.7523
 1127TIP3    H124796   5.649   6.300   3.272  0.2394  0.3041 -0.3663
 1127TIP3    H224797   5.672   6.213   3.150  0.2142 -0.6406  0.3005
 1128TIP3   OH224798   2.494   3.289   0.936  0.6648  0.3041 -0.6606
 1128TIP3    H124799   2.444   3.369   0.918 -0.5656 -0.1037  0.7050
 1128TIP3    H224800   2.585   3.314   0.924  0.3881  2.2193  0.7322
 1129TIP3   OH224801   4.219   5.029   4.627 -0.4477 -0.0090  0.0840
 1129TIP3    H124802   4.126   5.049   4.618 -0.8246 -2.0009 -0.9700
 1129TIP3    H224803   4.227   4.937   4.600  2.1226  0.6424 -1.7682
 1130TIP3   OH224804   3.258   5.599  11.431 -0.3913  0.0068  0.6328
 1130TIP3    H124805   3.342   5.633  11.399  1.1059 -2.6326  1.5049
 1130TIP3    H224806   3.250   5.635  11.520 -0.7521  1.1240  0.1639
 1131TIP3   OH224807   1.288   4.919  15.139 -0.9937  0.1969  0.3103
 1131TIP3    H124808   1.293   4.910  15.043  3.6512  0.8634  0.2871
 1131TIP3    H224809   1.261   5.010  15.152  2.7198  1.6167 -0.6559
 1132TIP3   OH224810   5.102   3.034  15.418 -0.1573 -0.0654 -0.1203
 1132TIP3    H124811   5.045   2.962  15.393  0.0630 -0.1194 -0.4821
 1132TIP3    H224812   5.059   3.112  15.381 -1.3678  0.2616  1.8109
 1133TIP3   OH224813   0.494   1.643  12.149 -0.4360 -0.2164 -0.6651
 1133TIP3    H124814   0.489   1.595  12.232 -3.6865  0.9522 -0.0008
 1133TIP3    H224815   0.542   1.723  12.171 -0.3106 -0.4223 -0.1690
 1134TIP3   OH224816   5.845   4.510  14.180  0.2072 -0.3646 -0.3855
 1134TIP3    H124817   5.753   4.498  14.204  0.2430  2.3199  1.6325
 1134TIP3    H224818   5.847   4.498  14.085 -2.6080  1.3092 -0.7744
 1135TIP3   OH224819   0.123   4.241   4.940  0.2650  0.2152  0.0649
 1135TIP3    H124820   0.143   4.211   5.029  1.0535 -1.2125 -0.5509
 1135TIP3    H224821   0.037   4.204   4.921 -0.2066  1.0760  0.4448
 1136TIP3   OH224822   3.500   1.988  16.818 -0.0062  0.1220 -0.3217
 1136TIP3    H124823   3.565   2.058  16.822 -1.6486  1.6631  2.1857
 1136TIP3    H224824   3.436   2.018  16.754 -0.5833  0.8355  0.5735
 1137TIP3   OH224825   0.019   2.105   3.550 -0.0814  0.7205  0.1169
 1137TIP3    H124826  -0.075   2.113   3.566 -0.0052  0.6736  0.5864
 1137TIP3    H224827   0.059   2.110   3.636  0.1420 -2.3540  0.2926
 1138TIP3   OH224828   0.891   1.031  15.918 -0.5939 -0.0050 -0.1228
 1138TIP3    H124829   0.809   0.984  15.903 -0.2398 -0.7854  0.3012
 1138TIP3    H224830   0.950   0.965  15.954  0.6161  0.2418 -1.5577
 1139TIP3   OH224831   0.577   5.630  15.098 -0.0234 -0.7376  0.1620
 1139TIP3    H124832   0.599   5.687  15.171  0.1088 -0.4547 -0.0937
 1139TIP3    H224833   0.481   5.629  15.096 -0.0269 -0.5346  0.1789
 1140TIP3   OH224834   6.079   1.043  16.019 -0.3610 -0.3292 -0.2890
 1140TIP3    H124835   6.130   1.024  16.097  0.0303 -1.1875 -0.7304
 1140TIP3    H224836   5.998   0.994  16.030 -0.3516 -0.3636 -0.3662
 1141TIP3   OH224837   4.035   3.408  15.406  0.6547 -0.3752 -0.4392
 1141TIP3    H124838   3.970   3.373  15.345 -0.3975  1.4647 -0.4634
 1141TIP3    H224839   4.013   3.365  15.490  1.9140 -2.6698 -1.2035
 1142TIP3   OH224840   1.142   0.454   3.633 -0.1798 -0.0564 -0.4308
 1142TIP3    H124841   1.222   0.480   3.589 -0.2648  0.8679 -0.0636
 1142TIP3    H224842   1.085   0.423   3.563  0.0557  0.4317 -0.8429
 1143TIP3   OH224843   5.709   1.925  12.747  0.4737 -0.4148  0.1005
 1143TIP3    H124844   5.676   1.983  12.816  0.1057 -0.5533  0.0386
 1143TIP3    H224845   5.803   1.918  12.766  0.3398 -0.6161  0.7106
 1144TIP3   OH224846   6.532   5.799  12.751 -0.1973  0.5908 -0.0391
 1144TIP3    H124847   6.500   5.770  12.666 -0.4550 -0.0708  0.2751
 1144TIP3    H224848   6.533   5.720  12.804  1.5422  0.6725  0.0975
 1145TIP3   OH224849   5.815   1.946   4.385 -0.0181 -0.7531  0.4527
 1145TIP3    H124850   5.762   1.987   4.317  0.3881 -1.1935 -0.1307
 1145TIP3    H224851   5.896   1.996   4.386  0.0458 -0.8575  0.4977
 1146TIP3   OH224852   4.115   5.478  11.216 -0.3254 -0.5985  0.6117
 1146TIP3    H124853   4.197   5.433  11.201  0.4727  0.8120  0.5403
 1146TIP3    H224854   4.097   5.523  11.134  0.0127  0.8946  1.3208
 1147TIP3   OH224855   1.133   1.686   4.827 -0.0090 -0.2140  0.1172
 1147TIP3    H124856   1.193   1.724   4.890  0.7049 -0.6789 -0.2676
 1147TIP3    H224857   1.156   1.593   4.824 -0.5566 -0.3469 -0.2451
 1148TIP3   OH224858   4.135   3.096  14.714 -0.0330  0.5618  0.1171
 1148TIP3    H124859   4.140   3.029  14.783  0.1267  0.7729  0.3101
 1148TIP3    H224860   4.120   3.046  14.634 -1.8102  0.3988  0.5006
 1149TIP3   OH224861   4.794   3.611  16.211 -0.7104  0.4011 -0.0991
 1149TIP3    H124862   4.782   3.521  16.180 -1.1572  0.4607 -0.1021
 1149TIP3    H224863   4.741   3.664  16.152 -1.9877  0.4637  1.0696
 1150TIP3   OH224864   5.794   5.944   5.735  0.5716 -0.0435 -0.4327
 1150TIP3    H124865   5.845   5.883   5.680 -0.2216 -0.8011 -0.3424
 1150TIP3    H224866   5.749   5.888   5.798 -2.1018  0.3505 -1.8640
 1151TIP3   OH224867   4.581   4.792   1.280  0.0976 -0.0833  0.2342
 1151TIP3    H124868   4.533   4.712   1.260 -0.7668  0.6233 -0.6750
 1151TIP3    H224869   4.514   4.861   1.277  0.5096  0.5134  2.5329
 1152TIP3   OH224870   0.867   4.328  13.627 -0.4189 -0.4945 -0.5196
 1152TIP3    H124871   0.775   4.340  13.603  0.3729  3.7081 -2.2698
 1152TIP3    H224872   0.908   4.290  13.549 -0.0601  1.3463 -1.2722
 1153TIP3   OH224873   0.470   6.264   6.262 -0.1850  0.2551  0.5394
 1153TIP3    H124874   0.380   6.263   6.295 -0.8830 -0.0031 -1.2722
 1153TIP3    H224875   0.520   6.310   6.330 -1.2490 -1.4446  2.5872
 1154TIP3   OH224876   2.623   2.156  13.431  0.6997  0.1263  0.4958
 1154TIP3    H124877   2.653   2.168  13.521  0.1978  1.1465  0.5491
 1154TIP3    H224878   2.674   2.083  13.398  1.7319  0.4831  1.2416
 1155TIP3   OH224879   2.002   3.983   1.171  0.3003  0.0357  0.0589
 1155TIP3    H124880   1.927   3.928   1.151 -0.1196  0.0585  1.4565
 1155TIP3    H224881   1.971   4.072   1.158  0.5447 -0.0055 -0.8163
 1156TIP3   OH224882   4.703   2.219   2.808 -0.1377 -0.6044 -0.6234
 1156TIP3    H124883   4.706   2.124   2.800 -1.4256 -0.7490  0.3347
 1156TIP3    H224884   4.733   2.251   2.723 -0.2151 -1.8696 -1.1510
 1157TIP3   OH224885   0.872   1.786   0.292  0.2785 -0.1626  0.7258
 1157TIP3    H124886   0.920   1.838   0.227 -0.5676 -0.7442 -0.3940
 1157TIP3    H224887   0.803   1.743   0.242  1.1482 -2.6568  1.5352
 1158TIP3   OH224888   3.078   4.242   1.635  0.7736 -0.1234  0.1045
 1158TIP3    H124889   2.995   4.207   1.666  0.2998 -0.2848 -1.2546
 1158TIP3    H224890   3.143   4.212   1.699 -0.1875 -0.1044  1.1073
 1159TIP3   OH224891   0.970   5.557   4.807 -0.5835 -0.0717 -0.0263
 1159TIP3    H124892   1.040   5.580   4.869 -1.1223  2.4877 -0.2555
 1159TIP3    H224893   0.906   5.510   4.860  0.2010 -0.3489  0.7188
 1160TIP3   OH224894   4.899   4.416   5.919  0.2299  0.0099 -0.3852
 1160TIP3    H124895   4.892   4.326   5.888 -1.0250 -0.0354 -0.0261
 1160TIP3    H224896   4.863   4.414   6.008 -0.5245  0.9859 -0.6462
 1161TIP3   OH224897   3.751   5.111  15.614 -0.0006 -0.5328  0.6494
 1161TIP3    H124898   3.784   5.194  15.647  0.8423 -1.3775  2.0388
 1161TIP3    H224899   3.700   5.134  15.536  0.9883  1.1698  0.4696
 1162TIP3   OH224900   5.549   2.066  10.411  0.4256  0.1094 -0.0285
 1162TIP3    H124901   5.544   2.039  10.319  0.0728  0.6871 -0.1850
 1162TIP3    H224902   5.642   2.058  10.433  0.3628 -1.0371 -0.1126
 1163TIP3   OH224903   2.347   3.339  16.196 -0.1497  0.3686  0.3834
 1163TIP3    H124904   2.251   3.340  16.203 -0.2805  1.6828 -0.9875
 1163TIP3    H224905   2.370   3.430  16.177  1.1939 -0.2462 -1.1241
 1164TIP3   OH224906   4.116   2.847   0.560  0.3826 -0.3898  0.6055
 1164TIP3    H124907   4.204   2.820   0.533 -0.0827 -1.7661  0.4398
 1164TIP3    H224908   4.114   2.831   0.654 -0.5081 -2.8180  0.2372
 1165TIP3   OH224909   4.965   6.397  11.896 -0.0449  0.1973  0.2525
 1165TIP3    H124910   4.982   6.437  11.810 -0.1266  0.7075  0.4682
 1165TIP3    H224911   5.006   6.311  11.891 -1.7794 -0.6217 -1.0234
 1166TIP3   OH224912   1.508   0.271  13.615 -0.2206  0.0125 -0.5429
 1166TIP3    H124913   1.486   0.204  13.680  0.1400 -0.4173 -0.8578
 1166TIP3    H224914   1.495   0.354  13.660 -0.8613 -0.2661 -0.2073
 1167TIP3   OH224915   0.105   3.199   3.717  0.1688 -0.3177  0.3887
 1167TIP3    H124916   0.053   3.142   3.775  0.9019 -0.4651  0.9165
 1167TIP3    H224917   0.195   3.186   3.746  0.6716 -1.0737 -1.3841
 1168TIP3   OH224918   5.575   6.305   2.488  0.5449 -0.6803 -0.7983
 1168TIP3    H124919   5.569   6.314   2.393 -2.8297 -3.3592 -1.0416
 1168TIP3    H224920   5.607   6.216   2.502 -3.2485 -2.0490  0.3084
 1169TIP3   OH224921   5.649   4.181  15.547  0.2018 -0.1435 -0.5819
 1169TIP3    H124922   5.577   4.196  15.486  0.4616  0.8103 -0.6719
 1169TIP3    H224923   5.630   4.239  15.620  0.2152 -0.8334 -0.0269
 1170TIP3   OH224924   3.693   2.499  17.034 -0.2517 -0.4310  0.1390
 1170TIP3    H124925   3.783   2.512  17.062 -0.0055  0.6019 -1.0362
 1170TIP3    H224926   3.641   2.554  17.093  0.2404  1.5584 -1.1694
 1171TIP3   OH224927   5.685   5.114   5.359 -0.4894  0.0463  0.4529
 1171TIP3    H124928   5.615   5.176   5.340 -1.3548 -0.5961  1.4909
 1171TIP3    H224929   5.705   5.074   5.274 -2.3403 -0.7556  0.3475
 1172TIP3   OH224930   6.022   0.715  17.172 -0.8062  0.0031 -0.0994
 1172TIP3    H124931   5.935   0.736  17.206 -1.0329  0.8096 -1.1100
 1172TIP3    H224932   6.080   0.724  17.247 -1.6213 -0.7816  0.6393
 1173TIP3   OH224933   0.132   5.565   3.916  0.7855  0.0439 -0.3221
 1173TIP3    H124934   0.207   5.510   3.895  1.1311  0.4549 -0.1757
 1173TIP3    H224935   0.064   5.537   3.855  0.1050 -2.2912  1.3934
 1174TIP3   OH224936   0.285   6.399   3.387  0.4356  0.3037 -0.4096
 1174TIP3    H124937   0.316   6.311   3.366  1.2209  0.8507 -1.6122
 1174TIP3    H224938   0.321   6.416   3.474  0.2834 -0.5581 -0.1654
 1175TIP3   OH224939   1.358   4.132  15.824  0.0718 -0.6925 -0.5460
 1175TIP3    H124940   1.307   4.113  15.745  0.7241 -0.0556 -1.1306
 1175TIP3    H224941   1.294   4.164  15.887 -0.3989 -0.8447 -0.9412
 1176TIP3   OH224942   5.140   6.495   5.809 -0.3816 -0.0972  0.6388
 1176TIP3    H124943   5.218   6.480   5.756 -0.8652  0.0975 -0.1351
 1176TIP3    H224944   5.091   6.561   5.761 -2.1995 -1.9211 -0.1397
 1177TIP3   OH224945   6.605   3.516   4.610  0.5436 -0.0237  1.2419
 1177TIP3    H124946   6.697   3.503   4.585  0.3826 -1.0456  1.1520
 1177TIP3    H224947   6.567   3.428   4.607 -0.5480  0.4536  0.8515
 1178TIP3   OH224948   5.842   3.007  12.127  0.3174 -0.1990  0.5540
 1178TIP3    H124949   5.770   3.028  12.186  1.1048  3.6769  0.4153
 1178TIP3    H224950   5.806   2.942  12.067 -1.7144 -1.3488  2.8716
 1179TIP3   OH224951   4.189   6.284   0.705  0.0087 -0.0158 -0.4321
 1179TIP3    H124952   4.119   6.342   0.736  0.4124 -0.2078  0.9020
 1179TIP3    H224953   4.142   6.208   0.669 -0.4846 -0.1803  0.5226
 1180TIP3   OH224954   5.238   4.819  16.006  0.1360  0.0850  0.7828
 1180TIP3    H124955   5.305   4.886  15.991  0.7190 -0.5263  0.6011
 1180TIP3    H224956   5.160   4.868  16.033 -0.0002  1.0001 -1.0714
 1181TIP3   OH224957   1.114   4.769   1.285 -0.2536  0.5314  0.5416
 1181TIP3    H124958   1.107   4.680   1.320  1.2348  0.2980  0.3116
 1181TIP3    H224959   1.204   4.795   1.303 -0.2950  1.5037 -0.5511
 1182TIP3   OH224960   2.706   2.989   0.429  0.3158 -0.1498  0.3686
 1182TIP3    H124961   2.720   3.049   0.502 -0.6115  0.3751  0.1242
 1182TIP3    H224962   2.785   2.999   0.375  0.8390 -0.2670  1.0918
 1183TIP3   OH224963   0.352   1.094   2.740 -0.0121  0.0222  0.1203
 1183TIP3    H124964   0.298   1.171   2.759 -0.3697 -0.2714  0.3033
 1183TIP3    H224965   0.292   1.033   2.697  0.0626 -0.4802  0.7145
 1184TIP3   OH224966   3.787   1.676  12.100 -0.1380  0.3320  0.0019
 1184TIP3    H124967   3.702   1.636  12.114  0.5513 -1.0410  0.4346
 1184TIP3    H224968   3.794   1.687  12.005 -1.1205  1.2491  0.0142
 1185TIP3   OH224969   1.355   4.465  14.446  0.3152  0.2136  0.1951
 1185TIP3    H124970   1.363   4.514  14.364 -0.4968 -0.2479 -0.1701
 1185TIP3    H224971   1.378   4.375  14.423 -0.2876  0.0071  0.3826
 1186TIP3   OH224972   2.160   5.334   4.395 -0.1595  0.0021  0.4401
 1186TIP3    H124973   2.183   5.413   4.345  0.7539  0.7552  1.9425
 1186TIP3    H224974   2.066   5.341   4.408 -0.1033  0.8489  0.5049
 1187TIP3   OH224975   6.528   3.038   6.358  0.9272  0.0573 -0.2110
 1187TIP3    H124976   6.490   2.951   6.348  1.8735 -0.2988 -0.8642
 1187TIP3    H224977   6.541   3.069   6.269  1.9931  0.2390 -0.0011
 1188TIP3   OH224978   2.847   5.666   5.039  0.3804  0.4096 -0.0061
 1188TIP3    H124979   2.851   5.759   5.063 -1.2078  0.5588 -0.1784
 1188TIP3    H224980   2.782   5.629   5.099  1.3206 -0.7009  0.3509
 1189TIP3   OH224981   2.614   5.896  12.923 -0.3720  0.0022 -0.1193
 1189TIP3    H124982   2.679   5.849  12.871 -0.1906 -0.0766  0.1755
 1189TIP3    H224983   2.655   5.980  12.944 -0.9836  0.6140 -1.2772
 1190TIP3   OH224984   0.556   4.707  16.746  0.1224  0.6863  0.1885
 1190TIP3    H124985   0.626   4.772  16.743  0.3955  0.5244  1.8188
 1190TIP3    H224986   0.600   4.624  16.729  0.2668  0.6310  0.8071
 1191TIP3   OH224987   5.447   1.687  16.302 -0.5929 -0.3433 -0.3974
 1191TIP3    H124988   5.486   1.770  16.276  0.6547 -1.1467 -1.2366
 1191TIP3    H224989   5.359   1.688  16.263 -0.4887  0.4664 -0.6248
 1192TIP3   OH224990   2.139   1.163   4.369 -0.3329 -0.2943  0.3127
 1192TIP3    H124991   2.203   1.233   4.357 -0.5317 -0.1056  0.3600
 1192TIP3    H224992   2.057   1.208   4.390 -0.6594 -0.4995 -0.4841
 1193TIP3   OH224993   3.998   3.086  11.764  0.1630  0.6356  0.5415
 1193TIP3    H124994   4.045   3.101  11.682 -1.5056 -0.9909 -0.8065
 1193TIP3    H224995   3.967   3.172  11.791 -1.2389  0.9518 -1.8470
 1194TIP3   OH224996   2.051   6.176   5.396  0.3063  0.1027  0.3200
 1194TIP3    H124997   2.123   6.210   5.449 -1.6413  2.3100  1.7836
 1194TIP3    H224998   2.006   6.114   5.454  0.4562 -0.5399 -0.2408
 1195TIP3   OH224999   2.744   0.533  15.944 -0.0216  0.6184  0.3380
 1195TIP3    H125000   2.838   0.548  15.933 -0.1630  0.9398 -0.4775
 1195TIP3    H225001   2.732   0.441  15.923  0.0938  0.6101  0.3079
 1196TIP3   OH225002   2.101   5.046  12.020 -0.1764  0.7817 -0.2798
 1196TIP3    H125003   2.184   5.039  12.067 -1.3381  0.3261  1.8239
 1196TIP3    H225004   2.103   4.975  11.956  0.7798  0.3536  0.2056
 1197TIP3   OH225005   3.756   4.925  11.132  0.0531 -0.2711 -0.4062
 1197TIP3    H125006   3.844   4.934  11.168  0.4997 -2.1188 -0.8788
 1197TIP3    H225007   3.700   4.910  11.208 -0.0382  1.7891 -0.0226
 1198TIP3   OH225008   3.368   4.020   3.058 -0.4386 -0.9040 -0.3969
 1198TIP3    H125009   3.461   4.003   3.068  0.3671  1.5163 -2.7532
 1198TIP3    H225010   3.345   4.074   3.133 -0.0182 -1.6380  0.2767
 1199TIP3   OH225011   4.004   5.015   5.370  0.1587  0.1520 -0.4894
 1199TIP3    H125012   3.962   5.099   5.355 -1.3228 -0.2714  0.9485
 1199TIP3    H225013   3.931   4.954   5.384  1.1226 -1.6628 -2.7583
 1200TIP3   OH225014   1.255   2.048   3.907  0.2092 -0.2172 -0.0520
 1200TIP3    H125015   1.232   1.956   3.920  1.0022 -0.2344  1.5896
 1200TIP3    H225016   1.206   2.095   3.974  1.4452  0.2599  0.5613
 1201TIP3   OH225017   4.829   0.600   2.737  0.7014  0.1294  0.1686
 1201TIP3    H125018   4.811   0.613   2.644  0.8352 -0.8538 -0.0061
 1201TIP3    H225019   4.897   0.664   2.758  0.1699  0.8350 -0.2326
 1202TIP3   OH225020   4.766   5.424  15.810 -0.8837  0.2763  0.5649
 1202TIP3    H125021   4.759   5.329  15.798  0.9748  0.0836  0.7007
 1202TIP3    H225022   4.741   5.438  15.902 -1.9609  0.0382  0.3169
 1203TIP3   OH225023   4.017   3.433   6.141  0.5332 -0.7405  1.2502
 1203TIP3    H125024   3.977   3.367   6.197 -0.6673  0.4310  1.8240
 1203TIP3    H225025   4.021   3.512   6.195  2.4308 -0.4433  0.7591
 1204TIP3   OH225026   4.426   2.379   4.946  0.2856  0.0496  0.7555
 1204TIP3    H125027   4.332   2.394   4.941  0.5487  1.4365 -1.4467
 1204TIP3    H225028   4.454   2.428   5.023 -0.3629  2.6247 -0.5465
 1205TIP3   OH225029   4.796   6.467  16.172 -0.3810  0.4546 -0.2153
 1205TIP3    H125030   4.813   6.559  16.194 -0.6390  0.5736 -0.5278
 1205TIP3    H225031   4.746   6.434  16.247  1.4858  0.0006  0.9147
 1206TIP3   OH225032   5.569   4.866   5.190 -0.4179  0.4211  0.3022
 1206TIP3    H125033   5.595   4.839   5.102  0.9402  2.0090  0.1729
 1206TIP3    H225034   5.474   4.860   5.190 -0.4655  0.7730 -1.4215
 1207TIP3   OH225035   0.357   3.593   4.716 -0.1964  0.1413 -0.3829
 1207TIP3    H125036   0.322   3.618   4.801 -0.7102  0.1984 -0.6072
 1207TIP3    H225037   0.405   3.671   4.687  2.0973 -0.6988  0.9291
 1208TIP3   OH225038   0.221   1.546  16.526 -0.2105 -0.4274 -0.8522
 1208TIP3    H125039   0.241   1.633  16.558  0.1090 -1.4497  2.0053
 1208TIP3    H225040   0.125   1.544  16.522 -0.2081  0.1734 -1.4023
 1209TIP3   OH225041   0.866   0.794  16.362 -0.6667 -0.9286  0.4210
 1209TIP3    H125042   0.892   0.873  16.316  1.1391 -1.1836  0.9449
 1209TIP3    H225043   0.786   0.766  16.317 -1.1594  0.9828  0.0191
 1210TIP3   OH225044   1.329   2.246   2.440 -0.1082  0.3288  0.7748
 1210TIP3    H125045   1.358   2.305   2.370 -0.8690  0.8923  0.9153
 1210TIP3    H225046   1.387   2.171   2.434  0.5367  0.8570  0.2373
 1211TIP3   OH225047   6.642   4.909   2.400 -0.0549  0.1777 -0.0208
 1211TIP3    H125048   6.612   4.827   2.437 -0.6899  0.8926  1.1097
 1211TIP3    H225049   6.632   4.898   2.305  0.8379 -1.3880  0.0261
 1212TIP3   OH225050   3.823   1.063   1.775  0.1625  0.5177 -0.0944
 1212TIP3    H125051   3.908   1.082   1.734 -0.3657  1.1002 -0.9609
 1212TIP3    H225052   3.825   1.111   1.858  0.9668 -0.0774  0.2370
 1213TIP3   OH225053   3.289   1.121   5.056  0.0296  0.0307 -0.4557
 1213TIP3    H125054   3.219   1.146   4.995  0.6855 -0.7541 -1.5544
 1213TIP3    H225055   3.349   1.068   5.004  2.1753  1.7871  0.0891
 1214TIP3   OH225056   3.363   3.775   1.074  0.4757 -0.1486 -0.1239
 1214TIP3    H125057   3.434   3.734   1.122  0.2239  0.8285  1.1519
 1214TIP3    H225058   3.315   3.825   1.140 -0.4433  0.5007 -1.2354
 1215TIP3   OH225059   3.140   2.924   2.845 -0.3775  0.0865 -0.0003
 1215TIP3    H125060   3.205   2.960   2.904 -0.0713  0.5611 -0.6191
 1215TIP3    H225061   3.070   2.989   2.844 -0.6328 -0.1799  0.2617
 1216TIP3   OH225062   0.452   6.230  17.165 -0.4478  0.4654 -0.1520
 1216TIP3    H125063   0.481   6.226  17.256 -0.0557  2.6634 -0.1316
 1216TIP3    H225064   0.530   6.255  17.116 -0.7453 -0.3162 -1.0680
 1217TIP3   OH225065   2.565   6.559   5.197  0.2705  0.3318 -0.5554
 1217TIP3    H125066   2.574   6.576   5.291 -0.7784 -0.1970 -0.3420
 1217TIP3    H225067   2.573   6.644   5.156  1.6802  0.4554 -0.0697
 1218TIP3   OH225068   0.039   5.516  13.832  0.1522 -0.2267 -0.3192
 1218TIP3    H125069   0.032   5.535  13.738  0.8694 -2.0971 -0.8148
 1218TIP3    H225070  -0.018   5.580  13.874 -0.3970  0.4938 -2.0546
 1219TIP3   OH225071   6.002   1.787  15.216 -0.3768 -0.3649  0.3474
 1219TIP3    H125072   5.946   1.835  15.156 -0.9804 -1.9553 -0.4090
 1219TIP3    H225073   6.012   1.845  15.292  0.4008  1.6916 -1.2456
 1220TIP3   OH225074   1.761   6.216   2.368 -0.3108 -0.2030  0.5775
 1220TIP3    H125075   1.846   6.260   2.356 -0.7740  0.3885 -0.8206
 1220TIP3    H225076   1.697   6.284   2.347 -1.0708 -1.2730 -0.7103
 1221TIP3   OH225077   3.783   5.020   4.899  1.0220 -0.2265 -0.0117
 1221TIP3    H125078   3.869   5.023   4.939  1.1034 -0.7565 -0.1345
 1221TIP3    H225079   3.765   4.926   4.887  0.2639 -0.1392  0.3682
 1222TIP3   OH225080   4.384   3.559  16.171 -0.5026 -0.2748  0.3375
 1222TIP3    H125081   4.319   3.558  16.242  1.2932  0.3300  2.1034
 1222TIP3    H225082   4.445   3.628  16.196  1.0651 -1.1078 -0.9946
 1223TIP3   OH225083   3.820   2.093  12.117  0.0483 -0.1409 -0.2769
 1223TIP3    H125084   3.806   2.039  12.039 -0.1624  0.9066 -0.9878
 1223TIP3    H225085   3.731   2.111  12.149  0.1070 -0.0112 -0.1886
 1224TIP3   OH225086   4.781   5.119  14.751  0.4083  0.2516 -0.1175
 1224TIP3    H125087   4.800   5.028  14.729  2.6119  0.9830 -1.6280
 1224TIP3    H225088   4.686   5.126  14.743  0.2780 -1.6769 -0.9392
 1225TIP3   OH225089   5.089   2.334   1.046 -0.0916 -0.4846  0.1181
 1225TIP3    H125090   5.082   2.359   0.954 -0.3639  1.5655  0.6454
 1225TIP3    H225091   5.158   2.390   1.081 -0.2501 -0.9617  1.2315
 1226TIP3   OH225092   5.597   6.577   5.530  0.5920 -0.5870 -0.2514
 1226TIP3    H125093   5.641   6.648   5.483 -0.4173 -0.2651 -0.7383
 1226TIP3    H225094   5.660   6.505   5.529  1.3097  0.0318 -0.4751
 1227TIP3   OH225095   5.807   0.867   5.775  0.0603 -0.1726  0.0590
 1227TIP3    H125096   5.833   0.785   5.816  1.8406  0.3438  0.0504
 1227TIP3    H225097   5.834   0.934   5.837 -1.2912  0.4359  0.0252
 1228TIP3   OH225098   6.429   5.569   0.854  0.3371  0.2729 -0.5653
 1228TIP3    H125099   6.396   5.482   0.878  1.0591 -0.5009 -2.2159
 1228TIP3    H225100   6.359   5.629   0.879 -0.3545 -0.8262  0.2329
 1229TIP3   OH225101   0.111   0.547   2.514  0.0606 -0.0170  0.4294
 1229TIP3    H125102   0.176   0.478   2.502  0.8454  0.8623 -0.6891
 1229TIP3    H225103   0.034   0.516   2.467 -0.1056 -0.7602  1.1730
 1230TIP3   OH225104   6.362   1.224   3.593  0.0832 -0.4864  0.6257
 1230TIP3    H125105   6.334   1.313   3.612 -0.8356 -0.3179 -1.2831
 1230TIP3    H225106   6.421   1.201   3.665 -0.5222  1.2478  1.7205
 1231TIP3   OH225107   5.299   3.278   1.784  0.1494 -0.1561 -0.0060
 1231TIP3    H125108   5.212   3.239   1.794  0.4802 -0.9468 -0.1648
 1231TIP3    H225109   5.352   3.236   1.852 -0.0928  1.8802  1.5435
 1232TIP3   OH225110   2.913   3.934  16.991 -0.3732  0.5264 -0.6643
 1232TIP3    H125111   2.882   3.906  17.077  0.6445  0.9534 -0.1416
 1232TIP3    H225112   2.874   3.870  16.930  0.2750 -0.8331  0.2829
 1233TIP3   OH225113   3.216   2.828  16.342 -0.4463 -0.0252 -0.6476
 1233TIP3    H125114   3.219   2.745  16.294  0.8970 -0.9206  0.8976
 1233TIP3    H225115   3.126   2.833  16.374 -0.6046 -0.7787 -0.9418
 1234TIP3   OH225116   1.540   0.995   0.515  0.0347 -1.2378 -0.2042
 1234TIP3    H125117   1.541   1.046   0.596  3.4666  0.2865 -1.0164
 1234TIP3    H225118   1.539   0.904   0.544  0.9895 -0.7319  1.5848
 1235TIP3   OH225119   6.040   2.906   2.807  0.2491 -0.5468  0.1091
 1235TIP3    H125120   6.038   2.892   2.713  0.9416  0.6792 -0.1092
 1235TIP3    H225121   5.952   2.938   2.828  0.1496 -0.6483 -0.1482
 1236TIP3   OH225122   0.328   4.827  12.561  0.0658 -0.0787  0.3130
 1236TIP3    H125123   0.358   4.865  12.479 -1.0567 -0.1495 -0.1515
 1236TIP3    H225124   0.279   4.898  12.604 -0.0957 -0.3069  0.5087
 1237TIP3   OH225125   1.145   3.921  14.753 -0.2441 -0.2394  0.1368
 1237TIP3    H125126   1.117   3.836  14.786 -0.9326 -0.0282  0.1147
 1237TIP3    H225127   1.092   3.984  14.802  0.9929  0.2447  0.9129
 1238TIP3   OH225128   5.451   1.375   6.247 -0.1566  0.5856 -0.1928
 1238TIP3    H125129   5.391   1.386   6.320 -0.4015  0.0892 -0.3174
 1238TIP3    H225130   5.395   1.370   6.170 -0.2862 -3.1266 -0.0550
 1239TIP3   OH225131   3.781   0.848   0.559  0.0704 -0.4166  0.7652
 1239TIP3    H125132   3.874   0.829   0.545 -0.2162 -1.3589  0.0820
 1239TIP3    H225133   3.775   0.865   0.653  0.9681 -0.0930  0.7826
 1240TIP3   OH225134   1.104   1.552  14.780  0.4937 -0.1677 -0.3948
 1240TIP3    H125135   1.136   1.629  14.731 -0.6823 -0.8148 -2.3017
 1240TIP3    H225136   1.090   1.584  14.869  3.4085  0.9031 -0.2097
 1241TIP3   OH225137   0.612   0.187  16.096  1.3182  0.1472  0.5710
 1241TIP3    H125138   0.675   0.117  16.078 -0.7251 -1.6693  0.0946
 1241TIP3    H225139   0.586   0.172  16.187 -1.0854 -1.5029 -0.2819
 1242TIP3   OH225140   3.965   3.244  13.333 -0.1746 -0.3542  0.3683
 1242TIP3    H125141   3.988   3.170  13.277 -0.9595 -1.1035  1.0068
 1242TIP3    H225142   4.015   3.318  13.298  0.2454 -1.0759 -0.5779
 1243TIP3   OH225143   1.682   5.518  15.953 -0.1298  0.5393 -0.0339
 1243TIP3    H125144   1.723   5.445  15.999  1.6985  0.4117 -1.7401
 1243TIP3    H225145   1.626   5.476  15.887  0.4726  0.6625 -0.6322
 1244TIP3   OH225146   0.628   5.211  13.809  0.1133  0.0483 -0.3598
 1244TIP3    H125147   0.721   5.218  13.829  0.7744  2.4079 -3.5568
 1244TIP3    H225148   0.591   5.296  13.833 -0.9326 -0.3715 -0.4048
 1245TIP3   OH225149   4.641   2.425  16.598 -0.1679  0.1998 -0.2764
 1245TIP3    H125150   4.627   2.391  16.510 -3.5409  0.0539  0.1677
 1245TIP3    H225151   4.623   2.351  16.656  1.2789  0.4759  0.5700
 1246TIP3   OH225152   5.519   2.215   0.654 -0.2451  0.4676 -0.0183
 1246TIP3    H125153   5.473   2.212   0.570  0.2105  0.6892 -0.2798
 1246TIP3    H225154   5.505   2.304   0.686  0.8213  0.8511 -0.5744
 1247TIP3   OH225155   3.017   2.736   4.705  0.3629  0.3788 -0.2314
 1247TIP3    H125156   3.083   2.794   4.743 -1.7982  2.8503  0.0049
 1247TIP3    H225157   2.993   2.777   4.622  0.0896 -1.2265 -0.9906
 1248TIP3   OH225158   1.175   1.822   2.795  0.4994 -0.3668 -0.5881
 1248TIP3    H125159   1.127   1.773   2.862  0.2732  0.3581 -0.2070
 1248TIP3    H225160   1.133   1.798   2.713  1.5342 -2.1939 -0.6368
 1249TIP3   OH225161   4.540   2.055  12.898  0.6907 -0.2402  0.3570
 1249TIP3    H125162   4.480   2.034  12.970  0.0547 -0.7175 -0.3005
 1249TIP3    H225163   4.600   2.121  12.935 -0.3708  0.4129  0.9640
 1250TIP3   OH225164   4.605   3.641   3.251  0.0673  0.0626 -0.5269
 1250TIP3    H125165   4.521   3.622   3.292 -0.0003 -0.2413 -0.7980
 1250TIP3    H225166   4.658   3.678   3.321 -0.5659  1.0572 -0.5592
 1251TIP3   OH225167   4.114   5.403   1.261  0.4364 -0.1301 -0.6769
 1251TIP3    H125168   4.130   5.317   1.299  2.5438  1.2178  1.7883
 1251TIP3    H225169   4.194   5.422   1.212  0.6259  1.0283  0.0586
 1252TIP3   OH225170   4.754   4.082   3.952 -0.1858 -0.3056 -0.7117
 1252TIP3    H125171   4.728   4.089   4.044 -1.6771 -0.6309 -1.0807
 1252TIP3    H225172   4.849   4.086   3.954 -0.2101  0.8334  0.7555
 1253TIP3   OH225173   0.255   5.844  15.530  0.0257  0.0804  0.3266
 1253TIP3    H125174   0.309   5.904  15.581 -0.6062 -0.1691  1.3225
 1253TIP3    H225175   0.249   5.765  15.585 -0.0571 -0.4854 -0.4698
 1254TIP3   OH225176   0.907   3.362   2.602  0.2696 -0.5365  0.7343
 1254TIP3    H125177   0.974   3.341   2.537  0.1765 -1.0065  0.7849
 1254TIP3    H225178   0.825   3.363   2.553  0.0950 -1.6588  0.9627
 1255TIP3   OH225179   2.441   2.550  10.790 -0.4981 -0.3539  0.1617
 1255TIP3    H125180   2.477   2.473  10.835 -1.3267 -0.7342  0.2027
 1255TIP3    H225181   2.501   2.621  10.812  0.3130 -0.9972  0.0766
 1256TIP3   OH225182   2.460   4.988  11.939  0.4742  0.6640  0.2835
 1256TIP3    H125183   2.496   4.917  11.886 -1.9838  0.9764 -2.0620
 1256TIP3    H225184   2.483   4.965  12.029  0.1466 -2.9326 -0.3825
 1257TIP3   OH225185   6.171   0.621  16.953  0.0774 -0.1479  0.2285
 1257TIP3    H125186   6.181   0.678  16.877  1.0532  1.5616  1.5540
 1257TIP3    H225187   6.105   0.665  17.007  0.1917 -0.7475  0.8718
 1258TIP3   OH225188   4.753   3.518  11.566  0.1894  0.1483 -0.2368
 1258TIP3    H125189   4.741   3.423  11.556 -1.6075  0.2507  0.4872
 1258TIP3    H225190   4.844   3.534  11.539  0.5284 -1.7690 -0.3858
 1259TIP3   OH225191   1.713   4.790   4.281 -0.0125 -0.0710 -0.8691
 1259TIP3    H125192   1.723   4.713   4.338  0.5425  0.5687 -0.0802
 1259TIP3    H225193   1.627   4.779   4.241 -0.4965 -0.4551  0.2225
 1260TIP3   OH225194   0.133   5.299  11.460 -0.0801  0.1439 -0.5838
 1260TIP3    H125195   0.041   5.319  11.446 -0.1490 -0.8314 -1.6962
 1260TIP3    H225196   0.178   5.383  11.449 -0.8463  0.6577  0.1514
 1261TIP3   OH225197   6.318   0.784   4.613  0.1968  0.1947 -0.2813
 1261TIP3    H125198   6.302   0.795   4.707 -2.4874  4.6471 -0.9847
 1261TIP3    H225199   6.408   0.812   4.601 -0.3272  2.5871  0.7464
 1262TIP3   OH225200   4.526   3.005   2.931 -0.4479 -0.1498  0.3738
 1262TIP3    H125201   4.520   2.962   3.016 -1.5114 -1.6583 -0.4163
 1262TIP3    H225202   4.610   2.978   2.896  0.2451  0.9239  1.1429
 1263TIP3   OH225203   5.128   3.300   0.510  0.2622 -0.1489 -0.4323
 1263TIP3    H125204   5.213   3.313   0.552  0.7142 -1.6942 -0.8200
 1263TIP3    H225205   5.066   3.299   0.583  0.7704 -0.5720  0.0069
 1264TIP3   OH225206   3.421   4.899   0.940 -0.1934 -0.0040  0.8312
 1264TIP3    H125207   3.447   4.981   0.898  0.4133  0.4446  2.0101
 1264TIP3    H225208   3.348   4.924   0.997  0.9352  0.0638  2.3165
 1265TIP3   OH225209   2.170   3.392  15.342  0.1036  0.3624 -0.5615
 1265TIP3    H125210   2.265   3.387  15.351  0.0236 -0.3530 -0.0303
 1265TIP3    H225211   2.146   3.474  15.385  0.4267  0.2733 -0.2106
 1266TIP3   OH225212   5.889   5.659   4.718 -0.4107  0.7648  0.0187
 1266TIP3    H125213   5.901   5.718   4.792  2.9579  3.1275 -2.1619
 1266TIP3    H225214   5.806   5.687   4.680  0.8568  4.0290 -0.6949
 1267TIP3   OH225215   4.855   5.835  16.245 -0.0567  0.6401 -0.0112
 1267TIP3    H125216   4.921   5.779  16.205  1.6627  2.7980 -0.3551
 1267TIP3    H225217   4.791   5.850  16.175 -0.0483 -0.0977 -0.1871
 1268TIP3   OH225218   0.971   4.217  11.765  0.6022  0.6083 -0.2118
 1268TIP3    H125219   0.889   4.220  11.815  0.7014 -2.0218  0.2524
 1268TIP3    H225220   1.022   4.292  11.797 -1.7238  2.5629 -0.8029
 1269TIP3   OH225221   5.392   0.296   3.287 -0.1933 -0.0162 -0.5226
 1269TIP3    H125222   5.327   0.330   3.226  0.1530  2.1256  0.2184
 1269TIP3    H225223   5.459   0.364   3.292  1.9180 -1.9365 -0.8954
 1270TIP3   OH225224   5.836   5.299   4.834 -0.3637  0.1487  0.3393
 1270TIP3    H125225   5.836   5.344   4.750  2.3691 -0.6489 -0.1720
 1270TIP3    H225226   5.804   5.211   4.815  0.7120 -0.1844 -0.0094
 1271TIP3   OH225227   4.737   3.590   4.167 -0.4608  0.1621 -0.0292
 1271TIP3    H125228   4.719   3.565   4.076 -2.7463 -0.3629  0.5190
 1271TIP3    H225229   4.756   3.507   4.211 -1.5143  0.1458  0.4126
 1272TIP3   OH225230   1.365   6.673   6.350  0.2129  0.1259  0.5602
 1272TIP3    H125231   1.362   6.593   6.296  0.1395 -0.0351  0.8030
 1272TIP3    H225232   1.285   6.719   6.328  0.4215  0.3009  0.1610
 1273TIP3   OH225233   0.936   5.058   1.675 -0.1338 -0.0427  0.3717
 1273TIP3    H125234   0.941   5.070   1.770  0.6847  0.6198  0.2545
 1273TIP3    H225235   0.945   5.146   1.639  0.8302 -0.4229 -0.3534
 1274TIP3   OH225236   2.859   3.777  14.241  0.3164 -0.4787 -0.0308
 1274TIP3    H125237   2.896   3.707  14.293 -0.0874  0.0361  0.9844
 1274TIP3    H225238   2.925   3.797  14.175  0.8550 -1.1086  0.3188
 1275TIP3   OH225239   3.907   1.820   0.255 -0.2014 -0.2564  0.2437
 1275TIP3    H125240   3.889   1.899   0.204 -1.7054 -0.9405 -0.3537
 1275TIP3    H225241   4.000   1.802   0.239  0.1103  1.2633  0.2345
 1276TIP3   OH225242   6.016   4.616   5.225 -0.4991  0.3032 -0.0091
 1276TIP3    H125243   5.955   4.680   5.188  0.8514 -0.2570 -3.5040
 1276TIP3    H225244   6.103   4.652   5.207  0.2976 -0.4083  2.0898
 1277TIP3   OH225245   0.889   3.469  16.845  0.3560  0.5860 -0.1648
 1277TIP3    H125246   0.848   3.426  16.920  3.1047  0.4827  1.4049
 1277TIP3    H225247   0.842   3.552  16.836 -0.0151  0.6235  1.7185
 1278TIP3   OH225248   4.577   3.839   5.206  0.2592  0.0935 -0.4794
 1278TIP3    H125249   4.482   3.834   5.198  0.4451 -2.4505 -2.0337
 1278TIP3    H225250   4.597   3.933   5.199 -1.9995  0.5645 -1.4439
 1279TIP3   OH225251   5.195   5.711   3.472  0.5659 -0.2926 -0.0544
 1279TIP3    H125252   5.268   5.768   3.447  1.8435 -0.5710  2.7003
 1279TIP3    H225253   5.216   5.684   3.561 -1.9427 -2.0175  0.0867
 1280TIP3   OH225254   4.918   0.433  14.838  0.0065  0.3719 -0.5156
 1280TIP3    H125255   4.828   0.401  14.842 -0.5417  1.6991 -1.3872
 1280TIP3    H225256   4.947   0.411  14.749 -0.6861  2.9217 -1.4533
 1281TIP3   OH225257   5.340   2.691   5.594 -0.5268  0.0352 -0.0098
 1281TIP3    H125258   5.420   2.706   5.646 -0.3844 -1.3655  0.2240
 1281TIP3    H225259   5.365   2.713   5.505 -0.0627  0.1735  0.1499
 1282TIP3   OH225260   1.835   0.108   3.801  0.6159  0.1064 -0.2972
 1282TIP3    H125261   1.795   0.187   3.764 -0.6443 -1.8247 -3.4403
 1282TIP3    H225262   1.785   0.092   3.881 -1.0755  0.9506 -1.1190
 1283TIP3   OH225263   2.833   3.799   4.481 -0.0472 -0.3555  0.7278
 1283TIP3    H125264   2.825   3.781   4.575  0.6518  0.6633  0.9984
 1283TIP3    H225265   2.743   3.816   4.452 -0.1665  0.3194  1.4416
 1284TIP3   OH225266   1.068   3.580  12.896  0.2953 -0.4623  0.1831
 1284TIP3    H125267   0.998   3.516  12.908  0.1003 -0.5640 -1.2893
 1284TIP3    H225268   1.117   3.548  12.819  1.1850  0.2844  0.4193
 1285TIP3   OH225269   1.904   1.035  10.919  0.2364 -0.4466 -0.0777
 1285TIP3    H125270   1.937   1.124  10.906  1.9545 -1.1323 -0.8033
 1285TIP3    H225271   1.887   1.003  10.830 -1.6110 -0.4334  0.2416
 1286TIP3   OH225272   0.649   3.757  11.622  0.1911  0.2324 -0.6213
 1286TIP3    H125273   0.692   3.827  11.572 -0.8720  1.6358  0.3562
 1286TIP3    H225274   0.718   3.692  11.636  1.7647  1.9691  0.0797
 1287TIP3   OH225275   5.814   1.596  15.814 -0.2062 -0.1887 -0.6053
 1287TIP3    H125276   5.784   1.538  15.884 -1.2670  1.6246  0.5252
 1287TIP3    H225277   5.907   1.576  15.805 -0.3070 -1.2861  0.4947
 1288TIP3   OH225278   4.905   4.690   0.141  0.2959 -0.0702 -0.6042
 1288TIP3    H125279   4.818   4.676   0.179 -1.1170  3.1009 -2.1897
 1288TIP3    H225280   4.958   4.723   0.213 -1.8408  4.2173 -0.6232
 1289TIP3   OH225281   5.368   4.632   0.857 -0.5458 -0.6510  0.3382
 1289TIP3    H125282   5.444   4.689   0.864 -0.9694 -0.1305  0.7680
 1289TIP3    H225283   5.402   4.550   0.821  0.4852 -0.9391  1.8725
 1290TIP3   OH225284   2.175   6.533  15.363  0.2551 -0.6842 -0.5351
 1290TIP3    H125285   2.131   6.582  15.432 -0.3694 -2.5826  0.5048
 1290TIP3    H225286   2.186   6.596  15.292 -2.4142  0.4310 -0.1021
 1291TIP3   OH225287   6.474   6.554   2.043  0.0378  0.2834 -0.2239
 1291TIP3    H125288   6.559   6.559   1.999 -1.5349  1.4767 -3.4273
 1291TIP3    H225289   6.455   6.461   2.048  1.5522 -0.0139  0.7074
 1292TIP3   OH225290   1.407   2.151  15.241  0.3004  0.2052  0.3495
 1292TIP3    H125291   1.408   2.208  15.164  1.0328 -2.6414 -1.9008
 1292TIP3    H225292   1.496   2.116  15.246  0.4032  0.6300  2.8523
 1293TIP3   OH225293   2.892   5.797  11.733 -0.0945 -0.0176  0.1813
 1293TIP3    H125294   2.903   5.891  11.741 -1.7471  0.2726 -0.5341
 1293TIP3    H225295   2.945   5.772  11.658  1.2653  0.1289  1.0623
 1294TIP3   OH225296   1.806   2.880   3.170  0.2943  0.2849  0.3935
 1294TIP3    H125297   1.890   2.837   3.156 -0.0146  0.2245 -1.5256
 1294TIP3    H225298   1.798   2.941   3.097 -1.6347 -0.2044  0.1449
 1295TIP3   OH225299   1.434   1.761   5.466 -0.0389  0.1476  0.3133
 1295TIP3    H125300   1.459   1.822   5.535 -1.3230  0.4108  0.5606
 1295TIP3    H225301   1.460   1.804   5.385 -1.4114  1.2916  0.4455
 1296TIP3   OH225302   1.991   5.319   1.066  0.3491 -0.3701 -0.1922
 1296TIP3    H125303   1.973   5.413   1.055  0.1599 -0.5826 -2.1406
 1296TIP3    H225304   1.947   5.295   1.147 -0.6649  0.9627 -0.3088
 1297TIP3   OH225305   2.679   2.951  14.584 -0.1539 -0.3894  0.1917
 1297TIP3    H125306   2.721   2.911  14.508 -0.4917  0.6233 -0.5510
 1297TIP3    H225307   2.731   3.029  14.602  0.5216 -1.1577  1.6461
 1298TIP3   OH225308   1.384   3.465  12.638 -0.2187 -0.0526  0.0978
 1298TIP3    H125309   1.361   3.558  12.630 -0.8988 -0.3767 -3.5712
 1298TIP3    H225310   1.301   3.420  12.649  0.1810 -0.2799  2.9409
 1299TIP3   OH225311   5.732   3.049  11.323 -0.0101 -0.1719 -0.5473
 1299TIP3    H125312   5.827   3.050  11.318  0.0365  0.0897  0.2211
 1299TIP3    H225313   5.709   2.956  11.332  0.3983 -0.0825  2.4771
 1300TIP3   OH225314   5.517   2.717  16.015 -0.1627 -0.1486  0.4410
 1300TIP3    H125315   5.535   2.809  15.999 -1.0306 -0.0092  0.2451
 1300TIP3    H225316   5.422   2.710  16.014 -0.0972 -1.1206  0.0370
 1301TIP3   OH225317   2.432   4.216  15.637 -0.5318 -0.2340  0.0882
 1301TIP3    H125318   2.352   4.263  15.614 -0.5711 -1.3651 -2.3633
 1301TIP3    H225319   2.497   4.285  15.650 -1.5280  0.6342  0.6562
 1302TIP3   OH225320   5.311   6.227   5.496  0.3561 -0.0794 -0.5061
 1302TIP3    H125321   5.312   6.171   5.419  0.1598  0.2709 -0.7673
 1302TIP3    H225322   5.237   6.196   5.548  1.3129 -1.2136  0.2214
 1303TIP3   OH225323   5.426   4.703   2.275 -0.6626  0.0106  0.0971
 1303TIP3    H125324   5.468   4.763   2.214  2.2188 -0.7279  1.1892
 1303TIP3    H225325   5.370   4.758   2.329  2.3973  1.9827  1.5169
 1304TIP3   OH225326   4.638   0.145  16.146  0.0218  0.0875 -0.1804
 1304TIP3    H125327   4.713   0.129  16.204  0.1798 -0.3175 -0.4883
 1304TIP3    H225328   4.573   0.186  16.202 -0.3119 -1.4424  0.6294
 1305TIP3   OH225329   4.920   3.528   0.051 -0.1689  0.0400 -0.3877
 1305TIP3    H125330   4.979   3.600   0.028  1.0303 -0.7543  0.0693
 1305TIP3    H225331   4.964   3.484   0.124  0.9527 -3.2444 -2.7967
 1306TIP3   OH225332   5.596   3.773  13.164  0.6569 -0.3586 -0.2287
 1306TIP3    H125333   5.563   3.792  13.252  2.5801  0.4179  0.3785
 1306TIP3    H225334   5.586   3.856  13.117  1.0202 -0.3335 -0.2653
 1307TIP3   OH225335   4.154   3.819   3.853 -0.0009 -0.0190 -0.9111
 1307TIP3    H125336   4.112   3.876   3.917 -1.3366 -2.4823  0.5494
 1307TIP3    H225337   4.170   3.737   3.899 -1.4332 -2.1043 -3.7561
 1308TIP3   OH225338   0.060   3.680   2.885 -0.1468 -0.5174  0.5505
 1308TIP3    H125339   0.003   3.637   2.949  0.5510 -0.4556  1.2186
 1308TIP3    H225340   0.096   3.755   2.932 -1.3076  0.8181 -0.5742
 1309TIP3   OH225341   0.231   5.344  10.731 -0.4754 -0.0694 -0.3664
 1309TIP3    H125342   0.158   5.402  10.751 -0.5563 -0.2752 -0.0424
 1309TIP3    H225343   0.308   5.390  10.763 -0.3519  0.5179 -1.4466
 1310TIP3   OH225344   2.414   6.354   0.961 -0.5055  0.2042  0.1816
 1310TIP3    H125345   2.405   6.281   1.022  0.8139  0.6810  0.9905
 1310TIP3    H225346   2.499   6.341   0.919 -1.3148 -0.0149 -1.4592
 1311TIP3   OH225347   5.736   5.597   2.656  0.0762 -0.1833 -0.1405
 1311TIP3    H125348   5.744   5.563   2.745 -2.4705 -1.9123 -0.4603
 1311TIP3    H225349   5.825   5.621   2.631  0.8635  0.4609  2.8652
 1312TIP3   OH225350   2.308   4.556   4.930 -0.3159  0.0542  0.0891
 1312TIP3    H125351   2.344   4.502   4.860 -0.5789 -1.3506  1.0055
 1312TIP3    H225352   2.281   4.637   4.886  0.5261 -0.3464 -1.2311
 1313TIP3   OH225353   0.573   2.972   0.561  0.0838 -0.2826 -0.9397
 1313TIP3    H125354   0.626   3.041   0.522 -0.2753  0.0254 -0.8867
 1313TIP3    H225355   0.630   2.895   0.561  0.0995 -0.2994 -2.0822
 1314TIP3   OH225356   0.792   0.857  13.630 -0.4553  0.6676 -0.3116
 1314TIP3    H125357   0.836   0.792  13.575  0.9461  2.7842 -1.8367
 1314TIP3    H225358   0.838   0.852  13.714 -1.4575 -1.3714  0.1838
 1315TIP3   OH225359   1.915   4.898   5.530  0.4223 -0.3189 -0.3350
 1315TIP3    H125360   1.894   4.886   5.438 -0.6589  2.5977 -0.5672
 1315TIP3    H225361   1.990   4.958   5.530 -0.0368  0.2796  0.6723
 1316TIP3   OH225362   2.471   1.363   1.559 -0.5314  0.1658 -0.1952
 1316TIP3    H125363   2.490   1.343   1.651 -3.8335 -1.8867  0.2277
 1316TIP3    H225364   2.540   1.318   1.510  1.1480  1.1036  1.2049
 1317TIP3   OH225365   5.079   3.441  14.138 -1.0939  0.1969 -0.1540
 1317TIP3    H125366   5.118   3.354  14.139  0.2371  0.7221 -1.5732
 1317TIP3    H225367   4.985   3.425  14.134 -0.9292 -1.1460  0.7091
 1318TIP3   OH225368   3.852   6.448   1.606 -0.4337  0.2073  0.5196
 1318TIP3    H125369   3.845   6.354   1.623  0.5099 -0.0588 -0.4808
 1318TIP3    H225370   3.767   6.483   1.634 -1.3661 -1.1515 -0.4297
 1319TIP3   OH225371   6.347   3.399  12.629  0.1195 -0.3158  0.8794
 1319TIP3    H125372   6.385   3.410  12.541 -1.8306 -0.0958  0.0094
 1319TIP3    H225373   6.406   3.338  12.673  1.7595  0.4284 -0.1763
 1320TIP3   OH225374   2.040   6.205  16.778  0.4768 -0.4535  0.0763
 1320TIP3    H125375   2.054   6.183  16.870  1.4727 -2.1937 -0.4510
 1320TIP3    H225376   2.064   6.297  16.771  2.0665 -0.7518  1.2208
 1321TIP3   OH225377   5.764   6.781  14.174  0.6591 -0.1246  0.1258
 1321TIP3    H125378   5.797   6.713  14.233 -0.7145 -1.2258 -0.3030
 1321TIP3    H225379   5.784   6.748  14.086  3.2473  1.7872 -0.1173
 1322TIP3   OH225380   3.770   4.119   5.458 -0.1491  0.0602  0.0228
 1322TIP3    H125381   3.790   4.175   5.534 -1.1046  0.0707  0.2773
 1322TIP3    H225382   3.692   4.070   5.484 -0.4479  0.0116 -0.9245
 1323TIP3   OH225383   2.285   5.876  10.613  0.2947 -0.5826  0.0833
 1323TIP3    H125384   2.312   5.891  10.522 -0.1208  0.9458  0.1971
 1323TIP3    H225385   2.361   5.900  10.665  0.3965 -1.0824  0.1731
 1324TIP3   OH225386   3.458   5.532  12.888 -0.6612  0.3605 -0.1906
 1324TIP3    H125387   3.502   5.462  12.937 -0.4308  0.5979 -0.0506
 1324TIP3    H225388   3.470   5.508  12.796 -0.0025  0.5573 -0.1625
 1325TIP3   OH225389   4.528   1.929  15.043 -0.1215  0.0254  0.1248
 1325TIP3    H125390   4.569   1.868  15.105  0.3841 -0.5687 -0.7789
 1325TIP3    H225391   4.457   1.969  15.093  2.2895  2.0839  2.1719
 1326TIP3   OH225392   1.938   4.709   1.258 -0.0416  0.0998 -0.2812
 1326TIP3    H125393   1.880   4.632   1.252 -2.6086  1.9563 -1.1705
 1326TIP3    H225394   1.885   4.774   1.304  2.3356  1.1419  1.0949
 1327TIP3   OH225395   0.203   5.909  14.909 -0.1760  0.5461 -0.5956
 1327TIP3    H125396   0.158   5.993  14.905  0.9202  1.1930  0.1497
 1327TIP3    H225397   0.262   5.910  14.834  0.2290  0.6702 -0.2731
 1328TIP3   OH225398   0.154   5.794  11.803 -0.0949  0.0520  0.1715
 1328TIP3    H125399   0.116   5.822  11.886 -0.0391  1.4955 -0.2754
 1328TIP3    H225400   0.240   5.759  11.827 -0.4575 -0.4332  0.8147
 1329TIP3   OH225401   3.167   6.335   2.431 -0.0247  0.5194  0.6459
 1329TIP3    H125402   3.074   6.351   2.421  0.0445  0.7832  0.3877
 1329TIP3    H225403   3.181   6.327   2.526 -0.3564  0.1550  0.6651
 1330TIP3   OH225404   5.270   3.082   2.762  0.8731 -0.5315  0.3356
 1330TIP3    H125405   5.326   3.005   2.772  1.8152  0.0646 -0.2241
 1330TIP3    H225406   5.249   3.084   2.669  2.0668  0.6944  0.0696
 1331TIP3   OH225407   5.383   3.088  10.981  0.2212 -0.5749  0.1770
 1331TIP3    H125408   5.373   3.180  11.005  1.3474 -0.4364  0.1626
 1331TIP3    H225409   5.295   3.052  10.987 -0.0155  0.1690  1.5407
 1332TIP3   OH225410   3.482   1.212  12.631  0.0639  0.0306 -0.6705
 1332TIP3    H125411   3.418   1.244  12.567  0.0132  4.1471  1.0941
 1332TIP3    H225412   3.429   1.182  12.705  0.1470  0.0179 -0.6157
 1333TIP3   OH225413   4.218   0.322   2.846  0.1968 -0.7426  0.1357
 1333TIP3    H125414   4.244   0.349   2.758 -0.0920 -2.0168 -0.3629
 1333TIP3    H225415   4.280   0.366   2.904  0.4836 -0.0043 -0.7127
 1334TIP3   OH225416   4.301   6.206  13.497 -0.1460  0.0180  0.0943
 1334TIP3    H125417   4.215   6.173  13.469 -0.1460  0.5478 -0.5530
 1334TIP3    H225418   4.358   6.189  13.422  0.3700 -0.5333  0.6098
 1335TIP3   OH225419   4.809   1.685  15.580  0.0468  0.9231  0.2074
 1335TIP3    H125420   4.762   1.629  15.518  0.3474  0.5298  0.3301
 1335TIP3    H225421   4.900   1.657  15.572 -0.1075 -0.2245  1.9657
 1336TIP3   OH225422   1.794   2.714  16.864  0.1635  0.5492 -0.0748
 1336TIP3    H125423   1.884   2.745  16.854 -0.3729  1.7310 -1.7099
 1336TIP3    H225424   1.764   2.701  16.774 -1.3622  0.3239  0.4438
 1337TIP3   OH225425   2.222   1.653  16.444  0.7134  0.1633 -0.3130
 1337TIP3    H125426   2.126   1.655  16.447  0.6881 -0.7118 -0.3373
 1337TIP3    H225427   2.243   1.568  16.406  1.5098  0.1732  0.0879
 1338TIP3   OH225428   5.229   4.158  14.956  0.2630 -0.5376  0.1233
 1338TIP3    H125429   5.272   4.177  14.873  1.2144 -0.6028  0.5969
 1338TIP3    H225430   5.288   4.099  15.002  1.7768  2.5294  2.5320
 1339TIP3   OH225431   3.000   1.287  14.095  0.2983 -0.4859 -0.0639
 1339TIP3    H125432   2.932   1.354  14.103 -0.8243 -1.6961  0.9179
 1339TIP3    H225433   3.069   1.315  14.155  1.1849  1.2744 -1.7890
 1340TIP3   OH225434   0.066   2.017   0.164 -0.4472 -0.3431  0.2509
 1340TIP3    H125435   0.160   2.028   0.174 -0.1796 -0.3986 -1.7522
 1340TIP3    H225436   0.034   2.101   0.132 -0.7663 -0.8499 -0.8163
 1341TIP3   OH225437   5.174   3.704   0.071  0.5658 -0.4088 -0.0006
 1341TIP3    H125438   5.197   3.781   0.020  0.9099 -0.8568 -0.5284
 1341TIP3    H225439   5.148   3.739   0.157  0.4043  0.3082 -0.3394
 1342TIP3   OH225440   6.735   5.544  13.357 -0.4496  0.2792 -0.4259
 1342TIP3    H125441   6.803   5.497  13.308  1.2423  1.1678  0.9344
 1342TIP3    H225442   6.663   5.482  13.365  1.1646 -1.6032  0.1499
 1343TIP3   OH225443   3.369   2.276  12.079  0.2269  0.3925 -0.0205
 1343TIP3    H125444   3.452   2.266  12.125  0.5400  0.3335 -0.5783
 1343TIP3    H225445   3.306   2.303  12.146  0.0047 -2.4146  1.0287
 1344TIP3   OH225446   1.533   2.864   5.408 -0.0282 -0.5631 -0.1371
 1344TIP3    H125447   1.612   2.834   5.453  0.7880  1.8601  0.2307
 1344TIP3    H225448   1.462   2.848   5.471  0.6410 -0.0221  0.7871
 1345TIP3   OH225449   1.983   3.659   4.462 -0.1588  0.2270 -0.2004
 1345TIP3    H125450   1.951   3.727   4.522 -0.8769 -0.6303  0.4376
 1345TIP3    H225451   1.910   3.597   4.455  0.6397 -0.7375 -0.3591
 1346TIP3   OH225452   0.159   1.687  11.107 -0.1519  0.4466  0.4084
 1346TIP3    H125453   0.191   1.740  11.033 -0.5200  0.1711  0.0455
 1346TIP3    H225454   0.203   1.603  11.097 -0.5253  0.2659  0.2504
 1347TIP3   OH225455   3.153   4.287   5.215 -0.2220  0.6502  0.6925
 1347TIP3    H125456   3.114   4.271   5.301 -0.7814 -1.3589  0.1151
 1347TIP3    H225457   3.141   4.381   5.201 -1.4531  0.7573  2.1659
 1348TIP3   OH225458   2.131   0.799   6.057  0.9564 -0.2033  0.2072
 1348TIP3    H125459   2.186   0.861   6.009  0.3493 -0.7448 -1.2681
 1348TIP3    H225460   2.186   0.770   6.130  1.0084  2.5129  1.3419
 1349TIP3   OH225461   6.675   2.776   3.007  0.1658 -0.3023 -0.1346
 1349TIP3    H125462   6.724   2.808   2.932 -0.5081  0.3226 -0.3246
 1349TIP3    H225463   6.733   2.790   3.082 -0.3778  2.1218 -0.0996
 1350TIP3   OH225464   2.087   1.879  12.141 -0.1388  0.1358 -0.3086
 1350TIP3    H125465   2.018   1.848  12.199 -0.3211 -0.3980 -0.8106
 1350TIP3    H225466   2.142   1.934  12.197 -0.5190 -0.0759  0.2789
 1351TIP3   OH225467   1.281   3.738   3.395 -0.1112  0.2329 -0.1337
 1351TIP3    H125468   1.301   3.830   3.410  1.1070  0.1417 -1.0674
 1351TIP3    H225469   1.323   3.717   3.311  1.8200 -1.8175  1.2107
 1352TIP3   OH225470   4.499   1.346  16.418  0.5230  0.3669 -0.3581
 1352TIP3    H125471   4.584   1.304  16.411  0.8950  0.5993  2.0278
 1352TIP3    H225472   4.519   1.439  16.430 -0.1837  0.7813 -2.0853
 1353TIP3   OH225473   5.808   1.518   4.923 -0.0718  0.3497  0.1156
 1353TIP3    H125474   5.713   1.521   4.913  0.0480 -0.4856 -1.6740
 1353TIP3    H225475   5.842   1.575   4.854  0.7415 -1.1003 -0.7470
 1354TIP3   OH225476   2.162   6.255  11.027 -0.1772  0.0475  0.3992
 1354TIP3    H125477   2.077   6.297  11.038 -0.0954  1.0926 -2.2959
 1354TIP3    H225478   2.141   6.164  11.005 -0.7423  0.5789 -1.5015
 1355TIP3   OH225479   1.254   1.956   4.771 -0.0195  0.6838 -0.1588
 1355TIP3    H125480   1.342   1.944   4.736 -0.6358  0.2739 -1.6769
 1355TIP3    H225481   1.260   2.034   4.826  0.7962  2.0473 -2.0765
 1356TIP3   OH225482   1.655   1.093  15.811  0.0968 -0.2376 -0.1195
 1356TIP3    H125483   1.665   1.141  15.893 -0.0126 -1.2244  0.4877
 1356TIP3    H225484   1.639   1.003  15.838  0.7151 -0.7005 -1.2360
 1357TIP3   OH225485   0.707   2.099  11.581 -0.3636 -0.7942  0.3642
 1357TIP3    H125486   0.626   2.049  11.588 -1.5547  0.8759 -0.6330
 1357TIP3    H225487   0.687   2.182  11.624  0.1724  0.3239 -1.4162
 1358TIP3   OH225488   3.620   1.432   1.833  0.2032  0.0308  0.3503
 1358TIP3    H125489   3.583   1.479   1.908 -0.6286 -2.0442  1.3243
 1358TIP3    H225490   3.714   1.430   1.850  0.1858  0.7560  0.5934
 1359TIP3   OH225491   3.526   5.949  11.340  0.0384  0.0017  0.6610
 1359TIP3    H125492   3.557   5.871  11.294  0.8417  0.5996  0.1511
 1359TIP3    H225493   3.486   5.916  11.420 -1.3522 -1.0601 -0.4362
 1360TIP3   OH225494   5.339   1.544   0.974  0.1216 -0.1350  0.6028
 1360TIP3    H125495   5.373   1.500   0.895 -2.3155 -1.7470  0.3669
 1360TIP3    H225496   5.246   1.524   0.974 -0.0403  0.2409  3.6574
 1361TIP3   OH225497   6.153   3.981   2.528 -0.6557  0.1043 -0.1671
 1361TIP3    H125498   6.082   3.919   2.545 -1.5249  0.9636 -0.5185
 1361TIP3    H225499   6.159   3.984   2.432  0.7792 -0.9600 -0.1275
 1362TIP3   OH225500   6.116   3.501   4.782 -0.1009  0.7010  0.2311
 1362TIP3    H125501   6.054   3.456   4.840  0.4999 -0.0164  0.3411
 1362TIP3    H225502   6.184   3.534   4.841  1.5340 -1.7040 -0.1726
 1363TIP3   OH225503   6.051   3.368  15.729  1.0007 -0.1315 -0.2378
 1363TIP3    H125504   6.059   3.392  15.821  0.5380  1.1528 -0.5044
 1363TIP3    H225505   6.007   3.283  15.730  0.0677  0.3393  0.7127
 1364TIP3   OH225506   4.494   1.084   4.528  0.5059 -0.0994 -0.1661
 1364TIP3    H125507   4.405   1.096   4.559  0.3586 -2.2179  0.4249
 1364TIP3    H225508   4.547   1.141   4.584 -0.5621  2.5493 -1.6685
 1365TIP3   OH225509   2.498   0.181   0.121 -0.1100  0.7947  0.1336
 1365TIP3    H125510   2.591   0.179   0.101 -0.1652  2.0172 -0.3368
 1365TIP3    H225511   2.455   0.176   0.035 -0.5954 -2.5759  0.4478
 1366TIP3   OH225512   5.506   2.944  10.758 -0.4959 -0.6433  0.0644
 1366TIP3    H125513   5.469   2.859  10.781 -3.0888  0.0289 -1.1761
 1366TIP3    H225514   5.488   2.999  10.835 -1.6096 -0.4720 -0.3055
 1367TIP3   OH225515   0.347   6.310  13.820 -0.3876 -0.3274 -0.1756
 1367TIP3    H125516   0.303   6.332  13.903  1.0443 -1.1309  0.8384
 1367TIP3    H225517   0.438   6.335  13.834 -0.1571 -0.2711 -1.6187
 1368TIP3   OH225518   1.089   1.682   5.624 -0.4488 -0.0777  0.0871
 1368TIP3    H125519   1.152   1.742   5.665 -0.8559 -0.1154  0.7782
 1368TIP3    H225520   1.075   1.718   5.536 -0.4019  0.6260  0.3623
 1369TIP3   OH225521   0.483   3.615  16.897 -0.2288  0.0515 -0.4941
 1369TIP3    H125522   0.547   3.667  16.848  1.2808 -1.0714  0.2296
 1369TIP3    H225523   0.427   3.681  16.940  0.8107  1.0651 -0.6496
 1370TIP3   OH225524   6.085   3.335   3.391 -0.0997  0.6481  0.2868
 1370TIP3    H125525   6.081   3.430   3.400  1.4769  0.6761  0.9265
 1370TIP3    H225526   6.172   3.317   3.356 -0.2929 -0.5850  0.3740
 1371TIP3   OH225527   6.354   1.166   0.120 -0.7207  0.2296 -0.2412
 1371TIP3    H125528   6.369   1.170   0.026  0.1106  0.4810 -0.1024
 1371TIP3    H225529   6.365   1.073   0.142 -0.3782  0.2554 -0.3038
 1372TIP3   OH225530   1.709   5.793   4.132 -0.0251  0.2548 -0.2075
 1372TIP3    H125531   1.739   5.710   4.169 -0.6823 -0.1265 -0.5047
 1372TIP3    H225532   1.613   5.788   4.137 -0.0655  1.3390  0.5172
 1373TIP3   OH225533   2.015   0.964  16.732  0.1007 -0.2660  0.2494
 1373TIP3    H125534   1.994   0.970  16.825 -1.5832  0.3032 -0.1277
 1373TIP3    H225535   2.109   0.948  16.730  0.2862  0.3172  2.0285
 1374TIP3   OH225536   5.712   1.960   2.227  0.3268 -0.4688 -0.0836
 1374TIP3    H125537   5.637   1.983   2.281 -1.1708  0.3338 -2.3787
 1374TIP3    H225538   5.683   1.884   2.176  0.4639  0.7679 -2.1058
 1375TIP3   OH225539   6.251   4.941   4.354 -0.0777  0.4452 -0.4602
 1375TIP3    H125540   6.230   5.035   4.350  1.6314  1.1288  2.7707
 1375TIP3    H225541   6.170   4.897   4.329 -1.6278  2.8082  0.0765
 1376TIP3   OH225542   1.568   6.789  10.626 -0.7822  0.3786  0.8064
 1376TIP3    H125543   1.581   6.882  10.646  0.5011  0.5830 -0.7576
 1376TIP3    H225544   1.527   6.789  10.540  0.3288 -0.4869  0.2544
 1377TIP3   OH225545   3.310   5.913   5.707  0.3938  0.4861  0.3798
 1377TIP3    H125546   3.225   5.893   5.667  1.0475  0.3700 -1.0005
 1377TIP3    H225547   3.288   5.944   5.795 -1.0759  0.4364  0.0597
 1378TIP3   OH225548   0.618   5.196   0.020  0.5581  0.0999 -0.5119
 1378TIP3    H125549   0.570   5.217   0.100  2.5976 -4.1108  2.1327
 1378TIP3    H225550   0.690   5.260   0.018 -0.0297  0.8171  0.4644
 1379TIP3   OH225551   2.715   4.472   4.680  0.2974  0.0784  0.0159
 1379TIP3    H125552   2.707   4.566   4.697 -1.3842  0.0666 -0.4690
 1379TIP3    H225553   2.624   4.441   4.678  0.6078 -0.9740 -2.9328
 1380TIP3   OH225554   6.155   0.341   4.391 -0.1609 -0.5712 -0.0452
 1380TIP3    H125555   6.118   0.426   4.417  0.4622  0.2663 -1.6766
 1380TIP3    H225556   6.079   0.289   4.364 -0.4087  0.1794 -0.8525
 1381TIP3   OH225557   6.673   4.308  15.994 -0.2385 -0.2457 -0.5620
 1381TIP3    H125558   6.633   4.298  15.908  0.7159  1.9439 -1.3469
 1381TIP3    H225559   6.654   4.399  16.018  1.1167 -0.2537  0.6784
 1382TIP3   OH225560   5.784   5.255   5.954 -0.3750 -0.4773 -0.0559
 1382TIP3    H125561   5.710   5.284   6.008 -0.2735  0.2563 -0.3043
 1382TIP3    H225562   5.768   5.295   5.868  0.0742 -0.6878 -0.2401
 1383TIP3   OH225563   6.773   4.083  16.394 -0.2943 -0.2113 -0.4590
 1383TIP3    H125564   6.792   4.175  16.413 -1.8133  0.1231 -0.4848
 1383TIP3    H225565   6.808   4.035  16.469  1.7917  0.2130 -1.0951
 1384TIP3   OH225566   4.253   6.291   3.780  0.2129 -0.0615 -0.1271
 1384TIP3    H125567   4.310   6.368   3.782  0.7879 -0.4868  0.0555
 1384TIP3    H225568   4.257   6.260   3.690  1.4515 -0.9562  0.2223
 1385TIP3   OH225569   4.145   0.801  10.216  0.5346 -0.1247  0.1064
 1385TIP3    H125570   4.212   0.770  10.156 -0.3265 -1.5639 -0.1407
 1385TIP3    H225571   4.155   0.746  10.294  1.1354  1.2087  1.0289
 1386TIP3   OH225572   4.835   3.066  16.479 -0.2819  0.3155  0.0054
 1386TIP3    H125573   4.930   3.051  16.473 -0.4427 -0.4931 -0.6583
 1386TIP3    H225574   4.815   3.056  16.572 -0.0674 -1.7657 -0.1434
 1387TIP3   OH225575   6.555   5.592   5.913 -0.1337  0.0112 -0.2889
 1387TIP3    H125576   6.507   5.614   5.992  0.1447  1.1808 -0.4184
 1387TIP3    H225577   6.569   5.498   5.918  0.4756  0.1624  1.3892
 1388TIP3   OH225578   3.011   3.406  12.948 -0.6279  0.0333  0.0401
 1388TIP3    H125579   3.001   3.408  12.853  0.1493 -0.8284 -0.0699
 1388TIP3    H225580   2.968   3.325  12.975  0.5418 -0.5398  0.2330
 1389TIP3   OH225581   2.583   6.274   4.632  0.3864 -0.4360 -0.4509
 1389TIP3    H125582   2.517   6.282   4.701 -2.3567  1.7104 -3.0930
 1389TIP3    H225583   2.661   6.316   4.669 -0.7900  0.1222  1.5506
 1390TIP3   OH225584   3.860   1.842  16.582  0.4097 -0.2555 -0.2245
 1390TIP3    H125585   3.891   1.921  16.627  0.9791 -0.6227  0.0427
 1390TIP3    H225586   3.784   1.814  16.633  0.2819  0.0457 -0.2467
 1391TIP3   OH225587   2.774   4.146  12.819 -0.5741  0.0562  0.1090
 1391TIP3    H125588   2.767   4.093  12.899 -0.7602  1.2370  0.8924
 1391TIP3    H225589   2.729   4.228  12.840  0.8517  1.0571 -0.6334
 1392TIP3   OH225590   1.120   1.271  11.842 -0.2422 -0.4454 -0.1525
 1392TIP3    H125591   1.093   1.265  11.751  2.8256  0.7018 -1.2530
 1392TIP3    H225592   1.112   1.364  11.864  2.0605 -0.1421 -0.3692
 1393TIP3   OH225593   2.061   4.909  15.504 -0.2591 -0.0767 -0.4614
 1393TIP3    H125594   2.113   4.948  15.433  1.7830 -0.0288  0.9795
 1393TIP3    H225595   2.049   4.818  15.478  1.6344 -0.4089 -0.2881
 1394TIP3   OH225596   5.016   1.899   4.919  0.4423  0.1712  0.4000
 1394TIP3    H125597   5.054   1.811   4.926 -1.3908 -0.6992 -0.0005
 1394TIP3    H225598   5.042   1.929   4.832  1.4964  0.2584  0.7302
 1395TIP3   OH225599   3.449   5.026  11.306  0.6726  0.1761  0.3276
 1395TIP3    H125600   3.498   5.101  11.274  0.1827  0.0658 -0.7367
 1395TIP3    H225601   3.516   4.963  11.333  1.0831  0.8621  0.9334
 1396TIP3   OH225602   3.472   6.311   3.039 -0.5451 -0.0962  0.4089
 1396TIP3    H125603   3.387   6.308   2.995 -0.7411  0.8675  0.7106
 1396TIP3    H225604   3.458   6.368   3.115  0.6459  0.9726 -0.1453
 1397TIP3   OH225605   0.283   0.829   3.829 -0.6859 -0.5916  0.1241
 1397TIP3    H125606   0.374   0.823   3.800 -0.4040 -0.3437  0.9072
 1397TIP3    H225607   0.265   0.923   3.830 -1.2425 -0.6874 -0.8810
 1398TIP3   OH225608   5.878   3.236   2.030  0.4777 -0.6699 -0.2084
 1398TIP3    H125609   5.923   3.152   2.014  1.6726 -0.4102  1.4800
 1398TIP3    H225610   5.860   3.235   2.124  3.4562  2.2947  0.5604
 1399TIP3   OH225611   2.950   3.204   1.603 -0.0680  0.0060 -0.2825
 1399TIP3    H125612   2.887   3.274   1.624 -0.3762 -0.0304 -1.0745
 1399TIP3    H225613   2.897   3.124   1.600  0.4056 -0.4232  1.4216
 1400TIP3   OH225614   1.724   1.038   6.731 -0.3072 -0.1732 -0.4806
 1400TIP3    H125615   1.792   1.105   6.737  0.1963 -0.6366 -0.9065
 1400TIP3    H225616   1.642   1.087   6.723 -0.0499  0.3928  0.2451
 1401TIP3   OH225617   0.609   5.043   0.527 -0.2002 -0.2544  0.4152
 1401TIP3    H125618   0.698   5.052   0.493 -0.8264 -1.3325 -1.6618
 1401TIP3    H225619   0.620   5.003   0.613  1.3059 -0.5758  0.0967
 1402TIP3   OH225620   4.591   5.091   4.577 -0.2970  0.2119 -0.1007
 1402TIP3    H125621   4.554   5.139   4.503 -1.3299 -0.6218 -0.1346
 1402TIP3    H225622   4.632   5.014   4.538  2.6649  1.6904 -0.2224
 1403TIP3   OH225623   2.755   0.667   3.449  0.0001  0.3278  0.5675
 1403TIP3    H125624   2.798   0.683   3.533  0.5815  0.0414  0.3313
 1403TIP3    H225625   2.805   0.719   3.387  0.2613 -0.3247  0.2214
 1404TIP3   OH225626   6.287   5.582   5.483  0.0116  0.1519 -0.2744
 1404TIP3    H125627   6.332   5.606   5.564 -0.5042 -0.2821  0.1549
 1404TIP3    H225628   6.198   5.558   5.512 -1.0707  2.6143 -1.2775
 1405TIP3   OH225629   5.536   1.096   5.297  0.2117  0.4643 -0.3106
 1405TIP3    H125630   5.476   1.147   5.241  0.0041  0.0168 -0.4964
 1405TIP3    H225631   5.498   1.103   5.384 -0.5270 -0.4130 -0.5403
 1406TIP3   OH225632   0.271   5.345   0.981  0.1531 -0.1094 -0.3754
 1406TIP3    H125633   0.362   5.338   1.010  0.1617 -1.1391 -0.6376
 1406TIP3    H225634   0.243   5.255   0.965 -0.9230  0.1896 -0.2804
 1407TIP3   OH225635   4.943   3.238   0.691  0.3830 -0.6507 -0.1327
 1407TIP3    H125636   4.925   3.214   0.782 -0.1101  0.5936  0.1148
 1407TIP3    H225637   4.875   3.193   0.641 -0.7702  0.4833  0.3592
 1408TIP3   OH225638   2.972   4.513  13.145  0.4814 -0.3298 -0.5097
 1408TIP3    H125639   2.968   4.446  13.077  1.6927 -1.3756  0.3965
 1408TIP3    H225640   3.056   4.557  13.132 -0.3534  1.1425 -1.1689
 1409TIP3   OH225641   4.419   3.543   0.966  0.2822  0.2723 -0.0328
 1409TIP3    H125642   4.372   3.544   1.049  0.0348  2.8098 -0.1123
 1409TIP3    H225643   4.508   3.519   0.989 -0.2011 -0.9335  0.6630
 1410TIP3   OH225644   0.263   5.308   4.561  0.2884  0.7654 -0.1801
 1410TIP3    H125645   0.288   5.235   4.505 -2.6208 -2.9228  2.7783
 1410TIP3    H225646   0.191   5.350   4.514  1.4255  1.3008 -1.5204
 1411TIP3   OH225647   5.942   4.101   3.300 -0.2943  0.0994  0.1817
 1411TIP3    H125648   5.972   4.048   3.226 -2.0236  0.0157 -0.5209
 1411TIP3    H225649   5.847   4.085   3.303 -0.3668  0.6549  1.9870
 1412TIP3   OH225650   0.044   6.064   2.832  0.2157  0.0705 -0.1425
 1412TIP3    H125651   0.002   6.105   2.757  1.8947  0.7862 -0.7449
 1412TIP3    H225652  -0.009   6.089   2.907 -1.2671 -0.3400 -1.0247
 1413TIP3   OH225653   0.761   2.994  11.982 -0.3983  0.0171  0.2329
 1413TIP3    H125654   0.757   2.964  12.073  0.5817  1.5722  0.8321
 1413TIP3    H225655   0.710   3.075  11.981  1.8073  1.5035  0.1000
 1414TIP3   OH225656   4.925   0.385   3.980  0.3902 -0.0550  0.0246
 1414TIP3    H125657   4.963   0.438   3.910  1.1166 -0.4577  0.1119
 1414TIP3    H225658   4.924   0.296   3.945 -2.3187  0.1771 -0.7718
 1415TIP3   OH225659   2.236   0.372   0.992  0.2185 -0.2528  0.6928
 1415TIP3    H125660   2.307   0.312   0.970  1.3821  1.2774  0.0611
 1415TIP3    H225661   2.252   0.397   1.083 -0.3371 -0.9681  0.9952
 1416TIP3   OH225662   6.667   1.720   4.075  0.5568 -0.2436 -0.5498
 1416TIP3    H125663   6.655   1.809   4.108  0.0516 -0.5907  0.2202
 1416TIP3    H225664   6.716   1.732   3.994  1.7772  0.6310  0.2791
 1417TIP3   OH225665   5.026   6.332  14.203  0.2121  0.0970 -0.3852
 1417TIP3    H125666   5.081   6.255  14.192  2.0109  1.3285 -0.5277
 1417TIP3    H225667   5.071   6.400  14.152 -0.0803  1.7962  1.5287
 1418TIP3   OH225668   4.956   1.501  16.503 -0.0261 -0.3098 -0.1128
 1418TIP3    H125669   4.962   1.522  16.596  0.1228 -1.5402  0.1817
 1418TIP3    H225670   5.046   1.506  16.471 -0.4133  3.4252 -1.0349
 1419TIP3   OH225671   0.373   5.557  15.811  0.7218 -0.2984  0.2043
 1419TIP3    H125672   0.467   5.552  15.799  1.1029 -1.0135  2.7900
 1419TIP3    H225673   0.337   5.493  15.750  2.2163 -2.2866  1.2768
 1420TIP3   OH225674   4.244   5.457   3.067  0.7082 -0.3452 -0.6082
 1420TIP3    H125675   4.295   5.378   3.050  2.1078  0.4488 -0.2401
 1420TIP3    H225676   4.174   5.455   3.002  1.6271 -1.1025 -1.6027
 1421TIP3   OH225677   6.101   0.563   4.053  0.4979  0.1267  0.0512
 1421TIP3    H125678   6.167   0.494   4.041  1.2431  0.8769 -0.2615
 1421TIP3    H225679   6.086   0.597   3.965  0.4184  0.6312  0.2599
 1422TIP3   OH225680   6.227   4.361  13.964 -0.3190  0.4210 -0.1798
 1422TIP3    H125681   6.169   4.311  14.021  1.4357 -0.2919  1.0959
 1422TIP3    H225682   6.210   4.328  13.876 -0.7424 -0.8843  0.3748
 1423TIP3   OH225683   2.537   2.461  14.202 -0.0057 -0.9152 -0.5113
 1423TIP3    H125684   2.454   2.509  14.192  0.5660 -0.0305 -1.1159
 1423TIP3    H225685   2.545   2.413  14.120  0.2143 -0.7910 -0.5613
 1424TIP3   OH225686   5.521   4.160   3.072 -0.1615 -0.2738 -0.2400
 1424TIP3    H125687   5.563   4.119   2.997 -2.8425 -1.3228 -1.2918
 1424TIP3    H225688   5.459   4.222   3.034 -1.9143 -1.1467  1.0580
 1425TIP3   OH225689   4.312   5.930   5.085  0.7122 -0.4914  0.4014
 1425TIP3    H125690   4.388   5.956   5.034  2.8341 -0.8735  3.1171
 1425TIP3    H225691   4.298   5.838   5.063  1.9612 -0.8104  0.8873
 1426TIP3   OH225692   3.132   4.351  15.794  0.3302 -0.1860 -0.3140
 1426TIP3    H125693   3.194   4.422  15.809  2.5000 -1.8003 -1.1173
 1426TIP3    H225694   3.187   4.273  15.787 -1.9684 -2.0049  0.7734
 1427TIP3   OH225695   1.674   2.625   3.859 -0.0895 -0.0237 -0.5179
 1427TIP3    H125696   1.731   2.639   3.784 -1.5067  0.1030 -1.6304
 1427TIP3    H225697   1.731   2.591   3.928  1.6422  1.7932 -0.9639
 1428TIP3   OH225698   6.075   2.417  13.733 -0.0483  0.0477 -0.0070
 1428TIP3    H125699   5.981   2.437  13.738 -0.0021  0.9554 -1.8959
 1428TIP3    H225700   6.089   2.394  13.641  1.2941 -1.7445  0.5960
 1429TIP3   OH225701   1.399   3.089   3.022  0.0690  0.5460  0.0136
 1429TIP3    H125702   1.388   3.135   2.938 -0.9945 -0.4467 -0.4166
 1429TIP3    H225703   1.472   3.134   3.064 -0.9856  2.7338 -0.3125
 1430TIP3   OH225704   4.450   3.362  12.159  0.0680 -0.1712 -0.1009
 1430TIP3    H125705   4.449   3.422  12.234 -0.2617  0.8647 -0.9005
 1430TIP3    H225706   4.398   3.287  12.188 -1.7654  1.0835  0.0499
 1431TIP3   OH225707   2.163   5.936   5.287  0.1757  0.1121  0.2158
 1431TIP3    H125708   2.152   5.842   5.298 -0.9243  0.1556 -0.3415
 1431TIP3    H225709   2.100   5.975   5.348  0.2797  0.4767  0.0914
 1432TIP3   OH225710   3.060   3.580   1.594  0.1715  0.0201 -0.0034
 1432TIP3    H125711   3.152   3.555   1.588 -0.0862 -0.6330 -1.8077
 1432TIP3    H225712   3.049   3.647   1.526 -0.7702 -0.1990 -0.0762
 1433TIP3   OH225713   1.385   0.938  12.647  0.1946  0.1352  0.1849
 1433TIP3    H125714   1.418   0.902  12.730  1.5087  0.0440 -0.3624
 1433TIP3    H225715   1.290   0.932  12.656  0.2079  1.9320  2.4847
 1434TIP3   OH225716   4.403   1.959   0.786 -0.4158 -0.7310 -0.1329
 1434TIP3    H125717   4.399   1.868   0.813  0.4356 -1.5018 -2.3473
 1434TIP3    H225718   4.496   1.982   0.792 -0.5298 -0.2170 -0.2309
 1435TIP3   OH225719   6.517   4.981  11.979  0.4134  0.3059  0.1694
 1435TIP3    H125720   6.492   4.889  11.975  1.1670  0.0936  0.2355
 1435TIP3    H225721   6.454   5.026  11.923 -0.6555 -0.0890  1.0237
 1436TIP3   OH225722   5.815   5.187  13.511 -0.0396 -0.3471  0.4972
 1436TIP3    H125723   5.879   5.139  13.564 -0.0839 -0.8429  0.1133
 1436TIP3    H225724   5.745   5.124  13.496  0.5624 -0.6560 -1.2365
 1437TIP3   OH225725   4.324   0.824  10.900 -0.6207 -0.2492 -0.0679
 1437TIP3    H125726   4.316   0.858  10.811  0.5281 -1.5381 -0.6988
 1437TIP3    H225727   4.246   0.770  10.912 -0.2821 -0.8761 -0.6679
 1438TIP3   OH225728   2.098   4.979   1.103 -0.5854  0.0022 -0.2998
 1438TIP3    H125729   2.104   5.050   1.167  0.6077  0.4525 -0.8800
 1438TIP3    H225730   2.134   4.903   1.149  0.2146  0.3090 -0.3965
 1439TIP3   OH225731   6.303   5.302   0.905  0.0393 -0.2205 -1.1241
 1439TIP3    H125732   6.211   5.301   0.930 -0.1910 -2.7912 -1.7950
 1439TIP3    H225733   6.346   5.246   0.971  0.7636 -0.6081 -1.9070
 1440TIP3   OH225734   4.054   3.102   1.628  0.5021 -0.3815  0.1599
 1440TIP3    H125735   3.987   3.156   1.585  0.7277 -0.8264 -0.7865
 1440TIP3    H225736   4.054   3.131   1.719 -1.7721 -1.1370  0.4610
 1441TIP3   OH225737   2.837   2.147   2.623  0.2505 -0.2211 -0.4851
 1441TIP3    H125738   2.802   2.196   2.698 -0.8544 -0.0317 -1.1054
 1441TIP3    H225739   2.761   2.101   2.587  1.0927 -1.6542 -0.4948
 1442TIP3   OH225740   3.366   5.541   4.237  0.1196 -0.3532  0.5020
 1442TIP3    H125741   3.304   5.589   4.291 -1.3675 -2.6909  1.0404
 1442TIP3    H225742   3.423   5.497   4.300  0.8220 -0.0856  0.0594
 1443TIP3   OH225743   2.444   2.856   5.348 -0.3499 -0.4676 -0.0427
 1443TIP3    H125744   2.501   2.876   5.274 -0.1632 -2.0835 -0.3747
 1443TIP3    H225745   2.505   2.839   5.420 -0.3075 -2.5621 -0.4879
 1444TIP3   OH225746   0.860   3.018   3.696  0.0384 -0.0722 -0.0403
 1444TIP3    H125747   0.803   3.090   3.722 -1.3499 -0.9658 -0.4898
 1444TIP3    H225748   0.881   2.973   3.778 -0.5094 -0.1474  0.0655
 1445TIP3   OH225749   2.242   2.067   1.022  0.0866  0.4859 -0.1650
 1445TIP3    H125750   2.287   2.147   1.047  0.6158  0.7850 -1.9072
 1445TIP3    H225751   2.237   2.071   0.926 -2.4303 -0.2194 -0.1318
 1446TIP3   OH225752   2.972   5.067  13.897  0.2799  0.0202  0.3220
 1446TIP3    H125753   2.939   4.996  13.842 -0.2106 -0.0845  0.7424
 1446TIP3    H225754   3.052   5.032  13.936 -0.2155 -0.4949  0.9086
 1447TIP3   OH225755   2.095   1.608  10.771  0.5150 -0.0141 -0.2678
 1447TIP3    H125756   2.149   1.532  10.749 -0.5107 -0.5379 -1.1013
 1447TIP3    H225757   2.071   1.645  10.686 -0.9778 -0.2133  0.0353
 1448TIP3   OH225758   3.501   5.719   3.977 -0.5342 -0.0505 -0.0117
 1448TIP3    H125759   3.435   5.705   4.046 -0.0697 -1.6218  0.1439
 1448TIP3    H225760   3.577   5.669   4.006  0.8950  1.9872 -0.0331
 1449TIP3   OH225761   6.002   5.340  15.290 -0.8284 -0.2621 -0.5278
 1449TIP3    H125762   6.031   5.400  15.222 -1.3560  0.3823 -0.2054
 1449TIP3    H225763   6.082   5.297  15.321 -0.4502  0.2373 -0.8064
 1450TIP3   OH225764   4.566   3.650   0.574 -0.3563  0.4049 -0.0339
 1450TIP3    H125765   4.492   3.676   0.518 -0.5240 -1.3192 -0.6728
 1450TIP3    H225766   4.604   3.575   0.530  0.5983  0.0759  1.2917
 1451TIP3   OH225767   1.170   4.014   2.547 -0.4445  0.5409  0.3469
 1451TIP3    H125768   1.217   3.931   2.542 -1.1005  0.1207  1.0387
 1451TIP3    H225769   1.090   4.000   2.496 -0.5567  0.7516  0.4650
 1452TIP3   OH225770   0.936   3.600  16.349  0.0877 -0.4261  0.0641
 1452TIP3    H125771   0.921   3.693  16.367  2.5337  0.3914 -1.6379
 1452TIP3    H225772   0.903   3.587  16.260 -3.3444 -2.1478  1.3812
 1453TIP3   OH225773   2.406   6.027  15.927 -0.5980  0.9985 -0.6124
 1453TIP3    H125774   2.355   5.949  15.948 -0.6281  1.0244 -0.5906
 1453TIP3    H225775   2.362   6.064  15.850  0.8484 -0.3761 -2.2044
 1454TIP3   OH225776   5.157   2.529  14.909 -0.0441  0.7081 -0.1048
 1454TIP3    H125777   5.105   2.553  14.986  0.8351  3.9217 -0.3702
 1454TIP3    H225778   5.246   2.518  14.942 -0.4280 -3.2215  0.0868
 1455TIP3   OH225779   6.629   2.452   1.987 -0.9439  0.1494  0.7427
 1455TIP3    H125780   6.642   2.529   1.932 -0.5308 -0.0933  0.4914
 1455TIP3    H225781   6.570   2.396   1.936  1.4877 -1.2750 -0.7286
 1456TIP3   OH225782   3.175   5.931   4.545  0.0548  0.4466  0.6282
 1456TIP3    H125783   3.227   5.964   4.618  0.0497  0.3087  0.6945
 1456TIP3    H225784   3.115   6.003   4.525  0.9202  0.9783 -0.0917
 1457TIP3   OH225785   4.109   4.557  15.619 -0.1568  0.0288  0.3931
 1457TIP3    H125786   4.119   4.642  15.576 -0.6424 -1.3507 -2.7334
 1457TIP3    H225787   4.067   4.502  15.553  1.1376 -2.9580  1.8782
 1458TIP3   OH225788   3.496   5.875  16.141  0.0950 -0.1767 -0.0444
 1458TIP3    H125789   3.428   5.844  16.081  0.0509 -0.2255  0.0302
 1458TIP3    H225790   3.458   5.862  16.229  0.0877  0.0575 -0.0117
 1459TIP3   OH225791   5.686   3.342  13.567 -0.1909  0.0812  0.1284
 1459TIP3    H125792   5.742   3.335  13.644  0.4447  2.7525 -0.0290
 1459TIP3    H225793   5.597   3.347  13.603 -0.4749 -3.7488  0.3865
 1460TIP3   OH225794   4.158   2.758  11.283  0.7903 -0.2239  0.2581
 1460TIP3    H125795   4.131   2.850  11.282 -1.4925 -0.8311  0.9555
 1460TIP3    H225796   4.146   2.729  11.192  0.3453 -0.1388  0.2882
 1461TIP3   OH225797   1.149   2.296   2.033  0.4905 -0.4712 -0.0648
 1461TIP3    H125798   1.237   2.262   2.049  0.7381  0.6546  1.0917
 1461TIP3    H225799   1.100   2.277   2.112 -0.4203 -1.3710 -0.8217
 1462TIP3   OH225800   4.362   2.306   2.747  0.3144  0.0321  0.0498
 1462TIP3    H125801   4.361   2.301   2.651 -0.6296  1.4141 -0.0486
 1462TIP3    H225802   4.453   2.326   2.769  0.1842  1.7343 -0.7456
 1463TIP3   OH225803   5.208   1.065  17.111 -0.2543 -0.3439  0.1473
 1463TIP3    H125804   5.303   1.077  17.109  0.0676 -2.3666  0.6133
 1463TIP3    H225805   5.188   1.052  17.204 -0.9622 -0.1512  0.0250
 1464TIP3   OH225806   0.237   2.740  16.908  0.5342  0.6932  0.6981
 1464TIP3    H125807   0.246   2.812  16.846 -1.2701  1.5046  1.3246
 1464TIP3    H225808   0.265   2.662  16.860  3.0858  1.8265  0.1748
 1465TIP3   OH225809   3.882   3.923  12.258 -0.1327  0.3175 -0.5290
 1465TIP3    H125810   3.970   3.961  12.256 -0.3432  0.7883 -1.2312
 1465TIP3    H225811   3.889   3.844  12.205 -0.3257  0.7909 -1.2650
 1466TIP3   OH225812   3.938   3.021   3.680 -0.0884 -0.0098  0.1846
 1466TIP3    H125813   3.907   2.936   3.711 -1.0427 -0.3443 -1.5233
 1466TIP3    H225814   3.935   3.013   3.584 -0.0463  1.8990 -0.0025
 1467TIP3   OH225815   0.272   5.987   6.391  0.2440 -0.6925 -0.2251
 1467TIP3    H125816   0.362   5.996   6.422  0.4338 -2.1182 -0.3075
 1467TIP3    H225817   0.238   6.077   6.390  1.0151 -0.3418  1.6769
 1468TIP3   OH225818   5.440   0.578  12.142  0.1792  0.1795  0.4614
 1468TIP3    H125819   5.404   0.666  12.134 -0.0292  0.3708  2.7877
 1468TIP3    H225820   5.471   0.573  12.233 -1.5529 -2.7592  1.0401
 1469TIP3   OH225821   4.440   3.527  15.902  0.5138 -0.0526  0.2915
 1469TIP3    H125822   4.511   3.590  15.899 -0.5698  1.2153  0.0691
 1469TIP3    H225823   4.413   3.525  15.994 -1.2458  1.9811 -0.0959
 1470TIP3   OH225824   4.274   0.534  15.346 -0.1685  0.6993 -0.1850
 1470TIP3    H125825   4.239   0.524  15.434  1.1864  0.8151  0.3967
 1470TIP3    H225826   4.369   0.545  15.359 -0.2613  4.0640 -1.3917
 1471TIP3   OH225827   2.865   5.889  12.775  0.1476 -0.2138 -0.2010
 1471TIP3    H125828   2.931   5.954  12.802 -1.4251  0.5286  2.0904
 1471TIP3    H225829   2.914   5.807  12.768  1.2427  0.1901  1.9813
 1472TIP3   OH225830   1.575   6.349  14.429 -0.4888  0.5342 -0.2995
 1472TIP3    H125831   1.579   6.270  14.376  1.1531 -0.4302  1.1360
 1472TIP3    H225832   1.627   6.413  14.380 -0.6708  0.3000 -0.8056
 1473TIP3   OH225833   0.694   3.622  15.371 -0.4819  0.4245 -0.3904
 1473TIP3    H125834   0.648   3.685  15.315 -1.8446  2.0846  2.3689
 1473TIP3    H225835   0.624   3.581  15.422  0.7506 -0.4145  0.6657
 1474TIP3   OH225836   1.939   2.159   3.318 -0.3019  0.2801  0.2154
 1474TIP3    H125837   1.993   2.210   3.379 -1.0538  1.9620 -0.4467
 1474TIP3    H225838   1.878   2.223   3.282 -1.2792 -1.1256 -0.7030
 1475TIP3   OH225839   6.320   6.190  13.519 -0.2224  0.1467  0.3818
 1475TIP3    H125840   6.323   6.274  13.565  0.3542  0.7351 -0.6962
 1475TIP3    H225841   6.229   6.183  13.488 -0.0391  0.8222 -0.3274
 1476TIP3   OH225842   4.014   2.322  14.810  0.7913  0.3869 -0.1938
 1476TIP3    H125843   4.099   2.300  14.847  0.0591  0.7882  1.8752
 1476TIP3    H225844   4.032   2.344  14.719  2.8444  0.1764  0.1175
 1477TIP3   OH225845   3.872   1.143  13.088  0.5401 -0.1929 -0.7520
 1477TIP3    H125846   3.946   1.100  13.131  0.4694 -0.2360 -0.6750
 1477TIP3    H225847   3.913   1.195  13.018  0.6245 -0.3826 -0.8449
 1478TIP3   OH225848   1.344   2.538  15.296 -0.7640 -0.4693  0.0325
 1478TIP3    H125849   1.408   2.554  15.365 -0.5945 -0.9396 -0.0125
 1478TIP3    H225850   1.348   2.616  15.241  0.1554 -0.7244 -0.2741
 1479TIP3   OH225851   1.316   0.606   1.099  1.1024  0.4099  0.3302
 1479TIP3    H125852   1.355   0.520   1.086  2.0367  0.9326 -0.4425
 1479TIP3    H225853   1.234   0.588   1.146 -0.3233 -1.2161 -2.4816
 1480TIP3   OH225854   1.524   3.367   1.252  0.3227  0.1232 -0.1335
 1480TIP3    H125855   1.458   3.364   1.320  1.4800 -0.2073  1.0228
 1480TIP3    H225856   1.607   3.351   1.298  1.1390 -0.1214 -1.6108
 1481TIP3   OH225857   0.308   1.282  12.154 -0.0342  0.2825  0.2046
 1481TIP3    H125858   0.401   1.266  12.168  0.3619  1.8419 -0.4119
 1481TIP3    H225859   0.264   1.209  12.197  1.4299  0.0195  1.3344
 1482TIP3   OH225860   4.630   5.579   1.766 -0.2603 -0.0756 -0.1932
 1482TIP3    H125861   4.550   5.545   1.805 -0.4527  0.1776 -0.3586
 1482TIP3    H225862   4.659   5.648   1.825  0.8965 -1.4208  0.8844
 1483TIP3   OH225863   3.997   5.554  16.933 -0.2567  0.3867  0.1209
 1483TIP3    H125864   4.065   5.594  16.878  1.3052 -0.5148  1.3473
 1483TIP3    H225865   4.012   5.460  16.926 -0.9204  0.2024  1.0004
 1484TIP3   OH225866   2.862   0.480   0.228  0.3548  0.2408  0.2616
 1484TIP3    H125867   2.778   0.525   0.224  0.8231  1.0371 -1.1016
 1484TIP3    H225868   2.922   0.544   0.266  0.3722 -0.3172  1.2123
 1485TIP3   OH225869   6.168   2.667   6.505 -0.1059 -0.5936  0.1434
 1485TIP3    H125870   6.107   2.594   6.496  0.4689 -1.0928  0.2111
 1485TIP3    H225871   6.252   2.626   6.524  0.1294  0.1112  0.6816
 1486TIP3   OH225872   2.429   3.265  10.503  0.2079 -0.9776 -0.7413
 1486TIP3    H125873   2.505   3.263  10.445  0.1182 -1.4170 -0.8481
 1486TIP3    H225874   2.443   3.342  10.558  1.0213 -1.3741 -0.3707
 1487TIP3   OH225875   2.006   2.885  17.189 -1.2750  0.4645 -0.0297
 1487TIP3    H125876   2.075   2.911  17.251  1.3539 -0.1197 -2.4903
 1487TIP3    H225877   1.970   2.804  17.226  0.9391 -0.4404  0.3251
 1488TIP3   OH225878   5.329   3.507  15.627  0.2035  0.4782 -0.0959
 1488TIP3    H125879   5.306   3.531  15.537  0.1516  0.2019 -0.1578
 1488TIP3    H225880   5.424   3.522  15.632 -0.2576  4.1731  0.9404
 1489TIP3   OH225881   1.485   3.199  13.295  0.1305 -0.0455 -0.0746
 1489TIP3    H125882   1.535   3.140  13.237 -0.8361 -0.0474 -0.9245
 1489TIP3    H225883   1.449   3.141  13.362  2.9427  0.2114  1.8263
 1490TIP3   OH225884   0.862   2.330   0.530 -0.5131 -0.0246 -0.4892
 1490TIP3    H125885   0.813   2.350   0.609 -0.8105  0.1731 -0.7211
 1490TIP3    H225886   0.819   2.382   0.462 -1.2014 -1.3480 -1.0879
 1491TIP3   OH225887   3.776   3.716  12.089  0.4941  0.1510  0.2183
 1491TIP3    H125888   3.799   3.635  12.044 -2.7249 -1.3234  0.9270
 1491TIP3    H225889   3.723   3.765  12.026 -0.8442 -0.1634  1.0618
 1492TIP3   OH225890   2.354   5.926  14.684 -0.4656 -0.3724  0.0749
 1492TIP3    H125891   2.357   5.993  14.616  0.0173 -0.1141  0.3423
 1492TIP3    H225892   2.446   5.911  14.707 -0.5771 -1.0312  0.1134
 1493TIP3   OH225893   0.897   5.758   0.108  0.4990 -0.0299 -0.7368
 1493TIP3    H125894   0.920   5.673   0.145 -1.6797 -0.8545 -1.1163
 1493TIP3    H225895   0.981   5.802   0.095  1.5563 -1.1464  1.6892
 1494TIP3   OH225896   1.196   1.778  13.866  0.1447 -0.3149 -0.3785
 1494TIP3    H125897   1.209   1.844  13.934  2.3976  0.1975 -1.2303
 1494TIP3    H225898   1.211   1.695  13.910  1.1193 -0.0165 -0.1285
 1495TIP3   OH225899   3.508   1.738  16.361 -0.4346  0.6446 -0.7090
 1495TIP3    H125900   3.443   1.745  16.431 -1.2483 -0.5817 -1.3081
 1495TIP3    H225901   3.538   1.647  16.365  1.3975  1.2262 -0.3396
 1496TIP3   OH225902   4.159   0.968   6.025 -0.4344 -0.5811 -0.4717
 1496TIP3    H125903   4.172   0.875   6.045 -0.6668  0.1561  4.0114
 1496TIP3    H225904   4.065   0.981   6.035 -0.5722  0.0341 -2.1720
 1497TIP3   OH225905   0.949   2.967   1.225 -0.3880 -0.7918 -0.7897
 1497TIP3    H125906   0.853   2.969   1.228 -0.3639  1.3021 -0.1127
 1497TIP3    H225907   0.974   3.047   1.178  1.0457  0.2978  1.6129
 1498TIP3   OH225908   4.298   0.077   1.768  0.3897 -0.0224 -0.2772
 1498TIP3    H125909   4.319   0.135   1.694  1.5296 -1.1943 -0.9107
 1498TIP3    H225910   4.311  -0.011   1.734  0.0468 -0.6200  1.0723
 1499TIP3   OH225911   3.963   5.389  11.408 -0.3236  0.3109 -0.9181
 1499TIP3    H125912   3.921   5.307  11.380 -1.7801  0.3062  1.0250
 1499TIP3    H225913   4.015   5.416  11.333  0.8401 -2.7995 -1.3840
 1500TIP3   OH225914   4.230   5.877  12.612  0.9684  0.0387  0.4324
 1500TIP3    H125915   4.184   5.823  12.676  0.4467 -0.1592 -0.1071
 1500TIP3    H225916   4.167   5.944  12.586  1.5994  0.9009  1.0709
 1501TIP3   OH225917   1.426   6.021  14.373 -0.0608  0.0360 -0.2967
 1501TIP3    H125918   1.518   6.038  14.391 -0.1100 -0.3967  0.3933
 1501TIP3    H225919   1.383   6.106  14.385  0.1102  0.0348  0.3363
 1502TIP3   OH225920   3.601   2.142  15.738 -0.1915 -0.2635 -0.1776
 1502TIP3    H125921   3.634   2.098  15.816 -1.8058 -1.0498  0.1037
 1502TIP3    H225922   3.603   2.075  15.670  0.9589  0.3420 -0.7638
 1503TIP3   OH225923   6.142   2.621   2.661  0.0570  0.6407 -0.3835
 1503TIP3    H125924   6.226   2.585   2.691  0.6746  1.8050 -0.6529
 1503TIP3    H225925   6.084   2.613   2.737  0.4819  0.0492 -0.1175
 1504TIP3   OH225926   2.773   5.566  12.755 -0.2202 -0.0359  1.0277
 1504TIP3    H125927   2.830   5.533  12.824  0.7194 -0.7193 -0.0420
 1504TIP3    H225928   2.734   5.488  12.716  0.0170  0.2626  0.1640
 1505TIP3   OH225929   1.572   5.250  16.624  0.0799 -0.4274 -0.2451
 1505TIP3    H125930   1.505   5.225  16.687 -0.8831 -0.4822 -1.2638
 1505TIP3    H225931   1.531   5.238  16.538  0.9163  0.8377 -0.8622
 1506TIP3   OH225932   2.373   2.098   5.767  0.1758 -0.2103  0.1201
 1506TIP3    H125933   2.443   2.128   5.825  1.5278  0.5453 -1.7957
 1506TIP3    H225934   2.371   2.003   5.779  1.2655 -0.1997  0.4788
 1507TIP3   OH225935   2.289   2.738  12.834 -0.8401 -0.4560 -0.3763
 1507TIP3    H125936   2.348   2.766  12.765 -0.9751  2.7277  0.6342
 1507TIP3    H225937   2.201   2.746  12.795 -0.8108 -0.8472 -0.5220
 1508TIP3   OH225938   3.247   0.666   3.381  0.3007  0.0493  0.3319
 1508TIP3    H125939   3.183   0.609   3.338  0.6066 -0.6218  0.7473
 1508TIP3    H225940   3.310   0.688   3.312 -0.3375  0.6826 -0.0698
 1509TIP3   OH225941   2.548   0.963   2.200  0.4164  0.4329 -0.0229
 1509TIP3    H125942   2.603   0.894   2.237 -2.4817 -2.9127 -1.4406
 1509TIP3    H225943   2.475   0.971   2.262 -1.2972 -0.7641 -1.7815
 1510TIP3   OH225944   0.085   4.982   3.421  0.3035 -0.4475 -0.3057
 1510TIP3    H125945   0.020   5.016   3.482 -0.8706 -0.8972 -1.2599
 1510TIP3    H225946   0.039   4.981   3.336  0.9051 -2.6041 -0.6547
 1511TIP3   OH225947   3.847   4.011   0.090  0.9889 -0.2481 -0.5399
 1511TIP3    H125948   3.791   3.988   0.163 -0.0336 -0.9327 -1.5035
 1511TIP3    H225949   3.934   4.020   0.128  0.9597 -3.0519  0.3948
 1512TIP3   OH225950   2.449   5.377   5.328  0.0487 -0.0824 -0.3459
 1512TIP3    H125951   2.371   5.334   5.362 -0.0863  0.8560  0.5975
 1512TIP3    H225952   2.420   5.464   5.301  0.4666 -0.2790 -1.4807
 1513TIP3   OH225953   5.101   0.611  12.976  0.0725 -0.0736  0.2038
 1513TIP3    H125954   5.175   0.664  13.004  1.3366 -0.9473 -1.3082
 1513TIP3    H225955   5.044   0.672  12.929  0.1159  0.4838  0.8559
 1514TIP3   OH225956   6.685   2.196   4.420 -0.2932  0.2823 -0.3090
 1514TIP3    H125957   6.702   2.172   4.329  1.0217  2.0535 -0.5936
 1514TIP3    H225958   6.661   2.114   4.462  1.4596 -1.0659 -1.7360
 1515TIP3   OH225959   6.094   4.639   2.969  0.1037  0.2084 -0.2103
 1515TIP3    H125960   6.146   4.564   2.938  0.2491  0.9405 -1.8571
 1515TIP3    H225961   6.057   4.676   2.889  1.4024  2.9343  0.3376
 1516TIP3   OH225962   2.300   2.578   4.429  0.5798  0.6252 -0.5356
 1516TIP3    H125963   2.385   2.565   4.470 -0.2045 -2.1594  0.4892
 1516TIP3    H225964   2.237   2.554   4.497 -1.0838  2.8901 -1.1564
 1517TIP3   OH225965   1.149   1.603   4.092 -0.2536 -0.3457  0.6559
 1517TIP3    H125966   1.180   1.675   4.147 -0.3876  1.1512 -1.1432
 1517TIP3    H225967   1.227   1.571   4.048 -0.5937  0.6118 -0.6833
 1518TIP3   OH225968   4.648   2.209  14.422 -0.2111  0.0188  0.5425
 1518TIP3    H125969   4.659   2.266  14.346  0.3953  1.0186  1.3493
 1518TIP3    H225970   4.643   2.269  14.496 -1.2798 -0.9152  1.2533
 1519TIP3   OH225971   0.845   0.991   2.830  0.6536  0.5500 -0.0465
 1519TIP3    H125972   0.851   0.905   2.788  0.4076  0.7731 -0.5552
 1519TIP3    H225973   0.765   0.986   2.881  0.3398  0.6599 -0.5191
 1520TIP3   OH225974   0.377   5.750   1.915  0.1567 -0.0971 -0.5863
 1520TIP3    H125975   0.377   5.664   1.874  0.8342 -0.2627 -0.2634
 1520TIP3    H225976   0.315   5.742   1.988  0.8586 -0.5929 -0.0230
 1521TIP3   OH225977   4.268   5.175   5.291  0.2317 -0.7323 -0.2310
 1521TIP3    H125978   4.199   5.112   5.270 -0.7602  0.2573 -0.0236
 1521TIP3    H225979   4.225   5.241   5.345  1.7159 -0.9530  1.3431
 1522TIP3   OH225980   2.255   2.293   3.261  0.4059  0.2773  0.0455
 1522TIP3    H125981   2.350   2.297   3.252  0.8637 -3.7243  1.2134
 1522TIP3    H225982   2.240   2.236   3.336 -2.9293 -0.2242 -0.8212
 1523TIP3   OH225983   2.614   1.203   3.098 -0.1786  0.1860 -0.0514
 1523TIP3    H125984   2.657   1.129   3.055 -0.1673 -0.4041  0.9471
 1523TIP3    H225985   2.616   1.182   3.191  0.5810  1.8390  0.3543
 1524TIP3   OH225986   3.211   1.180   5.484  0.1413  0.0742  0.7325
 1524TIP3    H125987   3.182   1.116   5.419 -0.0553 -0.5170  1.3801
 1524TIP3    H225988   3.304   1.192   5.465  0.1724 -0.3837  0.5709
 1525TIP3   OH225989   4.654   1.729  16.574 -0.0790 -0.1832  0.2887
 1525TIP3    H125990   4.669   1.635  16.587 -0.0922 -0.1297  0.6999
 1525TIP3    H225991   4.654   1.740  16.479 -1.3723 -0.8040  0.2025
 1526TIP3   OH225992   3.390   4.763  13.394 -0.1223  0.3209 -0.1897
 1526TIP3    H125993   3.477   4.728  13.413 -0.1483  0.6874  0.6446
 1526TIP3    H225994   3.349   4.773  13.480 -0.8953  0.3913 -0.5610
 1527TIP3   OH225995   5.553   3.676  14.400 -0.2207  0.4864 -0.2979
 1527TIP3    H125996   5.464   3.673  14.436  0.1764  0.9893  0.7698
 1527TIP3    H225997   5.603   3.615  14.455 -0.5135 -2.2849 -2.8219
 1528TIP3   OH225998   1.419   5.508  12.046  0.3287 -0.1766  0.9663
 1528TIP3    H125999   1.375   5.511  11.961  1.0272 -0.0153  0.6113
 1528TIP3    H226000   1.439   5.415  12.060  2.5343  0.0561 -0.2563
 1529TIP3   OH226001   4.112   2.038   1.378 -0.2635  0.2109  0.6037
 1529TIP3    H126002   4.206   2.056   1.377 -0.3995  0.9059  0.3833
 1529TIP3    H226003   4.101   1.968   1.314  0.3369 -1.1111  1.8669
 1530TIP3   OH226004   2.167   1.654  11.431  0.3715  0.6483  0.3707
 1530TIP3    H126005   2.123   1.689  11.508  0.4397 -1.4340  1.4454
 1530TIP3    H226006   2.234   1.595  11.466 -0.6067 -1.5638 -1.2493
 1531TIP3   OH226007   2.447   4.484  16.139  0.0885 -0.3085 -0.0920
 1531TIP3    H126008   2.449   4.480  16.235 -1.2515  1.9781  0.0954
 1531TIP3    H226009   2.354   4.491  16.117  0.2556 -2.1389 -1.6948
 1532TIP3   OH226010   1.589   5.945   0.289  0.3503  0.2007 -0.3547
 1532TIP3    H126011   1.665   5.940   0.231  1.8512  0.4838  1.4778
 1532TIP3    H226012   1.615   5.894   0.366 -1.4796  0.0053  0.1665
 1533TIP3   OH226013   1.446   4.009  10.603 -0.6292  0.3319 -0.0865
 1533TIP3    H126014   1.495   3.985  10.682 -1.3050  1.9243  0.8724
 1533TIP3    H226015   1.452   3.932  10.547 -0.7792 -1.1779  1.8528
 1534TIP3   OH226016   0.295   3.495   0.810  0.1414  0.0998  0.2885
 1534TIP3    H126017   0.373   3.481   0.864  2.1704  1.0728 -2.1644
 1534TIP3    H226018   0.274   3.588   0.822  1.6719  0.7742 -1.7743
 1535TIP3   OH226019   2.378   4.056  16.756  0.8141 -0.2640 -0.9306
 1535TIP3    H126020   2.314   3.986  16.766  1.6808 -0.9710 -0.0727
 1535TIP3    H226021   2.350   4.124  16.817  0.7244 -0.4494 -0.7646
 1536TIP3   OH226022   3.340   1.350   2.661 -0.1416 -0.3278 -0.0604
 1536TIP3    H126023   3.388   1.393   2.732  0.8685 -1.8909  0.2481
 1536TIP3    H226024   3.353   1.408   2.586 -0.3128  0.8020  0.7525
 1537TIP3   OH226025   3.327   6.204  15.427 -0.1584 -0.4192  0.2156
 1537TIP3    H126026   3.411   6.209  15.473 -0.7860 -1.0384  1.4750
 1537TIP3    H226027   3.341   6.136  15.361  0.9325  0.8874 -0.9531
 1538TIP3   OH226028   4.343   1.780   6.379 -0.2936 -0.4357 -0.0972
 1538TIP3    H126029   4.291   1.860   6.382  0.7794  0.2603  0.9463
 1538TIP3    H226030   4.406   1.796   6.309 -0.8213 -0.8618 -0.6771
 1539TIP3   OH226031   3.836   1.182   6.906 -1.0323  0.2071  0.4806
 1539TIP3    H126032   3.864   1.268   6.876 -0.6758  0.4059  1.3620
 1539TIP3    H226033   3.762   1.199   6.963 -0.4907  0.0023  1.2625
 1540TIP3   OH226034   2.259   0.222  12.502 -0.3107  0.0350  0.1258
 1540TIP3    H126035   2.308   0.166  12.563  0.3507 -0.0270 -0.4469
 1540TIP3    H226036   2.171   0.184  12.501  0.0689 -0.8723 -0.0815
 1541TIP3   OH226037   1.121   4.650  13.800 -0.0726  0.6015 -0.2687
 1541TIP3    H126038   1.144   4.581  13.738  0.0450  0.6973 -0.3309
 1541TIP3    H226039   1.032   4.629  13.827  0.2626 -0.0631  0.3564
 1542TIP3   OH226040   2.145   4.326  11.159 -1.1092  0.2445  0.0752
 1542TIP3    H126041   2.159   4.308  11.066 -1.2208  1.4926 -0.2025
 1542TIP3    H226042   2.215   4.385  11.183 -1.6068  0.6561  0.5451
 1543TIP3   OH226043   6.769   6.743   2.012 -0.2550 -0.0433  0.2758
 1543TIP3    H126044   6.813   6.802   1.950 -0.1899  0.2203  0.5689
 1543TIP3    H226045   6.742   6.669   1.959  1.3029 -0.6290  0.2289
 1544TIP3   OH226046   3.248   5.329   0.874  0.0226  0.4484  0.2338
 1544TIP3    H126047   3.168   5.372   0.845  0.0824  1.6006  1.6307
 1544TIP3    H226048   3.260   5.358   0.965  1.6530 -0.2424  0.2943
 1545TIP3   OH226049   5.672   6.352   6.106 -0.2988  0.3364 -0.4216
 1545TIP3    H126050   5.733   6.286   6.138 -3.2208 -2.9026 -0.8588
 1545TIP3    H226051   5.706   6.378   6.021  1.7861  0.6590  0.4691
 1546TIP3   OH226052   5.543   1.911  11.496 -0.0645  1.0637  0.3794
 1546TIP3    H126053   5.585   1.914  11.410 -0.8057  1.1344  0.0129
 1546TIP3    H226054   5.585   1.838  11.541  0.1334  0.8522 -0.1426
 1547TIP3   OH226055   6.016   4.258   2.261  0.5997 -0.2024  0.3664
 1547TIP3    H126056   6.023   4.314   2.183  0.4369  0.7463  1.0221
 1547TIP3    H226057   6.102   4.217   2.268 -0.1619 -2.4318 -1.8515
 1548TIP3   OH226058   2.684   0.266  15.937  0.2651 -0.5377  0.0074
 1548TIP3    H126059   2.603   0.314  15.951 -0.1181 -0.8690 -1.0048
 1548TIP3    H226060   2.664   0.203  15.867  0.9749 -1.6350  0.7513
 1549TIP3   OH226061   3.136   5.728  14.470  0.1534  0.1988  0.2966
 1549TIP3    H126062   3.045   5.758  14.463 -0.0225 -0.4973 -0.3751
 1549TIP3    H226063   3.185   5.786  14.411 -0.0304 -0.1804 -0.2269
 1550TIP3   OH226064   6.732   3.636  13.695 -0.3015  1.1813 -0.1347
 1550TIP3    H126065   6.779   3.660  13.776  0.2528 -0.8671  0.2286
 1550TIP3    H226066   6.799   3.641  13.627  0.7116 -2.0641  0.4368
 1551TIP3   OH226067   6.434   4.162   4.598  0.0025  0.3948 -0.1486
 1551TIP3    H126068   6.483   4.098   4.547  1.2752 -0.1477  1.6539
 1551TIP3    H226069   6.465   4.247   4.566 -0.2211  0.0922 -1.1872
 1552TIP3   OH226070   5.421   2.456   1.024  0.2894  0.3584 -0.4619
 1552TIP3    H126071   5.469   2.383   0.986  0.0619  0.3118 -0.6638
 1552TIP3    H226072   5.487   2.507   1.071  0.5056  0.2051 -0.5994
 1553TIP3   OH226073   3.546   1.272  16.877  0.1466 -0.1806 -0.0982
 1553TIP3    H126074   3.613   1.228  16.928  0.0281  1.9175  2.0614
 1553TIP3    H226075   3.595   1.331  16.819  0.2568  0.6511  0.8006
 1554TIP3   OH226076   2.932   1.531  16.852  0.6964 -0.6128  0.2006
 1554TIP3    H126077   2.879   1.465  16.808 -0.8738  1.1403 -0.6401
 1554TIP3    H226078   2.986   1.569  16.783  2.3381 -1.6348  0.8573
 1555TIP3   OH226079   5.348   0.277   0.842  0.7703 -0.3876  0.1470
 1555TIP3    H126080   5.373   0.236   0.925  1.3086 -1.4784 -0.5199
 1555TIP3    H226081   5.375   0.213   0.775 -1.3231 -0.3728 -0.7811
 1556TIP3   OH226082   6.583   5.979  11.763  0.0590  0.4431 -0.4227
 1556TIP3    H126083   6.558   6.064  11.727  0.8818  0.7654 -0.2550
 1556TIP3    H226084   6.543   5.915  11.705 -0.8216  0.9408 -0.3758
 1557TIP3   OH226085   5.405   5.940  12.425  0.3811  0.2421  0.2478
 1557TIP3    H126086   5.322   5.979  12.449 -0.8268 -0.6197 -2.2006
 1557TIP3    H226087   5.389   5.845  12.428  1.5102  0.0375  0.4483
 1558TIP3   OH226088   0.752   6.558  11.220  0.1867 -0.0654 -0.1761
 1558TIP3    H126089   0.683   6.492  11.228 -2.2761  2.3521  0.4746
 1558TIP3    H226090   0.708   6.633  11.178  2.7803  1.1959 -0.8523
 1559TIP3   OH226091   3.311   6.228  16.757  0.3014 -0.3070  0.0146
 1559TIP3    H126092   3.326   6.219  16.663  1.5828  1.4072  0.0125
 1559TIP3    H226093   3.251   6.302  16.766  0.6553 -0.0787  0.5763
 1560TIP3   OH226094   2.107   1.288  11.360  0.9153  0.7024  0.4501
 1560TIP3    H126095   2.193   1.327  11.371  0.7282  1.4683 -0.7132
 1560TIP3    H226096   2.083   1.305  11.269  0.9655 -2.4439 -0.2709
 1561TIP3   OH226097   3.749   0.791   4.711 -0.2629 -0.0853 -0.0274
 1561TIP3    H126098   3.665   0.802   4.755 -0.4801  0.2444 -0.5167
 1561TIP3    H226099   3.784   0.709   4.745 -0.7094 -0.1428  0.2944
 1562TIP3   OH226100   6.706   0.280   3.416 -0.3306  0.2498  0.3116
 1562TIP3    H126101   6.614   0.260   3.395 -0.3208  0.0623  0.4436
 1562TIP3    H226102   6.752   0.268   3.333  0.1114 -2.9216  0.8967
 1563TIP3   OH226103   3.889   1.472  11.896  0.2642  0.0348  0.7398
 1563TIP3    H126104   3.833   1.400  11.925  1.6493 -0.5558  2.1599
 1563TIP3    H226105   3.836   1.522  11.834 -0.9784 -1.8124  0.2426
 1564TIP3   OH226106   5.943   0.439   0.483  0.4894  0.4809 -0.3442
 1564TIP3    H126107   6.010   0.437   0.416 -1.2232 -1.0892 -2.1481
 1564TIP3    H226108   5.861   0.420   0.436 -1.0245  0.9155  1.9399
 1565TIP3   OH226109   5.976   1.694  12.779 -1.1932  0.0669  0.0601
 1565TIP3    H126110   5.973   1.787  12.800  1.2105  0.4355 -0.8786
 1565TIP3    H226111   6.069   1.672  12.781 -1.4824 -1.7207 -2.0767
 1566TIP3   OH226112   4.573   1.631  16.315 -0.2439 -0.5016  0.1617
 1566TIP3    H126113   4.607   1.662  16.231 -0.9710  1.5289  0.5680
 1566TIP3    H226114   4.480   1.651  16.312 -0.1543  0.2365  1.7084
 1567TIP3   OH226115   6.082   1.026   4.277 -0.0907  0.0385  0.1636
 1567TIP3    H126116   6.147   1.038   4.346  1.6418  1.9050 -1.6996
 1567TIP3    H226117   6.132   0.996   4.201 -1.7290 -0.4794 -0.7568
 1568TIP3   OH226118   1.763   6.147  15.695 -0.6419 -0.1768  0.0851
 1568TIP3    H126119   1.767   6.122  15.603  1.7248  0.6162 -0.0846
 1568TIP3    H226120   1.806   6.076  15.741  2.9844  1.6980 -0.0554
 1569TIP3   OH226121   4.243   0.432  13.198  0.1017  0.6784 -0.0517
 1569TIP3    H126122   4.154   0.437  13.232 -0.5351 -0.1994 -1.4780
 1569TIP3    H226123   4.275   0.346  13.226  0.2926  0.7630 -0.0096
 1570TIP3   OH226124   2.684   3.272  10.703 -0.4384  0.3261  0.6419
 1570TIP3    H126125   2.661   3.179  10.703 -0.0178  0.2073  1.8075
 1570TIP3    H226126   2.613   3.315  10.751 -0.1859  0.4783  0.8832
 1571TIP3   OH226127   6.229   3.064  14.733 -0.0044  0.6120  0.0097
 1571TIP3    H126128   6.262   3.089  14.819  1.0060  1.5886 -0.6454
 1571TIP3    H226129   6.137   3.091  14.735 -0.2087 -0.0837  1.0465
 1572TIP3   OH226130   4.498   3.999   1.862 -0.0528 -0.3269 -0.1422
 1572TIP3    H126131   4.439   3.951   1.919 -1.6245  0.7518 -0.7962
 1572TIP3    H226132   4.443   4.030   1.790  1.1337  1.3693 -0.3941
 1573TIP3   OH226133   5.324   5.106   2.178  0.2155  0.6258 -0.4969
 1573TIP3    H126134   5.252   5.158   2.143 -1.2843 -0.4981  0.7400
 1573TIP3    H226135   5.286   5.060   2.253  1.3598 -2.4191 -1.6201
 1574TIP3   OH226136   1.774   1.921   4.051 -0.1721 -0.4260  0.4353
 1574TIP3    H126137   1.827   1.978   3.994  0.3780 -0.2827  1.0718
 1574TIP3    H226138   1.686   1.957   4.045 -0.1476 -0.4838 -0.4126
 1575TIP3   OH226139   2.678   4.002   3.107  0.6502 -0.0844  0.3386
 1575TIP3    H126140   2.761   4.046   3.089  0.0128  1.5765  1.2441
 1575TIP3    H226141   2.701   3.929   3.163  1.5117  0.3954  0.6286
 1576TIP3   OH226142   4.095   4.933   4.289  0.1986 -0.1989  0.3023
 1576TIP3    H126143   4.035   4.922   4.362 -1.8207  1.3360 -1.0261
 1576TIP3    H226144   4.087   4.852   4.239 -1.0607  0.1020 -0.0210
 1577TIP3   OH226145   1.294   4.133   0.736 -0.3959 -0.0397  0.0121
 1577TIP3    H126146   1.333   4.211   0.698 -1.1916  0.0149 -0.7220
 1577TIP3    H226147   1.348   4.061   0.706 -0.5050  0.0934 -0.5046
 1578TIP3   OH226148   5.201   0.703  14.160 -0.5203  0.4905  0.1671
 1578TIP3    H126149   5.173   0.636  14.222 -0.8961  1.0220  0.5796
 1578TIP3    H226150   5.236   0.654  14.086 -0.4910 -0.1564  0.6026
 1579TIP3   OH226151   4.437   2.052   4.372  0.6717  0.0851 -0.6011
 1579TIP3    H126152   4.473   1.988   4.311 -0.9901  0.2738 -1.8245
 1579TIP3    H226153   4.376   2.104   4.320  0.6418  1.5269  0.7765
 1580TIP3   OH226154   3.901   2.709  16.206 -0.1164 -0.3386 -0.1857
 1580TIP3    H126155   3.934   2.799  16.210  0.2442 -0.3439 -2.1773
 1580TIP3    H226156   3.806   2.719  16.202 -0.0627 -0.0047 -0.8229
 1581TIP3   OH226157   2.020   5.326  14.759 -0.5348 -0.4456  0.4487
 1581TIP3    H126158   2.062   5.275  14.690  0.9117  0.0394  0.9405
 1581TIP3    H226159   1.964   5.388  14.712  0.1293 -0.3782 -0.2854
 1582TIP3   OH226160   0.364   3.091  17.049  0.1670  0.5214 -0.0867
 1582TIP3    H126161   0.440   3.148  17.069 -0.3520  0.8991  0.8881
 1582TIP3    H226162   0.292   3.152  17.034  0.4497  0.2507 -3.0181
 1583TIP3   OH226163   6.753   1.139   1.832 -0.3614 -0.8138  0.3426
 1583TIP3    H126164   6.697   1.216   1.840  1.2043  0.3526  0.3801
 1583TIP3    H226165   6.695   1.066   1.854 -1.0959  0.5888  3.6829
 1584TIP3   OH226166   0.225   0.523   3.368  0.4969 -0.5392  0.4439
 1584TIP3    H126167   0.181   0.601   3.334  1.2467  0.4444  1.6774
 1584TIP3    H226168   0.172   0.495   3.442  0.7424 -0.6365  0.5857
 1585TIP3   OH226169   3.230   0.537  15.457 -0.2703  0.2269  0.6898
 1585TIP3    H126170   3.316   0.532  15.414 -0.8990  0.6135 -0.6550
 1585TIP3    H226171   3.246   0.503  15.544  0.7659 -2.0028 -0.2862
 1586TIP3   OH226172   6.066   4.278  12.031 -0.4069  0.7242 -0.0062
 1586TIP3    H126173   6.091   4.298  11.941  1.3063  1.4694  0.5925
 1586TIP3    H226174   6.055   4.183  12.033  1.9510  0.3667 -0.4888
 1587TIP3   OH226175   0.945   1.301   5.416  0.0684 -1.1992  0.7647
 1587TIP3    H126176   1.035   1.307   5.383 -0.6538 -3.0195 -1.9557
 1587TIP3    H226177   0.949   1.230   5.481  0.8207 -0.2894  1.7452
 1588TIP3   OH226178   0.713   0.976   3.347 -0.6855  0.2597  0.2862
 1588TIP3    H126179   0.757   0.891   3.354 -0.9531  0.1965  1.5825
 1588TIP3    H226180   0.719   0.999   3.255  1.5233 -0.0245  0.3182
 1589TIP3   OH226181   1.048   5.621  16.370 -0.2085  0.0225 -0.4327
 1589TIP3    H126182   0.953   5.633  16.360 -0.3889  0.9849  1.8271
 1589TIP3    H226183   1.077   5.587  16.285 -2.5625 -0.2728 -1.1885
 1590TIP3   OH226184   0.931   0.055  11.054  0.0382  0.0770  0.0201
 1590TIP3    H126185   0.938   0.115  10.981 -1.0480 -1.6983 -1.6442
 1590TIP3    H226186   0.837   0.054  11.076  0.0279 -0.9632  0.0022
 1591TIP3   OH226187   2.534   2.604   5.221  0.0159  0.6123 -0.1578
 1591TIP3    H126188   2.531   2.539   5.151  1.2086  1.0044 -0.5937
 1591TIP3    H226189   2.584   2.562   5.291 -1.5337  0.0593  0.6667
 1592TIP3   OH226190   4.726   6.617  13.279 -0.2765 -0.4540  0.8029
 1592TIP3    H126191   4.677   6.574  13.209  0.8252 -0.3673 -0.0552
 1592TIP3    H226192   4.710   6.565  13.357 -2.1703 -0.1041  0.6789
 1593TIP3   OH226193   3.126   3.008   3.831  0.0670 -0.1967 -0.2756
 1593TIP3    H126194   3.213   3.037   3.804  0.1208  1.0596  1.0783
 1593TIP3    H226195   3.120   3.034   3.923 -1.4845 -0.8926 -0.1448
 1594TIP3   OH226196   0.002   3.742   2.226 -0.0397  0.1783 -0.0205
 1594TIP3    H126197  -0.011   3.837   2.228 -1.1503  0.0369  0.0833
 1594TIP3    H226198  -0.026   3.712   2.313  0.7754 -0.1961  0.1210
 1595TIP3   OH226199   2.919   5.863   4.774  0.4042 -0.1543  0.2147
 1595TIP3    H126200   2.906   5.835   4.683 -0.1312 -0.5473  0.4066
 1595TIP3    H226201   2.986   5.804   4.808  2.3693  1.4950 -0.6013
 1596TIP3   OH226202   3.822   6.454   3.661  0.2433 -0.2071 -0.0655
 1596TIP3    H126203   3.791   6.450   3.571  0.9946 -0.6862 -0.3100
 1596TIP3    H226204   3.829   6.548   3.680 -0.4188 -0.1007 -0.3208
 1597TIP3   OH226205   6.319   4.380   5.145 -0.1077 -0.0935 -0.2252
 1597TIP3    H126206   6.349   4.412   5.060  0.4498 -0.6066 -0.2265
 1597TIP3    H226207   6.293   4.459   5.193  0.8672  0.3246 -0.3720
 1598TIP3   OH226208   0.253   0.325   1.343  0.2518  0.4028 -0.3067
 1598TIP3    H126209   0.270   0.414   1.311 -1.8550  0.6289 -0.9818
 1598TIP3    H226210   0.186   0.291   1.283 -0.9180 -0.6502  1.4964
 1599TIP3   OH226211   0.788   4.923   3.296 -0.0867  0.3735 -0.1315
 1599TIP3    H126212   0.854   4.953   3.234  1.3247  0.2592  1.2545
 1599TIP3    H226213   0.822   4.948   3.382 -1.2687 -0.7609  0.7166
 1600TIP3   OH226214   6.208   1.263   0.365  0.0334 -0.4357 -0.0273
 1600TIP3    H126215   6.268   1.256   0.291 -0.7927 -2.0142 -0.5805
 1600TIP3    H226216   6.121   1.258   0.327 -0.4432  0.3242  0.9131
 1601TIP3   OH226217   2.731   1.740   5.206 -0.7336  0.0599  0.9630
 1601TIP3    H126218   2.734   1.645   5.216 -0.9718  0.1474  1.9640
 1601TIP3    H226219   2.680   1.771   5.281 -2.1267  0.8575 -0.2655
 1602TIP3   OH226220   6.358   5.595  16.955  0.3026  0.5058  0.2536
 1602TIP3    H126221   6.267   5.608  16.930  0.1838 -1.5210 -0.5761
 1602TIP3    H226222   6.403   5.675  16.928 -1.0814  1.2178 -0.0203
 1603TIP3   OH226223   1.168   0.782  14.480 -0.3308 -0.3432  0.3118
 1603TIP3    H126224   1.261   0.760  14.488 -1.1527 -4.2521  1.5251
 1603TIP3    H226225   1.127   0.738  14.555 -3.3839 -0.5786 -1.3503
 1604TIP3   OH226226   3.229   1.085   3.983 -0.2661 -0.2894 -0.2648
 1604TIP3    H126227   3.203   1.017   3.921 -2.7676 -1.1978  1.6166
 1604TIP3    H226228   3.260   1.036   4.059 -0.5288  0.6988  0.4931
 1605TIP3   OH226229   6.331   4.014   3.582 -0.0865  0.4233  0.1463
 1605TIP3    H126230   6.344   3.997   3.488  0.7802 -0.6925  0.4578
 1605TIP3    H226231   6.418   4.033   3.615 -0.5103  1.6992  0.5821
 1606TIP3   OH226232   6.700   0.370  14.761 -0.0141  0.1474  0.3466
 1606TIP3    H126233   6.761   0.434  14.798  1.4968 -0.6240 -0.7348
 1606TIP3    H226234   6.729   0.286  14.797  0.1391 -0.3412 -0.8920
 1607TIP3   OH226235   1.233   0.949  16.450  0.9012  0.7407 -0.4692
 1607TIP3    H126236   1.145   0.942  16.413  1.0280 -0.9149 -0.5590
 1607TIP3    H226237   1.219   0.954  16.544  0.6939  0.3803 -0.4767
 1608TIP3   OH226238   4.784   3.052  12.922 -0.1966 -0.0403 -0.3543
 1608TIP3    H126239   4.798   3.093  13.007 -0.7091 -0.4793 -0.0518
 1608TIP3    H226240   4.782   2.958  12.940 -1.7591 -0.0850 -0.6060
 1609TIP3   OH226241   1.867   2.201  14.169  0.4665  0.0750 -0.2501
 1609TIP3    H126242   1.834   2.288  14.191  0.1820  0.1030 -0.7705
 1609TIP3    H226243   1.915   2.214  14.087  0.2574 -0.2888 -0.4307
 1610TIP3   OH226244   4.206   6.224  17.056  0.4429 -0.0964  0.1175
 1610TIP3    H126245   4.167   6.220  16.969  0.3800  2.3269 -0.0343
 1610TIP3    H226246   4.292   6.264  17.041  1.8825 -2.7082  0.8047
 1611TIP3   OH226247   3.068   1.385   2.516 -0.4830 -0.0290 -0.2578
 1611TIP3    H126248   3.153   1.429   2.518  0.4907 -1.7507 -0.9158
 1611TIP3    H226249   3.039   1.394   2.426 -1.7763  1.8719  0.3093
 1612TIP3   OH226250   4.699   6.325  13.074  0.0466 -0.1360  0.2746
 1612TIP3    H126251   4.779   6.337  13.126  0.9245 -0.2546 -0.9956
 1612TIP3    H226252   4.657   6.249  13.113  0.4741  0.0248  1.0675
 1613TIP3   OH226253   3.032   4.491  12.309 -0.9578  0.3694 -0.1496
 1613TIP3    H126254   3.074   4.562  12.261 -0.6170  0.1444 -0.1901
 1613TIP3    H226255   2.952   4.529  12.344 -2.0982  0.0937 -2.3113
 1614TIP3   OH226256   6.641   4.626   1.232 -0.1357 -0.2217  0.5608
 1614TIP3    H126257   6.571   4.593   1.175  0.1800 -2.3161  1.3303
 1614TIP3    H226258   6.703   4.554   1.238  1.9719  1.4710  0.1773
 1615TIP3   OH226259   3.494   0.722   3.002 -0.6869 -0.0694  0.1494
 1615TIP3    H126260   3.518   0.799   3.053  0.1999 -0.8556  0.9826
 1615TIP3    H226261   3.407   0.698   3.034 -0.5590  0.0300  0.5765
 1616TIP3   OH226262   5.582   2.129  10.892 -0.3806  0.5134  0.7277
 1616TIP3    H126263   5.652   2.176  10.847  1.1003 -1.3115  1.0089
 1616TIP3    H226264   5.526   2.095  10.822  0.3310  0.0461  0.3791
 1617TIP3   OH226265   1.309   1.086  11.576  0.2535 -0.3524  0.3371
 1617TIP3    H126266   1.300   1.057  11.667  1.0455 -1.8853 -0.0378
 1617TIP3    H226267   1.293   1.181  11.580 -0.9362 -0.5631  1.8674
 1618TIP3   OH226268   0.867   3.239   5.993  0.3809  0.8076  0.2296
 1618TIP3    H126269   0.783   3.193   5.986  0.7773  0.1900 -0.7791
 1618TIP3    H226270   0.845   3.331   5.982 -0.0191  0.5360 -1.8360
 1619TIP3   OH226271   4.808   1.352   4.745 -0.2315  0.3335  0.2675
 1619TIP3    H126272   4.797   1.260   4.722 -1.1347 -0.3561  3.0863
 1619TIP3    H226273   4.867   1.387   4.678 -0.5091 -2.0648 -1.3340
 1620TIP3   OH226274   1.231   3.045   6.062  0.3672 -0.3396  0.8600
 1620TIP3    H126275   1.268   3.117   6.113 -1.5691 -0.1567  2.0747
 1620TIP3    H226276   1.302   3.019   6.003  1.6281  1.5092  1.4796
 1621TIP3   OH226277   4.558   0.705   5.709 -0.7884 -0.1041  0.3232
 1621TIP3    H126278   4.570   0.784   5.762 -0.6426 -0.0310  0.1828
 1621TIP3    H226279   4.604   0.724   5.627 -1.3818 -0.0489 -0.0010
 1622TIP3   OH226280   0.775   2.367  14.320 -0.1683 -0.5335 -0.2541
 1622TIP3    H126281   0.852   2.319  14.350  0.1218  0.8682  1.3563
 1622TIP3    H226282   0.702   2.307  14.336  0.3558 -1.0857  0.1132
 1623TIP3   OH226283   2.855   2.855  12.669 -0.3079  0.0055 -0.2909
 1623TIP3    H126284   2.912   2.807  12.608 -2.4353  0.0467 -2.4539
 1623TIP3    H226285   2.862   2.946  12.641 -0.4277  0.2024  0.3041
 1624TIP3   OH226286   1.899   1.957  16.770  0.0238  0.0385 -0.4145
 1624TIP3    H126287   1.952   1.880  16.748 -0.0540  0.1192 -0.8926
 1624TIP3    H226288   1.864   1.987  16.686 -2.4040 -1.1660  0.0945
 1625TIP3   OH226289   1.503   3.956   1.610 -0.1898  0.1997 -0.4100
 1625TIP3    H126290   1.489   4.035   1.661 -1.8288  0.5243 -1.2705
 1625TIP3    H226291   1.588   3.968   1.568 -0.8644  2.0030 -1.3472
 1626TIP3   OH226292   6.558   3.035  12.073 -0.2416 -0.6793  0.4037
 1626TIP3    H126293   6.463   3.028  12.058 -0.3740  0.3162  0.6989
 1626TIP3    H226294   6.592   3.075  11.993 -0.4201  1.1016  1.1537
 1627TIP3   OH226295   5.019   0.937   2.437 -0.0659  0.2090  0.3827
 1627TIP3    H126296   5.049   1.020   2.400  3.3327 -1.3330 -0.6837
 1627TIP3    H226297   4.976   0.892   2.364  0.1251  0.1121  0.3300
 1628TIP3   OH226298   5.696   1.875  10.724 -0.0470 -0.3278 -0.1942
 1628TIP3    H126299   5.710   1.915  10.810  0.0743 -1.2383  0.2300
 1628TIP3    H226300   5.724   1.941  10.661  0.4813  0.1095  0.4922
 1629TIP3   OH226301   5.630   5.264  11.710  0.0244  0.1347  0.1306
 1629TIP3    H126302   5.565   5.201  11.740  0.3578 -0.4263 -0.2883
 1629TIP3    H226303   5.599   5.349  11.741 -1.2190 -0.0446 -0.5631
 1630TIP3   OH226304   0.429   0.874   2.426  0.0273 -0.2502  0.0526
 1630TIP3    H126305   0.503   0.934   2.436 -0.5084  0.5538 -0.6382
 1630TIP3    H226306   0.467   0.796   2.387  0.9325 -0.8330  1.9989
 1631TIP3   OH226307   3.313   4.839   3.385  0.4530  0.3029 -0.2362
 1631TIP3    H126308   3.249   4.853   3.316  1.6378 -0.2752 -1.5063
 1631TIP3    H226309   3.311   4.919   3.437  0.2697  1.1984 -1.5800
 1632TIP3   OH226310   0.899   5.979   5.626  0.1587  0.4119  0.2468
 1632TIP3    H126311   0.971   6.009   5.570 -1.2330  0.6566 -1.5073
 1632TIP3    H226312   0.928   6.000   5.714  2.0551  0.8840 -0.4240
 1633TIP3   OH226313   6.046   0.714  12.760 -0.2742 -0.2529  0.2440
 1633TIP3    H126314   6.032   0.793  12.812 -1.6162 -1.1951  1.3751
 1633TIP3    H226315   5.995   0.729  12.680  0.7993  0.6820 -0.2910
 1634TIP3   OH226316   4.389   4.046   1.587  0.1982 -0.2526  0.3706
 1634TIP3    H126317   4.392   4.021   1.495 -0.3769  0.3888  0.1664
 1634TIP3    H226318   4.450   4.119   1.595  0.9646 -0.9119  0.7096
 1635TIP3   OH226319   2.364   6.502  11.674 -0.2704 -0.3305 -0.3188
 1635TIP3    H126320   2.421   6.578  11.684  0.4708 -0.7915 -0.9448
 1635TIP3    H226321   2.337   6.480  11.763  1.3107 -0.6910  0.0975
 1636TIP3   OH226322   0.659   1.339  11.912  0.0774  0.1831  0.4017
 1636TIP3    H126323   0.682   1.265  11.857  0.1446  0.5206 -0.0299
 1636TIP3    H226324   0.636   1.409  11.850  0.1295  0.5577  0.7995
 1637TIP3   OH226325   1.807   0.294   4.103  0.3025 -0.3443  0.0500
 1637TIP3    H126326   1.884   0.310   4.048  0.9387 -1.2094  0.6636
 1637TIP3    H226327   1.774   0.381   4.123  0.8002  0.0235 -0.6753
 1638TIP3   OH226328   4.362   4.830   1.817  0.1567  0.1426 -0.3711
 1638TIP3    H126329   4.414   4.779   1.880 -1.2463  0.9366  1.5176
 1638TIP3    H226330   4.408   4.914   1.812  1.1358 -0.4425 -1.6498
 1639TIP3   OH226331   3.760   3.500   4.680 -0.3073  0.3106  0.4209
 1639TIP3    H126332   3.822   3.459   4.741  0.1023  1.7209  1.0065
 1639TIP3    H226333   3.815   3.551   4.621 -0.8138  0.2186 -0.1425
 1640TIP3   OH226334   1.823   2.608   4.564 -0.4031  0.0991  0.4337
 1640TIP3    H126335   1.733   2.639   4.566  0.4272  2.7189  0.3649
 1640TIP3    H226336   1.863   2.653   4.490  0.6182 -2.2625 -0.5782
 1641TIP3   OH226337   0.657   0.947   5.488 -0.6264 -0.2788  0.4358
 1641TIP3    H126338   0.748   0.966   5.509 -0.5143 -0.0485 -0.2342
 1641TIP3    H226339   0.650   0.852   5.494  0.0064 -0.4222 -0.8168
 1642TIP3   OH226340   2.792   1.498  15.185  0.1213  0.3197  0.2004
 1642TIP3    H126341   2.697   1.493  15.172 -0.0330 -6.2231  0.3851
 1642TIP3    H226342   2.801   1.517  15.278 -1.1737 -0.4882  0.5316
 1643TIP3   OH226343   5.774   1.989  14.352 -0.0141  0.3803 -0.6572
 1643TIP3    H126344   5.757   1.998  14.258 -0.4896 -0.0500 -0.6188
 1643TIP3    H226345   5.841   1.920  14.358  0.9647  1.3002 -0.7453
 1644TIP3   OH226346   6.173   3.342  17.068  0.2273 -0.4412 -0.3911
 1644TIP3    H126347   6.249   3.384  17.109  0.1833  0.4624 -1.2004
 1644TIP3    H226348   6.099   3.398  17.092  0.5915  1.9777 -4.1464
 1645TIP3   OH226349   0.902   3.751   3.237 -0.2569 -0.0829  0.1410
 1645TIP3    H126350   0.957   3.695   3.182  0.8260  1.0749 -0.0129
 1645TIP3    H226351   0.827   3.773   3.182 -1.3331 -2.3486  0.6341
 1646TIP3   OH226352   1.728   4.284   6.224  0.1452 -0.3752 -0.9028
 1646TIP3    H126353   1.668   4.359   6.232  0.4508 -0.3221  1.8173
 1646TIP3    H226354   1.670   4.209   6.211 -0.5129 -0.1735  0.5968
 1647TIP3   OH226355   2.881   0.948   2.632  0.5406  0.0972  0.0218
 1647TIP3    H126356   2.834   0.919   2.553  0.7536 -1.0021  0.2802
 1647TIP3    H226357   2.865   1.042   2.636 -0.3275  0.0005 -0.7671
 1648TIP3   OH226358   4.183   6.012   1.933 -0.1300 -0.0590 -0.0594
 1648TIP3    H126359   4.261   5.967   1.966 -0.3572 -0.7476 -0.4293
 1648TIP3    H226360   4.207   6.038   1.844  0.3331  1.4215  0.4659
 1649TIP3   OH226361   0.432   1.514   2.857 -0.3452 -0.2788 -0.3083
 1649TIP3    H126362   0.390   1.600   2.846 -2.6995 -0.8999  2.4507
 1649TIP3    H226363   0.525   1.533   2.860 -0.6454  1.8762 -1.8459
 1650TIP3   OH226364   3.034   6.658   2.395  0.2354 -0.2549  0.4398
 1650TIP3    H126365   3.075   6.709   2.326  0.6596 -0.5577  0.4684
 1650TIP3    H226366   2.947   6.638   2.361  0.6711 -0.9616 -0.2892
 1651TIP3   OH226367   1.859   6.580  13.719 -0.4721 -0.3657 -0.0185
 1651TIP3    H126368   1.777   6.626  13.735 -1.6903 -2.4306  0.0186
 1651TIP3    H226369   1.848   6.541  13.632  0.3827 -0.8337  0.0713
 1652TIP3   OH226370   6.128   2.020   6.440 -0.4486  0.0060 -0.4760
 1652TIP3    H126371   6.033   2.032   6.451 -0.4950  0.5999 -1.4034
 1652TIP3    H226372   6.156   1.974   6.519 -1.5105 -0.1652 -0.1872
 1653TIP3   OH226373   0.972   4.390  15.893  0.5478 -0.2183 -0.2681
 1653TIP3    H126374   1.008   4.303  15.878 -1.8162 -1.1499 -1.1139
 1653TIP3    H226375   0.977   4.434  15.808  1.9454  0.5984  0.2087
 1654TIP3   OH226376   2.450   3.068   2.045 -0.4749 -0.4916  0.3859
 1654TIP3    H126377   2.473   3.157   2.020  0.4559 -0.7908  0.1363
 1654TIP3    H226378   2.427   3.074   2.138  0.1562 -0.0915  0.5206
 1655TIP3   OH226379   5.212   3.606   0.974 -0.1148  0.3600  0.2750
 1655TIP3    H126380   5.298   3.647   0.981  0.9041 -1.0946 -2.2568
 1655TIP3    H226381   5.154   3.677   0.948  0.4456  1.2063  1.2480
 1656TIP3   OH226382   6.434   0.385   0.209 -0.1718  0.2923 -0.5588
 1656TIP3    H126383   6.390   0.345   0.134 -0.1105 -0.3907 -0.2359
 1656TIP3    H226384   6.443   0.314   0.272  1.3490  0.4075 -0.6038
 1657TIP3   OH226385   3.517   0.066   0.212 -0.3108 -0.7402 -0.1792
 1657TIP3    H126386   3.473   0.021   0.284 -0.3050  1.9808  1.6701
 1657TIP3    H226387   3.468   0.041   0.134 -1.7765 -1.9885  1.0849
 1658TIP3   OH226388   5.169   2.121  13.463 -0.4517 -0.1518 -0.1983
 1658TIP3    H126389   5.264   2.105  13.467 -0.2581  0.9383 -0.0893
 1658TIP3    H226390   5.135   2.082  13.544 -0.1378 -0.7514 -0.3439
 1659TIP3   OH226391   4.671   0.877  15.496  0.7672  1.0124  0.0781
 1659TIP3    H126392   4.765   0.864  15.483  0.6815 -2.3959  1.8268
 1659TIP3    H226393   4.631   0.844  15.416  0.9771  0.3931  0.2267
 1660TIP3   OH226394   2.201   3.816   0.064 -0.1549 -0.0233 -0.1215
 1660TIP3    H126395   2.227   3.858  -0.018 -0.6546 -2.0714 -1.3966
 1660TIP3    H226396   2.258   3.739   0.070 -0.9473 -0.5473  0.8336
 1661TIP3   OH226397   2.765   0.395  14.739 -0.3467 -0.3472  0.2495
 1661TIP3    H126398   2.806   0.314  14.708  2.9936  0.9236  0.9424
 1661TIP3    H226399   2.802   0.464  14.684  0.7173  1.2186  2.7193
 1662TIP3   OH226400   5.858   5.776   0.797 -0.3927  0.0561 -0.1999
 1662TIP3    H126401   5.936   5.827   0.817  0.0482 -1.1407  1.3050
 1662TIP3    H226402   5.802   5.787   0.874 -0.1708 -1.8959  0.2876
 1663TIP3   OH226403   4.960   1.954   5.637 -0.1002  0.0747 -0.1474
 1663TIP3    H126404   5.022   1.888   5.608 -0.4152 -0.4976  0.4548
 1663TIP3    H226405   4.963   1.949   5.732 -2.0546 -0.9206 -0.0919
 1664TIP3   OH226406   6.688   2.326  10.298  0.3397 -0.8654 -0.2665
 1664TIP3    H126407   6.600   2.351  10.270 -0.0361 -0.2200  1.3575
 1664TIP3    H226408   6.745   2.392  10.260 -0.3824  1.2620  2.0583
 1665TIP3   OH226409   1.574   6.694   5.569  0.1094 -0.4044 -0.2847
 1665TIP3    H126410   1.622   6.649   5.639  1.4577 -0.4381 -1.1912
 1665TIP3    H226411   1.483   6.692   5.597  0.3836 -2.0404  0.5963
 1666TIP3   OH226412   2.949   5.522   1.586  0.4492 -0.1591  0.3571
 1666TIP3    H126413   2.933   5.615   1.569  2.5782  0.7336  2.5775
 1666TIP3    H226414   3.042   5.511   1.567  0.9970 -0.9905  3.0641
 1667TIP3   OH226415   4.678   1.521   2.336 -0.2777 -0.3049 -0.2302
 1667TIP3    H126416   4.629   1.579   2.277  0.5540  0.6974  0.0152
 1667TIP3    H226417   4.625   1.515   2.415 -0.8224 -0.6610 -0.6183
 1668TIP3   OH226418   4.549   6.510   4.319 -0.2101  0.0921 -0.4674
 1668TIP3    H126419   4.480   6.479   4.379 -0.3536 -1.3398 -1.3337
 1668TIP3    H226420   4.531   6.465   4.237  0.7351  1.0719 -1.2312
 1669TIP3   OH226421   1.187   4.416   1.142  0.5856  0.3673 -0.1302
 1669TIP3    H126422   1.244   4.400   1.067  1.0818  0.7820  0.1523
 1669TIP3    H226423   1.242   4.399   1.219  1.0540  2.9456  0.1840
 1670TIP3   OH226424   6.335   4.646   5.224  0.3532 -0.3549 -0.2651
 1670TIP3    H126425   6.303   4.638   5.314 -0.8672 -0.9265 -0.7277
 1670TIP3    H226426   6.356   4.739   5.215  1.6709 -0.4892  0.9704
 1671TIP3   OH226427   0.856   0.535  14.303 -0.2269  0.1858 -0.1899
 1671TIP3    H126428   0.787   0.482  14.343  0.2640 -0.5968 -0.3698
 1671TIP3    H226429   0.929   0.475  14.289  0.6156  1.0605  0.2596
 1672TIP3   OH226430   1.762   4.444   0.333 -0.3486 -0.1152 -0.3295
 1672TIP3    H126431   1.678   4.414   0.296 -0.4713 -0.9295  0.5722
 1672TIP3    H226432   1.820   4.369   0.322  0.2135  0.3744 -0.7543
 1673TIP3   OH226433   1.619   1.219  12.042  0.3365 -0.2022  0.5442
 1673TIP3    H126434   1.661   1.215  11.955 -1.8831  2.0256 -0.7586
 1673TIP3    H226435   1.692   1.221  12.103  2.0618 -0.1198 -1.3911
 1674TIP3   OH226436   3.602   3.959  14.720 -0.1791  0.1148 -0.0093
 1674TIP3    H126437   3.691   3.947  14.687 -0.1697  1.0991 -0.3646
 1674TIP3    H226438   3.614   3.985  14.811 -0.0801  0.7743 -0.2082
 1675TIP3   OH226439   2.074   5.656   5.349  0.4845  0.2522 -0.0003
 1675TIP3    H126440   2.007   5.589   5.357 -0.2373  1.0565  1.0368
 1675TIP3    H226441   2.123   5.651   5.431  1.0784  0.3163 -0.3435
 1676TIP3   OH226442   6.183   4.182   1.713 -0.5740  0.5585 -0.1718
 1676TIP3    H126443   6.145   4.257   1.667  2.0459  1.4777 -1.0269
 1676TIP3    H226444   6.214   4.219   1.796  1.5788  0.7460 -0.9855
 1677TIP3   OH226445   0.542   4.749  14.591 -0.3668 -0.2973 -0.6855
 1677TIP3    H126446   0.558   4.667  14.638 -1.5427  0.1889  0.6836
 1677TIP3    H226447   0.450   4.743  14.564 -0.2709  0.2857 -1.1535
 1678TIP3   OH226448   0.868   1.951   3.290  0.2620 -0.0215  0.1986
 1678TIP3    H126449   0.904   1.992   3.211  0.8550  0.4259  0.6976
 1678TIP3    H226450   0.924   1.876   3.306 -0.4200 -0.6537 -0.3301
 1679TIP3   OH226451   0.902   0.272   5.422 -0.0073  0.2191 -0.4054
 1679TIP3    H126452   0.814   0.265   5.386 -0.2594  3.2744 -0.6040
 1679TIP3    H226453   0.892   0.254   5.516 -0.1236 -3.0917 -0.9412
 1680TIP3   OH226454   2.098   1.430  12.703 -0.1666 -0.2874  0.2993
 1680TIP3    H126455   2.068   1.475  12.782  0.2042  0.2394  0.1443
 1680TIP3    H226456   2.183   1.394  12.727  0.1932  0.3409 -0.0298
 1681TIP3   OH226457   6.415   2.197  12.410 -0.2286 -0.0338 -1.0478
 1681TIP3    H126458   6.495   2.244  12.386  0.8186 -0.6820  0.9640
 1681TIP3    H226459   6.374   2.250  12.478  0.6286 -1.6024  0.7806
 1682TIP3   OH226460   4.448   2.221   0.354 -0.6702 -0.0143 -0.6374
 1682TIP3    H126461   4.439   2.174   0.271  0.5961  0.9442 -1.3623
 1682TIP3    H226462   4.434   2.313   0.330 -0.2560  0.2765  0.2058
 1683TIP3   OH226463   5.229   2.954   1.371  0.0394  0.4108  0.1451
 1683TIP3    H126464   5.244   2.860   1.367  0.2191  0.4473 -0.1424
 1683TIP3    H226465   5.164   2.966   1.440  0.7486  0.1711  0.8650
 1684TIP3   OH226466   0.328   4.141  17.022 -0.3047 -0.3090  0.1266
 1684TIP3    H126467   0.395   4.206  17.042 -1.5144  0.7638  0.9373
 1684TIP3    H226468   0.307   4.101  17.106 -1.1494 -0.1222  0.0215
 1685TIP3   OH226469   2.720   2.910   6.434  0.1695 -1.0416  0.2742
 1685TIP3    H126470   2.700   2.948   6.348  0.4941 -1.7506 -0.1206
 1685TIP3    H226471   2.813   2.887   6.428  0.1298 -1.3150  0.7336
 1686TIP3   OH226472   5.450   5.846   3.783  0.0859  0.0935 -0.5142
 1686TIP3    H126473   5.444   5.919   3.845 -2.0733  0.7957 -1.4865
 1686TIP3    H226474   5.515   5.875   3.719 -0.7113  1.1778 -0.8612
 1687TIP3   OH226475   0.890   2.412   5.388  0.0470 -0.6084 -0.2218
 1687TIP3    H126476   0.844   2.333   5.362  1.2879 -1.7151  0.7570
 1687TIP3    H226477   0.860   2.429   5.478 -1.1552  0.7909 -0.8566
 1688TIP3   OH226478   0.904   3.566   3.712  0.0363  0.2709  0.0184
 1688TIP3    H126479   0.824   3.609   3.680  0.1095 -1.0999 -2.2356
 1688TIP3    H226480   0.938   3.519   3.636  0.3050 -3.2141  2.0551
 1689TIP3   OH226481   1.371   0.012   2.931 -0.0423 -0.0784  0.7073
 1689TIP3    H126482   1.462   0.035   2.951 -0.4781  0.7424  1.7574
 1689TIP3    H226483   1.345  -0.048   3.001 -0.5265  0.2184  0.7850
 1690TIP3   OH226484   0.557   1.260  13.789 -0.1394 -0.0718 -0.0775
 1690TIP3    H126485   0.559   1.289  13.880  0.4849  3.4485 -1.0909
 1690TIP3    H226486   0.649   1.254  13.764 -0.2905 -1.4484 -0.4415
 1691TIP3   OH226487   0.769   4.128   2.741  0.1860 -0.0176  0.0176
 1691TIP3    H126488   0.848   4.182   2.747 -0.8555  1.4275  1.4976
 1691TIP3    H226489   0.736   4.123   2.830 -1.3619 -0.6507 -0.5570
 1692TIP3   OH226490   6.510   1.237  14.311 -0.3016  0.0710 -0.5726
 1692TIP3    H126491   6.605   1.226  14.316 -0.2133  1.0274  0.0920
 1692TIP3    H226492   6.478   1.211  14.398 -0.7015 -0.6017 -0.9057
 1693TIP3   OH226493   0.681   4.666  17.121 -0.0852  0.0301 -0.6815
 1693TIP3    H126494   0.601   4.633  17.079 -0.8172 -0.5315  1.0334
 1693TIP3    H226495   0.667   4.648  17.214  0.7394  2.6330  0.0349
 1694TIP3   OH226496   5.817   0.605   1.199  0.2925  0.2038 -0.8423
 1694TIP3    H126497   5.797   0.545   1.127  2.5738 -0.0330 -1.3689
 1694TIP3    H226498   5.854   0.682   1.156  0.4317  0.6268  0.0203
 1695TIP3   OH226499   1.376   6.014  16.278  0.1956  0.2150 -0.9936
 1695TIP3    H126500   1.378   6.067  16.198 -0.9557  0.7168 -0.7179
 1695TIP3    H226501   1.463   5.975  16.284  0.0993 -0.3582 -2.8376
 1696TIP3   OH226502   3.956   1.978  14.442 -0.1131 -0.4284 -0.2798
 1696TIP3    H126503   3.890   1.912  14.423  0.1633 -0.7511 -0.1235
 1696TIP3    H226504   4.028   1.958  14.383 -0.6828  0.7468 -1.4237
 1697TIP3   OH226505   0.401   0.208  15.058 -0.4640 -0.2448  0.1779
 1697TIP3    H126506   0.480   0.203  15.112 -1.2987  0.3593  1.4986
 1697TIP3    H226507   0.361   0.292  15.080 -0.8467  0.0333 -1.4004
 1698TIP3   OH226508   0.669   1.389  12.518 -0.5121  0.2692 -0.1451
 1698TIP3    H126509   0.677   1.421  12.608  0.5813 -0.5246  0.0681
 1698TIP3    H226510   0.739   1.324  12.509 -0.9365 -0.0590 -1.4074
 1699TIP3   OH226511   5.480   1.210   4.567  0.1145 -0.5609 -0.1284
 1699TIP3    H126512   5.529   1.156   4.628 -0.2085 -0.0190  0.6270
 1699TIP3    H226513   5.535   1.216   4.489  0.7638 -0.8214  0.3120
 1700TIP3   OH226514   3.816   6.109   2.769  0.6515  0.6107  0.2724
 1700TIP3    H126515   3.730   6.121   2.730  1.2179  1.9216 -0.6435
 1700TIP3    H226516   3.829   6.014   2.770 -0.3611  0.4452 -0.5802
 1701TIP3   OH226517   1.688   0.521   1.738  0.3120  0.0223  0.2862
 1701TIP3    H126518   1.698   0.551   1.648 -2.5952  1.7441  0.4184
 1701TIP3    H226519   1.669   0.427   1.730  1.8061 -0.2347 -0.7040
 1702TIP3   OH226520   4.620   4.017  16.451  0.4280  0.1261  0.8015
 1702TIP3    H126521   4.670   3.999  16.372  1.8942  0.2135  1.6753
 1702TIP3    H226522   4.679   3.994  16.523  0.1546  2.5511  1.9098
 1703TIP3   OH226523   0.261   5.833   3.947  0.3384  0.5316  0.7204
 1703TIP3    H126524   0.346   5.815   3.906  1.0362  1.0260  1.8920
 1703TIP3    H226525   0.209   5.755   3.929  0.6932  0.6155 -0.8446
 1704TIP3   OH226526   1.122   1.030  13.668 -0.6452 -0.6445  0.0688
 1704TIP3    H126527   1.173   0.978  13.606 -0.7488 -0.9075  0.2066
 1704TIP3    H226528   1.179   1.039  13.744 -0.2513  0.2335 -0.3062
 1705TIP3   OH226529   0.015   1.999  11.463  0.1271 -0.7112 -0.5714
 1705TIP3    H126530   0.043   1.949  11.539  0.1447  1.2927  0.7834
 1705TIP3    H226531  -0.081   1.990  11.463 -0.1177  1.1961  1.1535
 1706TIP3   OH226532   5.325   1.674   4.581  0.6469  0.0018 -0.1807
 1706TIP3    H126533   5.387   1.662   4.653 -0.8461  0.0758  1.1836
 1706TIP3    H226534   5.322   1.589   4.537  0.9604 -0.3038  0.3727
 1707TIP3   OH226535   1.110   3.329   2.799  0.0783 -0.2976  0.3078
 1707TIP3    H126536   1.121   3.268   2.872  1.4796 -0.2408  0.1600
 1707TIP3    H226537   1.034   3.296   2.752 -2.4665  1.0221  3.1264
 1708TIP3   OH226538   2.264   3.210  13.188  0.2364 -0.6035 -0.2132
 1708TIP3    H126539   2.352   3.181  13.166  0.2321 -2.7639  2.0767
 1708TIP3    H226540   2.275   3.263  13.267 -0.5042 -1.4386  0.4798
 1709TIP3   OH226541   6.692   5.266  16.335 -0.4022  0.2807 -0.3526
 1709TIP3    H126542   6.682   5.232  16.246 -1.8172 -1.4215  0.4135
 1709TIP3    H226543   6.681   5.190  16.392  1.9852  1.0203  1.2856
 1710TIP3   OH226544   5.805   0.674  15.553 -0.1991 -0.0956  0.1282
 1710TIP3    H126545   5.868   0.602  15.541  0.3520  0.3990 -0.0277
 1710TIP3    H226546   5.857   0.744  15.593 -0.4203  0.6408 -0.8173
 1711TIP3   OH226547   1.554   2.435   1.175  0.0360 -0.0744 -0.5773
 1711TIP3    H126548   1.590   2.520   1.147  1.8924 -0.6885 -0.2095
 1711TIP3    H226549   1.631   2.381   1.190 -1.1250 -2.1169 -1.5960
 1712TIP3   OH226550   4.921   3.201  13.160 -0.1395  0.2425 -0.3453
 1712TIP3    H126551   4.837   3.246  13.173 -0.6507 -0.3761 -1.3249
 1712TIP3    H226552   4.961   3.199  13.247 -0.2943  2.1591 -0.2041
 1713TIP3   OH226553   6.774   5.877   1.205  0.3117  0.3261  0.2081
 1713TIP3    H126554   6.745   5.946   1.146  0.0914 -0.0569 -0.1345
 1713TIP3    H226555   6.706   5.873   1.273 -0.0057  0.0116 -0.1248
 1714TIP3   OH226556   1.016   2.024   6.163  0.5709  0.5270 -0.1963
 1714TIP3    H126557   1.069   1.962   6.212  0.7544  1.7302  1.1709
 1714TIP3    H226558   0.935   2.032   6.214 -0.5586 -0.4797 -1.6996
 1715TIP3   OH226559   1.095   0.655  15.129  0.1201  0.9671 -0.4162
 1715TIP3    H126560   1.153   0.583  15.155  0.0799  0.3392 -1.9530
 1715TIP3    H226561   1.148   0.734  15.139  0.0928  0.7684  1.5075
 1716TIP3   OH226562   0.604   5.388   3.971  0.1038  0.1317  0.1175
 1716TIP3    H126563   0.610   5.384   3.876 -0.7331  2.6472 -0.0988
 1716TIP3    H226564   0.695   5.378   4.001  0.4575 -0.0369 -0.9609
 1717TIP3   OH226565   4.040   4.286  16.928 -0.2122 -0.1586 -0.0500
 1717TIP3    H126566   4.107   4.306  16.994  0.8371 -2.8127 -0.1883
 1717TIP3    H226567   4.068   4.334  16.850 -1.0411  2.3868  1.0953
 1718TIP3   OH226568   6.081   2.012  12.040 -0.3252  0.0986  0.0245
 1718TIP3    H126569   6.162   2.031  12.087 -0.1461 -0.6250  0.0214
 1718TIP3    H226570   6.107   2.016  11.947  0.1345 -1.8381  0.0321
 1719TIP3   OH226571   3.286   2.549  14.028 -0.0256  0.0675  0.2437
 1719TIP3    H126572   3.206   2.566  13.978 -1.0385 -1.8899  1.0923
 1719TIP3    H226573   3.325   2.474  13.985 -0.2057 -0.8047  1.5482
 1720TIP3   OH226574   4.599   0.357  13.571 -0.0851 -0.4689 -0.3260
 1720TIP3    H126575   4.680   0.398  13.601 -0.0169 -1.1147  0.4036
 1720TIP3    H226576   4.548   0.342  13.650 -0.4947 -0.9619 -0.6716
 1721TIP3   OH226577   3.859   0.423   3.742 -0.6220  0.1652 -0.2405
 1721TIP3    H126578   3.850   0.449   3.650 -0.7395 -2.0518 -0.9155
 1721TIP3    H226579   3.903   0.338   3.738 -2.5703 -1.0112  1.6165
 1722TIP3   OH226580   3.209   0.994  13.768  0.6340  0.8692 -0.6281
 1722TIP3    H126581   3.260   1.053  13.712  3.0322  1.2623  1.7619
 1722TIP3    H226582   3.210   1.036  13.854  1.0878 -1.8554  0.8057
 1723TIP3   OH226583   1.618   1.755  15.398  1.1720 -0.6924  0.7069
 1723TIP3    H126584   1.551   1.823  15.392  2.0428  0.2773  1.5445
 1723TIP3    H226585   1.576   1.683  15.445  1.0303  0.3422  2.2166
 1724TIP3   OH226586   5.319   3.280  16.453 -0.0320  0.0659 -0.2841
 1724TIP3    H126587   5.323   3.371  16.424  1.1971 -0.1024 -0.7114
 1724TIP3    H226588   5.411   3.254  16.463 -0.3706 -1.0172  0.1920
 1725TIP3   OH226589   0.374   6.696  15.493  0.6652 -0.5001  0.2679
 1725TIP3    H126590   0.373   6.791  15.481  0.7685 -0.6605 -1.1756
 1725TIP3    H226591   0.283   6.673  15.514  0.2789 -0.2663 -1.0826
 1726TIP3   OH226592   3.839   2.059  12.375 -0.9255  0.1616  0.1627
 1726TIP3    H126593   3.851   1.966  12.390 -0.7759  0.1458 -0.0524
 1726TIP3    H226594   3.847   2.070  12.281 -0.2688  0.4896  0.2522
 1727TIP3   OH226595   3.865   6.438   1.225  0.1358 -0.1991  0.6236
 1727TIP3    H126596   3.854   6.385   1.146 -0.5278  1.9661 -0.8528
 1727TIP3    H226597   3.905   6.380   1.289  1.9241 -1.6983 -1.7195
 1728TIP3   OH226598   6.398   0.793  15.554 -0.2514  0.4994  0.3660
 1728TIP3    H126599   6.487   0.802  15.587  0.5265 -0.5850 -1.3171
 1728TIP3    H226600   6.371   0.883  15.533  0.8969  0.7197 -0.2305
 1729TIP3   OH226601   2.090   5.411   1.383 -0.3769  0.6981  0.9081
 1729TIP3    H126602   2.009   5.445   1.420 -1.0797  0.9590 -0.8003
 1729TIP3    H226603   2.141   5.489   1.361 -0.5350  0.5834  0.1201
 1730TIP3   OH226604   5.909   1.907   1.409 -0.2319  0.2828  0.3029
 1730TIP3    H126605   5.948   1.825   1.378  2.0842  2.1889 -2.3487
 1730TIP3    H226606   5.827   1.881   1.451 -0.4697 -3.1992 -1.9675
 1731TIP3   OH226607   0.002   0.847   3.970  0.2247  0.8850 -0.0637
 1731TIP3    H126608   0.042   0.760   3.971 -0.4106  0.5773  1.0881
 1731TIP3    H226609   0.040   0.890   3.894  0.2559 -0.5338 -0.8907
 1732TIP3   OH226610   0.703   4.453  16.256 -0.2214 -0.2119 -0.5762
 1732TIP3    H126611   0.711   4.440  16.350  1.2450 -0.1272 -0.6632
 1732TIP3    H226612   0.764   4.390  16.218 -2.0853 -1.5011 -1.5810
 1733TIP3   OH226613   0.324   2.498  16.777  0.2233  1.2782  0.0933
 1733TIP3    H126614   0.411   2.521  16.743  0.6280 -0.8810 -0.4511
 1733TIP3    H226615   0.263   2.541  16.716  0.9574 -0.6969 -2.1619
 1734TIP3   OH226616   4.240   5.086  11.143 -0.0309 -0.6073 -0.4602
 1734TIP3    H126617   4.260   5.179  11.146 -1.9825 -0.1642  0.2652
 1734TIP3    H226618   4.234   5.066  11.049  0.2103  0.0409 -0.6173
 1735TIP3   OH226619   0.358   4.397  15.765 -0.0322  0.2038  0.4085
 1735TIP3    H126620   0.380   4.450  15.689  0.1298 -2.5257 -1.5886
 1735TIP3    H226621   0.264   4.380  15.756  0.2635 -1.3334 -0.0634
 1736TIP3   OH226622   4.098   4.769  13.994  0.6144 -0.3057  0.2723
 1736TIP3    H126623   4.177   4.820  13.979  0.0807  0.6499  0.6133
 1736TIP3    H226624   4.070   4.740  13.907  0.5591  0.5559 -0.0058
 1737TIP3   OH226625   3.036   4.639  13.481 -0.4992  0.1413 -0.2030
 1737TIP3    H126626   3.107   4.698  13.507 -0.1296 -0.3990  0.0235
 1737TIP3    H226627   3.021   4.659  13.389  1.1091 -0.9087 -0.7324
 1738TIP3   OH226628   5.959   2.747  12.266  0.0602  0.3609 -0.2025
 1738TIP3    H126629   5.868   2.741  12.292  0.1712 -0.1318  0.0857
 1738TIP3    H226630   5.984   2.837  12.287 -0.3911  0.5398 -0.4127
 1739TIP3   OH226631   5.642   3.165  12.936 -0.1009  0.0022  0.0959
 1739TIP3    H126632   5.582   3.184  13.008 -0.9969  1.3369 -0.9629
 1739TIP3    H226633   5.699   3.096  12.971 -0.8177  0.2538  1.8962
 1740TIP3   OH226634   3.078   4.364  11.922 -0.0911 -0.3122  0.1622
 1740TIP3    H126635   3.008   4.425  11.898  0.3284 -0.1692 -0.7493
 1740TIP3    H226636   3.132   4.413  11.984 -0.5235 -0.2449  0.4877
 1741TIP3   OH226637   6.526   3.596   3.305  0.4695  0.1962 -0.4641
 1741TIP3    H126638   6.604   3.605   3.250  0.4441 -2.9455 -1.1771
 1741TIP3    H226639   6.460   3.649   3.260  1.2797  0.1693 -1.7567
 1742TIP3   OH226640   4.902   6.411  16.507 -0.0552 -0.7536  0.1969
 1742TIP3    H126641   4.891   6.338  16.447 -0.1954 -0.1575 -0.5227
 1742TIP3    H226642   4.829   6.470  16.488 -0.6529 -1.0014  1.6275
 1743TIP3   OH226643   1.284   3.759  12.705 -0.2369  0.4950 -0.7476
 1743TIP3    H126644   1.248   3.794  12.786 -1.7520  0.5876 -1.4393
 1743TIP3    H226645   1.217   3.776  12.639  1.5700  1.8452 -2.3846
 1744TIP3   OH226646   5.120   6.415  12.890 -0.3077 -0.7168  0.3131
 1744TIP3    H126647   5.147   6.452  12.974  2.3700 -0.6128 -0.4719
 1744TIP3    H226648   5.066   6.483  12.850  2.1829  1.2766  0.0950
 1745TIP3   OH226649   4.083   1.357   2.044 -0.3587  0.0881 -0.0204
 1745TIP3    H126650   4.083   1.420   2.115 -0.9447  0.6453 -0.4944
 1745TIP3    H226651   4.175   1.333   2.032 -0.1016  1.0019  0.0382
 1746TIP3   OH226652   5.957   4.510  14.427 -0.0017  0.2152  0.2734
 1746TIP3    H126653   6.027   4.572  14.449 -0.2188  1.0999 -1.3335
 1746TIP3    H226654   5.937   4.528  14.335 -2.0143 -0.3453  0.5425
 1747TIP3   OH226655   1.513   3.242  15.243 -0.0098 -1.0054  0.2295
 1747TIP3    H126656   1.556   3.295  15.176 -1.2495 -1.3560 -0.8870
 1747TIP3    H226657   1.511   3.299  15.320 -0.7226  0.3603 -0.7492
 1748TIP3   OH226658   1.678   2.446  12.252  0.1432  0.3343 -0.2278
 1748TIP3    H126659   1.771   2.432  12.267  0.2603  1.9865  0.8603
 1748TIP3    H226660   1.673   2.524  12.197 -0.5824  1.2971  1.1197
 1749TIP3   OH226661   1.012   5.402   0.515 -0.3453 -0.0000 -0.9488
 1749TIP3    H126662   0.950   5.462   0.557  0.6758  0.7696 -0.4980
 1749TIP3    H226663   1.095   5.419   0.559  0.3656 -0.4466 -2.0851
 1750TIP3   OH226664   4.269   3.880   4.121  0.3269  0.3889 -0.4491
 1750TIP3    H126665   4.282   3.786   4.106 -1.0177  0.2738 -1.0556
 1750TIP3    H226666   4.323   3.900   4.197 -0.1616 -1.0912  0.3138
 1751TIP3   OH226667   3.883   2.715   3.001  0.1983 -0.2426 -0.5187
 1751TIP3    H126668   3.882   2.811   3.000 -0.3214 -0.1534  1.7953
 1751TIP3    H226669   3.810   2.690   2.945  0.1118  0.7332 -0.8650
 1752TIP3   OH226670   4.384   3.533  13.734 -0.2953 -0.0087 -0.1437
 1752TIP3    H126671   4.347   3.460  13.783 -0.0662 -1.0585 -1.4914
 1752TIP3    H226672   4.433   3.493  13.663  0.6268  1.4417 -0.3717
 1753TIP3   OH226673   5.651   3.804  15.554 -0.4850 -0.3358 -0.1859
 1753TIP3    H126674   5.645   3.879  15.495 -1.1198 -0.6296 -0.5035
 1753TIP3    H226675   5.745   3.786  15.561 -0.4521 -1.1816 -2.2368
 1754TIP3   OH226676   2.120   0.713  12.595  0.0866 -0.3300  0.2239
 1754TIP3    H126677   2.164   0.726  12.679  1.9616  2.1377 -0.9930
 1754TIP3    H226678   2.028   0.731  12.614  0.3994 -0.2515  1.8316
 1755TIP3   OH226679   5.050   5.563   1.458 -0.6923 -0.0793 -0.6143
 1755TIP3    H126680   4.961   5.597   1.468 -0.6873  0.2846 -1.7212
 1755TIP3    H226681   5.100   5.634   1.419  0.6682  0.5260  1.9424
 1756TIP3   OH226682   5.974   1.988  17.044 -0.3537 -0.2318  0.0566
 1756TIP3    H126683   5.981   1.898  17.077 -0.5665  0.0784  0.9888
 1756TIP3    H226684   6.065   2.017  17.037 -0.2822  0.4217  2.5424
 1757TIP3   OH226685   5.658   3.692  12.805  0.6637  0.3005 -1.0803
 1757TIP3    H126686   5.711   3.676  12.727 -0.3765 -1.0953 -1.5388
 1757TIP3    H226687   5.639   3.606  12.840 -0.4159  0.8157 -0.3357
 1758TIP3   OH226688   3.708   5.242   0.747 -0.7439 -0.4390 -0.1413
 1758TIP3    H126689   3.714   5.279   0.659  0.9651  2.7341  1.1537
 1758TIP3    H226690   3.770   5.170   0.747 -0.0235  0.1433 -1.3038
 1759TIP3   OH226691   1.499   2.124  13.780  0.0953  0.1411  0.0945
 1759TIP3    H126692   1.573   2.185  13.781  3.1094 -3.1581  1.4104
 1759TIP3    H226693   1.476   2.112  13.872 -1.3847  0.2948 -0.2324
 1760TIP3   OH226694   2.013   3.324  11.606 -0.0961 -0.4229  0.1248
 1760TIP3    H126695   2.079   3.340  11.539  0.0739 -0.8958  0.1721
 1760TIP3    H226696   2.001   3.408  11.649 -0.2834 -0.0906 -0.5648
 1761TIP3   OH226697   5.694   5.236   0.908 -0.5036 -0.0941  0.1975
 1761TIP3    H126698   5.687   5.236   1.004  0.7498 -0.4716  0.3064
 1761TIP3    H226699   5.778   5.278   0.890  0.5328 -2.3663 -0.6143
 1762TIP3   OH226700   4.875   5.924   3.826  0.4442  0.3792 -0.7395
 1762TIP3    H126701   4.790   5.921   3.870  0.9985  1.7494  0.5118
 1762TIP3    H226702   4.893   6.018   3.816  1.7965  0.1135 -1.0074
 1763TIP3   OH226703   4.677   1.579   4.856  0.0122 -0.4661  0.5397
 1763TIP3    H126704   4.734   1.502   4.851  1.1256  0.3355  0.7099
 1763TIP3    H226705   4.679   1.604   4.948  1.0102  0.7604  0.2094
 1764TIP3   OH226706   1.099   6.295  16.112 -0.2668 -0.2006 -0.1356
 1764TIP3    H126707   1.184   6.317  16.150  0.2706 -0.3048 -1.2438
 1764TIP3    H226708   1.078   6.208  16.146  0.0833 -0.1836  0.1209
 1765TIP3   OH226709   0.483   3.547  15.492  0.7066 -0.3512 -0.3759
 1765TIP3    H126710   0.390   3.552  15.469  1.0209 -0.2521 -1.7136
 1765TIP3    H226711   0.486   3.483  15.563 -0.4530  0.1306  0.1303
 1766TIP3   OH226712   4.891   6.753  12.226 -0.2765 -0.0825  0.0530
 1766TIP3    H126713   4.950   6.694  12.180 -0.3881 -0.4270  0.3480
 1766TIP3    H226714   4.863   6.816  12.160 -0.9896 -0.9935 -0.5322
 1767TIP3   OH226715   3.435   3.483   0.999 -0.0526 -0.4127 -0.1541
 1767TIP3    H126716   3.373   3.556   1.004 -0.1380 -0.5623  1.7315
 1767TIP3    H226717   3.520   3.525   0.988 -0.3090 -0.1394 -1.1840
 1768TIP3   OH226718   2.925   3.827   3.722 -0.1894 -0.3038 -0.6899
 1768TIP3    H126719   2.924   3.921   3.701  0.1400 -0.1966 -0.2406
 1768TIP3    H226720   2.890   3.821   3.811 -0.0816 -0.5934 -0.6646
 1769TIP3   OH226721   0.372   4.993  12.352 -0.3010 -0.0635  0.2264
 1769TIP3    H126722   0.341   5.062  12.293  0.5319 -0.9749 -1.3362
 1769TIP3    H226723   0.415   5.041  12.423 -2.3734  1.0880  0.7602
 1770TIP3   OH226724   0.554   1.785   3.338 -0.2695  0.1799 -0.1844
 1770TIP3    H126725   0.558   1.793   3.434 -0.1958  2.2494 -0.3174
 1770TIP3    H226726   0.624   1.842   3.306  0.4600 -1.3554 -1.4905
 1771TIP3   OH226727   2.717   6.576  13.160 -0.0548 -0.1524  0.6174
 1771TIP3    H126728   2.638   6.624  13.186 -0.5208 -1.3585  1.5287
 1771TIP3    H226729   2.703   6.556  13.068 -1.1211 -0.8634  0.9084
 1772TIP3   OH226730   0.386   6.199  12.620  0.5527  0.1114  0.0544
 1772TIP3    H126731   0.356   6.143  12.548  2.2246  0.1469 -0.7174
 1772TIP3    H226732   0.460   6.152  12.657  0.7383  0.8843  0.6899
 1773TIP3   OH226733   1.773   2.648  14.628  0.8195 -0.9289  0.1343
 1773TIP3    H126734   1.862   2.616  14.645  0.7150 -0.9601  0.6524
 1773TIP3    H226735   1.716   2.574  14.647  0.6370 -0.6973  0.5177
 1774TIP3   OH226736   2.840   5.724  11.993  0.0017 -0.3714  0.1170
 1774TIP3    H126737   2.920   5.749  12.040 -0.5502 -0.9787  1.4177
 1774TIP3    H226738   2.867   5.719  11.901  0.9270  1.6596  0.2168
 1775TIP3   OH226739   5.208   0.147   1.966 -0.0936 -0.1733  0.1117
 1775TIP3    H126740   5.296   0.174   1.940 -0.5415  0.1403 -1.1411
 1775TIP3    H226741   5.218   0.056   1.992  0.6215 -0.1190  0.0527
 1776TIP3   OH226742   1.782   1.519   2.613 -0.3723  0.2727  0.3298
 1776TIP3    H126743   1.784   1.598   2.558 -1.9350  0.8704  1.0647
 1776TIP3    H226744   1.834   1.455   2.564  0.1504  1.4634 -0.7462
 1777TIP3   OH226745   4.423   3.293  10.983  0.6682  0.9052 -0.1935
 1777TIP3    H126746   4.331   3.266  10.978  0.6905  0.3197  1.8237
 1777TIP3    H226747   4.457   3.276  10.896 -1.2933  1.8196 -1.2223
 1778TIP3   OH226748   4.439   6.626  11.449  0.0326  0.0674  0.0064
 1778TIP3    H126749   4.346   6.648  11.442  0.4751  1.9226 -0.4644
 1778TIP3    H226750   4.466   6.609  11.359  0.2057 -0.2180  0.1131
 1779TIP3   OH226751   6.718   3.150   5.559 -0.4641  0.0536  0.6591
 1779TIP3    H126752   6.760   3.236   5.551  0.3508 -0.0230  3.1823
 1779TIP3    H226753   6.762   3.095   5.494  0.5434  1.0125  0.5127
 1780TIP3   OH226754   1.560   5.907  16.902  0.0077 -0.2661 -0.3686
 1780TIP3    H126755   1.484   5.960  16.876 -0.6621 -0.4097  1.1507
 1780TIP3    H226756   1.636   5.954  16.869 -0.2646  3.5374  3.5752
 1781TIP3   OH226757   3.586   3.762   0.760  1.0168 -0.1900 -0.1403
 1781TIP3    H126758   3.514   3.757   0.697  1.7746 -0.0822 -1.0414
 1781TIP3    H226759   3.615   3.853   0.757  1.3221 -0.2760  0.0613
 1782TIP3   OH226760   4.970   5.854   5.517 -0.3439 -0.1784 -0.2473
 1782TIP3    H126761   4.881   5.890   5.510 -0.0479  0.4490 -0.9534
 1782TIP3    H226762   4.993   5.831   5.427 -0.7380 -2.7417  0.2536
 1783TIP3   OH226763   1.468   4.279   5.559 -0.6494  0.3464 -0.5497
 1783TIP3    H126764   1.516   4.348   5.605 -0.3968  0.2664 -0.6921
 1783TIP3    H226765   1.519   4.200   5.575 -1.8434 -0.1469  1.0365
 1784TIP3   OH226766   1.610   0.948   4.876  0.4645 -0.5995  0.0800
 1784TIP3    H126767   1.701   0.926   4.898  0.1206 -0.6445  1.6076
 1784TIP3    H226768   1.587   0.888   4.806  2.0289  0.3306 -1.3228
 1785TIP3   OH226769   1.261   5.192  15.259 -0.6518  0.0777 -0.3097
 1785TIP3    H126770   1.225   5.229  15.178 -1.4536 -0.9652 -0.4510
 1785TIP3    H226771   1.187   5.149  15.300 -0.3278  0.8851  1.1725
 1786TIP3   OH226772   5.610   1.546  14.506  0.2870  0.0076  0.0658
 1786TIP3    H126773   5.599   1.637  14.476 -0.6179 -0.2185 -0.3379
 1786TIP3    H226774   5.556   1.495  14.446  0.0045 -0.6930  0.8998
 1787TIP3   OH226775   3.907   1.819  13.005  0.3841  0.0537  0.2621
 1787TIP3    H126776   3.988   1.775  12.981  0.8312 -0.0242  1.8408
 1787TIP3    H226777   3.924   1.856  13.092 -0.8936  0.9973  0.1424
 1788TIP3   OH226778   6.119   6.140   0.642  0.1413 -0.1688 -0.0726
 1788TIP3    H126779   6.116   6.179   0.555  1.2993 -2.4061 -1.1942
 1788TIP3    H226780   6.039   6.087   0.648  0.8334 -1.2804 -0.4414
 1789TIP3   OH226781   2.793   1.187  15.134  0.0179 -0.3299  0.2901
 1789TIP3    H126782   2.822   1.273  15.164 -0.3149 -1.0365  2.9063
 1789TIP3    H226783   2.726   1.206  15.068  0.5365  1.4000  0.2230
 1790TIP3   OH226784   0.884   2.891   0.197 -0.9042 -0.3710 -0.2611
 1790TIP3    H126785   0.898   2.796   0.192  0.2694 -0.4610  2.6650
 1790TIP3    H226786   0.961   2.928   0.155 -0.7894 -0.7273 -0.3732
 1791TIP3   OH226787   5.047   0.454   4.493  0.1248 -0.2230  0.3201
 1791TIP3    H126788   5.075   0.510   4.565  2.3455 -1.4086  0.4641
 1791TIP3    H226789   5.011   0.376   4.535 -0.5192 -0.0297  0.1350
 1792TIP3   OH226790   5.376   6.785   5.581 -0.5853  0.2704  0.2471
 1792TIP3    H126791   5.366   6.874   5.547  1.1796 -0.0248 -1.2003
 1792TIP3    H226792   5.458   6.753   5.542 -0.2665 -1.3864  2.0890
 1793TIP3   OH226793   3.448   6.059  10.509  0.1896  0.1275  0.2113
 1793TIP3    H126794   3.529   6.062  10.459 -0.6322  0.5000 -1.1569
 1793TIP3    H226795   3.412   5.972  10.489 -0.2708  0.3793 -0.0719
 1794TIP3   OH226796   4.398   5.945   1.234  0.4616 -0.0762 -0.5013
 1794TIP3    H126797   4.417   5.984   1.318  0.9640  1.5908 -1.3493
 1794TIP3    H226798   4.456   5.990   1.172  0.3327 -1.4648 -1.6958
 1795TIP3   OH226799   5.103   2.926  13.690  0.4279 -0.0627 -0.2362
 1795TIP3    H126800   5.035   2.867  13.658  0.6929 -0.9988  0.8680
 1795TIP3    H226801   5.056   2.995  13.736  0.1233  0.5514 -1.4277
 1796TIP3   OH226802   2.966   2.824  14.611 -0.1738  0.1569 -0.1399
 1796TIP3    H126803   2.891   2.860  14.659 -1.0174 -0.3553 -1.0396
 1796TIP3    H226804   3.020   2.900  14.590  0.2482  0.3962  1.6386
 1797TIP3   OH226805   0.873   3.741  17.123  0.3641  0.0023 -0.0406
 1797TIP3    H126806   0.793   3.772  17.080  1.4339  0.3253 -1.8633
 1797TIP3    H226807   0.864   3.646  17.123 -0.1665  0.0477  0.0776
 1798TIP3   OH226808   4.448   5.124  15.890 -0.1703 -0.1946  0.3328
 1798TIP3    H126809   4.499   5.152  15.966 -0.0925 -0.6370  0.4504
 1798TIP3    H226810   4.465   5.189  15.823 -0.4169  0.3281  0.7707
 1799TIP3   OH226811   4.914   0.989  14.982 -0.1958 -0.4691  0.0211
 1799TIP3    H126812   4.925   0.894  14.993  0.8518 -0.2855  0.6841
 1799TIP3    H226813   5.000   1.025  15.000 -0.8083  0.7018  0.7015
 1800TIP3   OH226814   4.516   0.911  14.542  0.0414  0.6714  0.1678
 1800TIP3    H126815   4.481   0.938  14.626  0.0535  2.0727 -0.2529
 1800TIP3    H226816   4.611   0.923  14.550  0.5019 -2.7386  1.1751
 1801TIP3   OH226817   1.411   5.747  11.802  0.1372 -0.5174  0.5892
 1801TIP3    H126818   1.458   5.828  11.784 -1.7971  0.2701 -1.3242
 1801TIP3    H226819   1.405   5.744  11.898  0.7451  1.2999  0.7290
 1802TIP3   OH226820   4.131   3.515  11.052  0.4424 -0.0141 -0.0700
 1802TIP3    H126821   4.203   3.557  11.005  1.1216 -0.5377  0.4836
 1802TIP3    H226822   4.138   3.422  11.030  0.4759 -0.1969  0.6704
 1803TIP3   OH226823   5.605   2.041  12.492 -0.1904  0.4788 -0.2823
 1803TIP3    H126824   5.691   2.077  12.470 -0.2120  0.0257 -1.1224
 1803TIP3    H226825   5.611   2.021  12.586  0.9195 -0.3655 -0.5138
 1804TIP3   OH226826   5.444   6.639  13.949 -0.0568  0.0829  0.6842
 1804TIP3    H126827   5.408   6.678  14.028 -1.9123 -0.4337  0.1322
 1804TIP3    H226828   5.475   6.714  13.897  0.0352  0.5039  1.3397
 1805TIP3   OH226829   3.209   6.286   5.795 -0.1366  0.3605 -0.3795
 1805TIP3    H126830   3.161   6.264   5.715 -0.2439  0.0529 -0.2279
 1805TIP3    H226831   3.226   6.202   5.837 -0.2863  0.5451  0.0446
 1806TIP3   OH226832   3.227   1.173  17.167 -0.8143  0.0929  0.0857
 1806TIP3    H126833   3.210   1.202  17.078  0.3914 -1.5459 -0.7249
 1806TIP3    H226834   3.247   1.080  17.159  2.2089  0.4680  1.6236
 1807TIP3   OH226835   6.610   5.500  16.483  0.2591  0.5524  0.6555
 1807TIP3    H126836   6.649   5.454  16.409 -0.5838  1.4453 -0.3937
 1807TIP3    H226837   6.619   5.441  16.557  0.6451 -0.5951 -0.2867
 1808TIP3   OH226838   2.948   0.158  17.104 -0.1599  0.5285 -0.1045
 1808TIP3    H126839   2.873   0.218  17.104  0.4760  1.4010 -1.9111
 1808TIP3    H226840   3.022   0.214  17.127  0.3055  0.2177 -0.8374
 1809TIP3   OH226841   5.644   4.717  13.530  0.3114 -0.2894  0.0220
 1809TIP3    H126842   5.701   4.660  13.479  0.9268 -1.0916  1.5267
 1809TIP3    H226843   5.689   4.802  13.530  1.8214 -1.0251  1.5601
 1810TIP3   OH226844   1.797   5.710  14.970  0.6497  0.3847 -0.1253
 1810TIP3    H126845   1.793   5.618  14.944  1.5835  0.5196 -0.7766
 1810TIP3    H226846   1.873   5.715  15.028 -0.0621  0.5369  0.8081
 1811TIP3   OH226847   2.481   4.082  12.671  0.0079  0.6118  0.8991
 1811TIP3    H126848   2.532   4.129  12.737 -0.3335  0.2215  1.4448
 1811TIP3    H226849   2.507   3.990  12.682  2.4576  0.8355 -1.6957
 1812TIP3   OH226850   5.247   5.077   3.720  0.5642 -0.3706 -0.2069
 1812TIP3    H126851   5.303   5.042   3.651 -2.5639  0.0409 -3.2201
 1812TIP3    H226852   5.236   5.169   3.699 -0.7029 -0.2935  0.6228
 1813TIP3   OH226853   6.540   4.556   3.882 -0.0865  0.5042  0.4644
 1813TIP3    H126854   6.617   4.584   3.832 -0.6533  2.6439  0.6940
 1813TIP3    H226855   6.573   4.486   3.938  1.2814  0.1904 -0.6580
 1814TIP3   OH226856   0.249   2.441   5.929 -0.4274  0.0944 -0.7146
 1814TIP3    H126857   0.232   2.355   5.968 -0.5069  0.9203  1.1749
 1814TIP3    H226858   0.201   2.503   5.984  3.8847  1.9534  1.4249
 1815TIP3   OH226859   4.076   0.878  15.441  0.1105  0.5073  0.5223
 1815TIP3    H126860   4.106   0.879  15.350  1.9123 -0.1593  1.0672
 1815TIP3    H226861   4.073   0.970  15.467  1.9139  0.6063  0.4817
 1816TIP3   OH226862   3.202   3.095   3.104  0.3086 -0.0809  0.7449
 1816TIP3    H126863   3.142   3.168   3.121  0.0718  0.0622 -0.5931
 1816TIP3    H226864   3.288   3.136   3.095 -0.0608  0.3089 -1.6901
 1817TIP3   OH226865   2.435   0.613  13.953  0.6336 -1.0338  0.2755
 1817TIP3    H126866   2.347   0.647  13.965 -0.2613 -3.0053 -0.2066
 1817TIP3    H226867   2.481   0.681  13.904 -0.5274  0.1423  0.7533
 1818TIP3   OH226868   5.684   4.122   0.006 -0.4540  0.0709  0.9416
 1818TIP3    H126869   5.603   4.148   0.049 -0.5259 -0.8894  1.4170
 1818TIP3    H226870   5.702   4.034   0.040  0.7666  0.2544  0.8139
 1819TIP3   OH226871   4.044   2.450  13.572 -0.1300 -0.0745 -0.5953
 1819TIP3    H126872   3.979   2.518  13.592  0.8432  0.7490 -0.1483
 1819TIP3    H226873   4.084   2.478  13.490 -0.7005 -0.8651 -1.1558
 1820TIP3   OH226874   5.977   0.976  16.979  0.1881 -0.3284  0.3087
 1820TIP3    H126875   6.038   0.947  16.911  0.3372 -0.3058  0.4359
 1820TIP3    H226876   5.993   0.918  17.053 -0.4103 -0.7654  0.1098
 1821TIP3   OH226877   3.453   6.515   2.115  0.1999  0.3559  0.5162
 1821TIP3    H126878   3.433   6.445   2.178  0.6264  0.3344  0.6320
 1821TIP3    H226879   3.454   6.472   2.030 -0.9534  0.4897  0.4149
 1822TIP3   OH226880   2.615   5.549   2.693 -0.0290  0.3804 -0.0271
 1822TIP3    H126881   2.620   5.644   2.707 -0.7615  0.6760 -1.5790
 1822TIP3    H226882   2.533   5.536   2.645 -0.6981 -1.2270  1.4592
 1823TIP3   OH226883   2.713   5.407   5.381  0.1804  0.0818 -0.5857
 1823TIP3    H126884   2.621   5.388   5.364 -0.1081 -0.1018  1.0136
 1823TIP3    H226885   2.760   5.355   5.316 -0.8164 -0.7567 -0.6734
 1824TIP3   OH226886   1.813   0.950  12.146  0.2706 -0.5087  0.0891
 1824TIP3    H126887   1.803   0.964  12.052  0.4350 -0.5519  0.0655
 1824TIP3    H226888   1.837   1.036  12.181 -0.6194 -0.2902  0.2119
 1825TIP3   OH226889   6.584   1.555  11.324 -0.1535  0.2054  0.1138
 1825TIP3    H126890   6.627   1.636  11.295 -0.8168  0.5433  0.0553
 1825TIP3    H226891   6.644   1.517  11.388 -0.7386  1.7828  1.6843
 1826TIP3   OH226892   0.745   5.356   1.661 -0.7720 -0.3146  0.0421
 1826TIP3    H126893   0.744   5.357   1.756  1.5642  1.8005  0.1282
 1826TIP3    H226894   0.659   5.390   1.635 -0.9921  0.1966  1.4006
 1827TIP3   OH226895   3.047   6.757   0.979  0.3094 -0.8103  0.2755
 1827TIP3    H126896   3.004   6.843   0.982 -0.9504 -1.4169  3.0863
 1827TIP3    H226897   2.984   6.700   0.936  0.6926 -0.5801 -0.6140
 1828TIP3   OH226898   4.791   0.717  15.786 -0.4937 -0.5850  0.1950
 1828TIP3    H126899   4.705   0.712  15.745 -0.6912  0.0480  0.5197
 1828TIP3    H226900   4.853   0.712  15.714 -0.8148 -0.5278 -0.0875
 1829TIP3   OH226901   0.564   4.890   3.090 -0.2439 -0.2774 -0.3640
 1829TIP3    H126902   0.608   4.827   3.147  0.5478  0.0341 -0.6128
 1829TIP3    H226903   0.501   4.933   3.147 -0.1369 -0.6467  0.0407
 1830TIP3   OH226904   0.346   3.576  11.040  0.0249  0.5673 -0.1187
 1830TIP3    H126905   0.315   3.582  11.130  1.0418  2.8813  0.1482
 1830TIP3    H226906   0.438   3.553  11.048 -0.1308 -0.2491 -0.6263
 1831TIP3   OH226907   1.655   1.667  13.993 -0.4884  0.3516 -0.2797
 1831TIP3    H126908   1.732   1.710  13.957 -1.2049  0.6390 -1.5351
 1831TIP3    H226909   1.682   1.637  14.079 -0.1422  3.9395  1.0344
 1832TIP3   OH226910   2.996   1.111  14.426  0.1517 -0.1024 -0.2569
 1832TIP3    H126911   3.061   1.086  14.360 -0.5785 -1.0742 -0.6287
 1832TIP3    H226912   3.030   1.075  14.507  0.2402 -0.3350 -0.3944
 1833TIP3   OH226913   1.257   6.256  14.343 -0.2453 -0.6627 -0.1732
 1833TIP3    H126914   1.245   6.242  14.437  1.7905 -2.0178 -0.0461
 1833TIP3    H226915   1.287   6.347  14.335 -0.9816 -0.3619  0.4097
 1834TIP3   OH226916   3.043   3.758   4.120  0.0063  0.2469 -0.1824
 1834TIP3    H126917   2.973   3.754   4.055  0.8567 -2.1903 -1.0176
 1834TIP3    H226918   3.108   3.817   4.081 -0.7819  1.1770 -0.1501
 1835TIP3   OH226919   1.117   5.459  17.166  0.3339 -0.0867  0.3846
 1835TIP3    H126920   1.088   5.499  17.084  1.7027  1.2658  0.5084
 1835TIP3    H226921   1.204   5.425  17.146  0.1922 -0.8001  0.9621
 1836TIP3   OH226922   0.685   2.842   6.415  0.3828  0.4364 -0.0501
 1836TIP3    H126923   0.672   2.937   6.409 -0.6545  0.4280  1.5504
 1836TIP3    H226924   0.605   2.805   6.376  0.9307  0.1865 -0.9788
 1837TIP3   OH226925   5.058   4.530   2.024  0.6038  0.2208  0.1714
 1837TIP3    H126926   5.020   4.541   1.937  1.2514  2.2848  0.0890
 1837TIP3    H226927   4.986   4.498   2.078 -0.2614  0.5448 -0.7619
 1838TIP3   OH226928   2.180   0.645   3.578 -0.0144 -0.1868  0.0053
 1838TIP3    H126929   2.234   0.574   3.614 -0.8894 -0.7792  0.1660
 1838TIP3    H226930   2.101   0.646   3.632 -0.6655 -0.0680 -0.9292
 1839TIP3   OH226931   4.464   1.232   1.426  0.7024  0.0293 -0.1134
 1839TIP3    H126932   4.406   1.251   1.352  1.6270  0.2804 -0.7779
 1839TIP3    H226933   4.432   1.148   1.460 -1.2857  1.0582  0.7596
 1840TIP3   OH226934   1.607   5.882  12.766 -0.2364  0.2870  0.1681
 1840TIP3    H126935   1.656   5.868  12.848  1.5762  2.5845 -0.4437
 1840TIP3    H226936   1.516   5.891  12.795  0.2098 -0.0002  1.8158
 1841TIP3   OH226937   6.424   3.677   1.538  0.1199 -0.2942 -0.0066
 1841TIP3    H126938   6.408   3.628   1.619  2.6672 -3.3942 -1.1837
 1841TIP3    H226939   6.500   3.732   1.559  1.6881 -2.1475 -0.5709
 1842TIP3   OH226940   1.655   3.293   1.458  0.2203 -0.4340 -0.0198
 1842TIP3    H126941   1.625   3.241   1.533 -2.2373  0.8277 -0.0183
 1842TIP3    H226942   1.672   3.380   1.495 -0.1509 -0.0380 -0.7543
 1843TIP3   OH226943   5.349   5.206  15.774  0.3289 -0.1166 -0.0101
 1843TIP3    H126944   5.270   5.256  15.756  0.0450 -0.6772 -0.3364
 1843TIP3    H226945   5.387   5.187  15.688  0.2602 -0.7353  0.0881
 1844TIP3   OH226946   6.641   2.802   5.286  0.2500  0.0010 -0.0721
 1844TIP3    H126947   6.566   2.783   5.229 -0.0777 -0.8910  0.6330
 1844TIP3    H226948   6.646   2.727   5.345  2.0218 -0.1847 -0.4201
 1845TIP3   OH226949   5.281   0.730  10.973 -0.4550  0.1298  0.1420
 1845TIP3    H126950   5.245   0.790  10.908 -2.3636  0.6174  1.5315
 1845TIP3    H226951   5.318   0.787  11.040  0.0859 -0.3206  0.2329
 1846TIP3   OH226952   4.133   3.697  14.793 -0.3693  0.5592 -0.0114
 1846TIP3    H126953   4.144   3.657  14.879  1.2117  0.8271 -0.0500
 1846TIP3    H226954   4.131   3.623  14.733  3.4822  0.3685 -0.1813
 1847TIP3   OH226955   6.555   0.084  15.455  0.6395 -0.5299  0.1195
 1847TIP3    H126956   6.542   0.151  15.388 -0.5934 -0.1438  0.7231
 1847TIP3    H226957   6.627   0.031  15.422  0.1283 -0.2822 -1.4593
 1848TIP3   OH226958   0.385   2.162   3.529 -0.3089 -0.2755 -0.0260
 1848TIP3    H126959   0.323   2.097   3.495 -1.5009  0.1474  1.2529
 1848TIP3    H226960   0.437   2.187   3.453 -0.4031 -2.0635 -0.7354
 1849TIP3   OH226961   3.807   1.685   5.165 -0.4938  0.1275  0.3026
 1849TIP3    H126962   3.879   1.642   5.212  0.0784  1.1376  0.3831
 1849TIP3    H226963   3.756   1.728   5.233  0.0751  1.2079  0.0713
 1850TIP3   OH226964   5.059   1.540  15.437  0.6265 -0.3946  0.6562
 1850TIP3    H126965   5.132   1.503  15.388 -0.4410 -0.3569 -1.0484
 1850TIP3    H226966   5.016   1.599  15.374 -0.0669  0.6375  2.0532
 1851TIP3   OH226967   5.367   2.658  15.617 -0.3172 -0.1800 -0.3332
 1851TIP3    H126968   5.303   2.640  15.549 -0.1122 -1.1661 -0.2802
 1851TIP3    H226969   5.452   2.637  15.576 -0.1667 -0.4391  0.1067
 1852TIP3   OH226970   6.161   1.065   6.426  0.2740 -0.9074 -0.3473
 1852TIP3    H126971   6.081   1.061   6.479 -1.5228 -0.0656 -2.8103
 1852TIP3    H226972   6.210   1.138   6.464 -1.1495 -0.0592 -0.0310
 1853TIP3   OH226973   1.052   5.119  11.971  0.1715  0.9242 -0.4447
 1853TIP3    H126974   1.084   5.093  11.885  2.1072  2.4741 -0.2764
 1853TIP3    H226975   1.128   5.161  12.012 -1.3535  2.2559  1.1398
 1854TIP3   OH226976   3.544   2.847   5.610  0.2519  0.3612  0.3237
 1854TIP3    H126977   3.556   2.766   5.659  0.8533  0.3675  0.1959
 1854TIP3    H226978   3.585   2.914   5.664  1.3658  0.2886 -0.4000
 1855TIP3   OH226979   1.276   5.930  12.122 -0.0149  0.3778 -0.4466
 1855TIP3    H126980   1.186   5.962  12.130  0.0818  0.5938 -0.1738
 1855TIP3    H226981   1.330   6.005  12.149  0.1722 -0.5953  2.2421
 1856TIP3   OH226982   4.429   2.686   6.574  0.0062 -0.8815 -0.4416
 1856TIP3    H126983   4.431   2.780   6.556  0.4079 -0.4475  1.6150
 1856TIP3    H226984   4.482   2.647   6.505 -0.2361  0.3721 -1.3811
 1857TIP3   OH226985   3.074   3.754   4.890  0.2815  0.3913  0.3568
 1857TIP3    H126986   2.980   3.744   4.903  0.6338 -0.8522  2.3373
 1857TIP3    H226987   3.089   3.849   4.897 -0.3391  0.3656  4.6373
 1858TIP3   OH226988   4.976   1.801   1.482  0.4166 -0.2044 -0.4036
 1858TIP3    H126989   4.930   1.726   1.445  0.1324 -0.4522  0.4267
 1858TIP3    H226990   4.960   1.872   1.420 -0.2744 -0.5366 -0.6180
 1859TIP3   OH226991   0.185   6.383  11.788 -0.0462  0.3349 -0.1520
 1859TIP3    H126992   0.151   6.308  11.837  1.3527 -0.4805 -0.3808
 1859TIP3    H226993   0.107   6.425  11.752 -0.9834  0.0209  1.4151
 1860TIP3   OH226994   4.909   6.432  13.204  0.2047  0.2474 -0.1058
 1860TIP3    H126995   4.866   6.497  13.259  0.5031  0.0808  0.3289
 1860TIP3    H226996   4.971   6.482  13.151 -1.5658  0.7180 -1.8539
 1861TIP3   OH226997   1.823   3.709  11.228 -0.2557 -0.3619  0.3765
 1861TIP3    H126998   1.847   3.617  11.218 -0.2183 -0.8385  3.6274
 1861TIP3    H226999   1.759   3.725  11.159  0.1854 -2.6419 -0.6579
 1862TIP3   OH227000   5.714   3.985   3.857  0.3893  0.6259  0.1792
 1862TIP3    H127001   5.670   4.069   3.845 -1.1417 -0.3707 -1.6845
 1862TIP3    H227002   5.665   3.942   3.927 -0.0382  0.5082 -0.1940
 1863TIP3   OH227003   4.009   5.935  13.549 -0.3098 -0.6259 -0.2086
 1863TIP3    H127004   3.956   5.967  13.477  0.0656 -1.6203 -0.9455
 1863TIP3    H227005   4.097   5.926  13.513 -0.3705 -2.3674 -0.0475
 1864TIP3   OH227006   6.545   2.385   4.986 -0.2768 -0.3031  0.7738
 1864TIP3    H127007   6.451   2.373   4.978 -0.5902  0.0823  3.1717
 1864TIP3    H227008   6.562   2.468   4.941 -1.6465  1.2244  2.8514
 1865TIP3   OH227009   0.318   1.437  13.955 -0.0136 -0.3801  0.0341
 1865TIP3    H127010   0.389   1.403  14.011  1.1309  1.2425 -0.3491
 1865TIP3    H227011   0.364   1.478  13.882 -1.3943  0.2288 -0.5107
 1866TIP3   OH227012   0.469   2.128  14.530 -0.0491 -0.1797 -0.0778
 1866TIP3    H127013   0.428   2.201  14.576 -1.5259 -1.4216  0.6888
 1866TIP3    H227014   0.455   2.147  14.437  0.9499  1.2383  0.0375
 1867TIP3   OH227015   6.740   0.724   4.821  0.5366 -0.0587  0.1406
 1867TIP3    H127016   6.663   0.672   4.799  0.4945  0.2343 -0.4231
 1867TIP3    H227017   6.795   0.665   4.872 -1.0224  0.3680  2.5094
 1868TIP3   OH227018   2.961   6.620   1.847  0.3116 -0.2424  0.3463
 1868TIP3    H127019   2.988   6.710   1.832  0.7531 -0.3963  0.2068
 1868TIP3    H227020   3.040   6.568   1.835  0.6748 -0.4187  2.9110
 1869TIP3   OH227021   1.356   5.319  16.114 -0.2170 -0.0692 -0.7658
 1869TIP3    H127022   1.261   5.328  16.124 -0.2347  1.1725 -1.8722
 1869TIP3    H227023   1.370   5.308  16.020  0.8145  1.1512 -0.7830
 1870TIP3   OH227024   1.235   3.571  11.384  0.1481 -0.3096  0.2241
 1870TIP3    H127025   1.279   3.655  11.396 -0.9783  0.3702 -0.2957
 1870TIP3    H227026   1.196   3.553  11.469  1.7312 -1.1257  0.8192
 1871TIP3   OH227027   2.410   4.274  13.137  0.1052 -0.1486  0.3559
 1871TIP3    H127028   2.407   4.189  13.182 -0.8356  0.1279  0.8589
 1871TIP3    H227029   2.450   4.334  13.200 -1.3357  0.2697  0.9180
 1872TIP3   OH227030   1.779   5.026   6.494 -0.3304  0.3195 -0.1976
 1872TIP3    H127031   1.829   5.042   6.414  0.2885 -1.2566 -0.1630
 1872TIP3    H227032   1.778   4.930   6.503  1.3596  0.4686  2.7458
 1873TIP3   OH227033   0.697   5.289   5.359  0.0840  0.0436  0.0635
 1873TIP3    H127034   0.692   5.356   5.427  3.0847 -2.0712  2.6507
 1873TIP3    H227035   0.633   5.223   5.385  1.4994 -0.9480  1.1810
 1874TIP3   OH227036   2.353   0.653  15.765  0.4258  0.0920  0.1774
 1874TIP3    H127037   2.440   0.630  15.731  1.9471  0.4197  3.4423
 1874TIP3    H227038   2.344   0.746  15.747  1.5002  0.4079  1.1113
 1875TIP3   OH227039   3.979   0.206   4.534  0.2017 -0.3774 -0.2224
 1875TIP3    H127040   3.892   0.184   4.503  0.9215 -2.2472 -1.0564
 1875TIP3    H227041   4.036   0.139   4.496  1.7338 -0.3834  1.8917
 1876TIP3   OH227042   2.982   1.110  16.819  0.0736 -0.6495 -0.6302
 1876TIP3    H127043   2.911   1.080  16.876 -0.0884  1.3181  0.3043
 1876TIP3    H227044   3.034   1.169  16.875  0.6843  0.3170 -2.1433
 1877TIP3   OH227045   1.223   1.312   5.378 -0.4215  0.0819 -0.0864
 1877TIP3    H127046   1.277   1.262   5.438 -1.7191 -1.4424 -0.1315
 1877TIP3    H227047   1.244   1.403   5.397  0.5173 -0.4138  1.4081
 1878TIP3   OH227048   6.670   2.578   1.397 -0.0036 -0.5807 -0.0478
 1878TIP3    H127049   6.595   2.568   1.455  0.6411 -1.1218  0.7123
 1878TIP3    H227050   6.745   2.551   1.450  0.9713  1.6184 -0.2292
 1879TIP3   OH227051   2.582   0.767  11.290  0.2689 -0.2754  0.0688
 1879TIP3    H127052   2.554   0.738  11.203 -1.0313 -1.5094  0.8456
 1879TIP3    H227053   2.500   0.791  11.334  1.0166  1.4954  0.5797
 1880TIP3   OH227054   0.581   4.704  13.432  0.6144  0.0337 -0.3978
 1880TIP3    H127055   0.488   4.727  13.424  0.3729 -0.0730  1.4821
 1880TIP3    H227056   0.628   4.784  13.409  0.0588  0.1743 -1.0914
 1881TIP3   OH227057   2.319   3.489   0.868 -0.6077  0.4195  0.1494
 1881TIP3    H127058   2.296   3.478   0.776  1.7536  2.4682 -0.8043
 1881TIP3    H227059   2.273   3.569   0.895  0.0299  0.7724  0.2181
 1882TIP3   OH227060   2.605   4.706   2.218 -0.0213  0.2081  0.0134
 1882TIP3    H127061   2.622   4.612   2.216 -0.1738  0.1737  0.3942
 1882TIP3    H227062   2.577   4.727   2.129  1.1647  0.1077 -0.4110
 1883TIP3   OH227063   4.247   6.609  11.771 -0.5754  0.1521 -0.5377
 1883TIP3    H127064   4.177   6.608  11.706 -0.8784  0.6447 -0.2242
 1883TIP3    H227065   4.210   6.563  11.847 -0.1912 -0.5024 -0.7362
 1884TIP3   OH227066   2.661   1.443   2.201 -0.3812  0.3396  0.3890
 1884TIP3    H127067   2.692   1.367   2.152 -0.3391  0.1349  0.7315
 1884TIP3    H227068   2.675   1.517   2.141  1.9138  0.4387  0.9430
 1885TIP3   OH227069   5.951   2.853   4.123  0.0462 -0.0737 -0.4230
 1885TIP3    H127070   6.034   2.861   4.169  0.0997  0.5178 -0.6276
 1885TIP3    H227071   5.894   2.918   4.165 -0.4915 -0.8546  0.1001
 1886TIP3   OH227072   3.191   0.957  12.447 -0.0736  0.5021  0.3105
 1886TIP3    H127073   3.226   0.937  12.533  0.0143  0.6262  0.3051
 1886TIP3    H227074   3.107   0.912  12.443  0.5890 -0.7517 -0.1022
 1887TIP3   OH227075   3.396   6.672   3.088 -0.8236 -0.1365  0.4723
 1887TIP3    H127076   3.378   6.609   3.158  1.0356 -1.2465 -0.0062
 1887TIP3    H227077   3.491   6.677   3.083 -0.8993  2.1693 -0.0315
 1888TIP3   OH227078   0.182   4.993   2.758 -0.5370 -0.2339  0.1642
 1888TIP3    H127079   0.189   4.938   2.680 -1.4494 -1.0201  0.6081
 1888TIP3    H227080   0.264   5.042   2.761 -1.2504  1.2459 -2.3413
 1889TIP3   OH227081   2.929   0.924   5.420 -0.0352 -0.5171  0.7066
 1889TIP3    H127082   3.005   0.954   5.370 -0.3982 -1.7790 -0.6842
 1889TIP3    H227083   2.960   0.919   5.510  0.8736  1.0875  0.5242
 1890TIP3   OH227084   4.793   1.067   4.172  0.0458 -0.1990  0.2729
 1890TIP3    H127085   4.884   1.078   4.143 -0.1450 -0.1119 -0.2955
 1890TIP3    H227086   4.801   1.036   4.262  0.6562 -1.0910 -0.0732
 1891TIP3   OH227087   6.403   3.691  15.673 -0.4246 -0.0147 -0.2820
 1891TIP3    H127088   6.376   3.703  15.763 -2.0904  0.3244 -0.7952
 1891TIP3    H227089   6.417   3.597  15.664 -3.0629 -0.4662 -0.3626
 1892TIP3   OH227090   3.490   4.132  11.368  0.0162 -0.9985  0.1625
 1892TIP3    H127091   3.561   4.175  11.320 -0.0360  1.4714  2.1621
 1892TIP3    H227092   3.410   4.172  11.333 -0.1080 -0.4278  1.0677
 1893TIP3   OH227093   4.526   0.522   4.692  0.6955 -0.2381  0.1489
 1893TIP3    H127094   4.529   0.604   4.643 -0.4508 -0.2649  0.0073
 1893TIP3    H227095   4.439   0.522   4.734  0.7055 -1.3417  0.2047
 1894TIP3   OH227096   4.129   4.564   4.539  0.2172  0.0136 -0.7019
 1894TIP3    H127097   4.127   4.549   4.444 -2.0845 -1.0246 -0.5792
 1894TIP3    H227098   4.162   4.481   4.575 -0.9402 -0.3889 -0.5324
 1895TIP3   OH227099   3.550   2.277   3.625 -0.2285  0.0090  0.5854
 1895TIP3    H127100   3.631   2.258   3.672  1.6700  2.3024 -1.5303
 1895TIP3    H227101   3.535   2.199   3.571  1.8043  0.3610 -0.5744
 1896TIP3   OH227102   3.618   5.547  12.420  0.2775  0.8519  0.2199
 1896TIP3    H127103   3.602   5.605  12.494 -1.7306 -0.4292  0.8753
 1896TIP3    H227104   3.546   5.565  12.359 -0.3373 -0.8306  0.3997
 1897TIP3   OH227105   0.380   6.128  16.573 -0.2630 -0.4347  0.0687
 1897TIP3    H127106   0.336   6.069  16.512 -0.4753 -0.3294  0.1170
 1897TIP3    H227107   0.328   6.122  16.653 -0.8434  0.5277 -0.2201
 1898TIP3   OH227108   2.253   0.812   3.334  0.2910  0.4246  0.2527
 1898TIP3    H127109   2.161   0.830   3.312  0.4580  1.7732  0.5635
 1898TIP3    H227110   2.250   0.781   3.425  0.1137  0.1460  0.1520
 1899TIP3   OH227111   3.655   6.384   4.182 -0.5665 -0.4335 -0.3578
 1899TIP3    H127112   3.562   6.373   4.201 -0.6917 -1.7426 -1.5846
 1899TIP3    H227113   3.657   6.422   4.094  0.0496 -0.6393 -0.4363
 1900TIP3   OH227114   0.802   1.026   2.138 -0.5400  0.5136  0.2932
 1900TIP3    H127115   0.879   1.019   2.081 -1.1556 -0.3758 -0.4655
 1900TIP3    H227116   0.831   1.081   2.211  1.0728 -0.4836  0.4548
 1901TIP3   OH227117   2.430   5.894   2.989  0.2960 -0.2097 -0.0883
 1901TIP3    H127118   2.512   5.879   3.036 -0.4414  0.2819  1.3979
 1901TIP3    H227119   2.361   5.864   3.048 -0.6853  0.7623 -0.6827
 1902TIP3   OH227120   2.145   0.541   5.730  0.1136  0.2947  0.2524
 1902TIP3    H127121   2.073   0.484   5.705  0.1572  1.0069 -1.6434
 1902TIP3    H227122   2.109   0.629   5.726  0.4812  0.5257  1.5686
 1903TIP3   OH227123   2.238   5.038  15.324  0.3754 -0.1060 -0.0796
 1903TIP3    H127124   2.224   5.031  15.230 -0.7777 -0.3795  0.1006
 1903TIP3    H227125   2.312   4.981  15.341  0.8525  0.2549 -0.8725
 1904TIP3   OH227126   2.859   3.283   3.743 -0.3039  0.4987 -0.6418
 1904TIP3    H127127   2.887   3.374   3.750  1.4107  0.1131 -1.9536
 1904TIP3    H227128   2.859   3.251   3.834 -0.5095  1.6472 -0.2101
 1905TIP3   OH227129   2.569   2.366  15.856  0.2695 -0.3894  0.2531
 1905TIP3    H127130   2.526   2.416  15.788 -0.9581 -2.0794 -0.2813
 1905TIP3    H227131   2.498   2.337  15.914  1.1297 -0.1348  1.4738
 1906TIP3   OH227132   2.054   3.424  15.891  0.9335 -0.1926  0.1915
 1906TIP3    H127133   2.022   3.387  15.809  2.0389 -1.1263  0.1428
 1906TIP3    H227134   2.058   3.349  15.951  0.3944  0.4256  1.0183
 1907TIP3   OH227135   5.720   4.153  11.468  0.3237  0.0353  0.5540
 1907TIP3    H127136   5.700   4.226  11.409 -0.6520  1.4842  2.5484
 1907TIP3    H227137   5.815   4.148  11.470  0.3896 -0.1517 -1.1783
 1908TIP3   OH227138   3.161   5.066  12.601  0.2481  0.0803  0.0317
 1908TIP3    H127139   3.233   5.060  12.664  0.8763  1.0543 -0.5733
 1908TIP3    H227140   3.102   5.131  12.638  1.0240  1.2658 -0.7466
 1909TIP3   OH227141   1.873   2.500  13.303  0.2415 -0.0655 -0.3252
 1909TIP3    H127142   1.905   2.473  13.217 -0.9610 -2.1957 -0.1930
 1909TIP3    H227143   1.801   2.439  13.321 -0.9485  1.7020  1.2592
 1910TIP3   OH227144   4.850   4.374  13.322 -0.3322 -0.7132 -0.5745
 1910TIP3    H127145   4.912   4.445  13.308 -1.9716  0.8012 -0.4743
 1910TIP3    H227146   4.881   4.303  13.265  1.3787  0.0170 -0.6216
 1911TIP3   OH227147   3.187   2.875  12.250 -0.6822  0.0016 -0.3310
 1911TIP3    H127148   3.193   2.967  12.277  1.7418 -0.8298  2.5188
 1911TIP3    H227149   3.097   2.865  12.218 -1.5815  2.9339  0.9511
 1912TIP3   OH227150   4.802   2.411  13.233  0.4094  0.4429 -1.0640
 1912TIP3    H127151   4.844   2.401  13.319 -1.1187  0.4973 -0.2823
 1912TIP3    H227152   4.742   2.485  13.244  1.1621  1.3193 -2.5955
 1913TIP3   OH227153   1.879   1.617  10.988 -0.0407  0.1972  0.3189
 1913TIP3    H127154   1.787   1.618  11.013 -0.4627  0.7897 -1.1470
 1913TIP3    H227155   1.886   1.684  10.920  1.6891  0.8656  1.1059
 1914TIP3   OH227156   4.700   5.152  17.218 -0.1386  0.1963 -0.4058
 1914TIP3    H127157   4.605   5.165  17.217 -0.4385 -1.6828  0.6726
 1914TIP3    H227158   4.713   5.066  17.258  2.0155  0.2620 -0.8333
 1915TIP3   OH227159   3.335   5.735  15.981 -0.6530  0.4176 -0.2767
 1915TIP3    H127160   3.341   5.734  15.886  1.2625  0.2302 -0.1982
 1915TIP3    H227161   3.278   5.661  16.002 -3.9348  2.4624 -1.3384
 1916TIP3   OH227162   4.556   0.516  15.472 -0.4854 -0.2617  0.6101
 1916TIP3    H127163   4.574   0.610  15.477 -2.4528  0.3076 -1.2420
 1916TIP3    H227164   4.534   0.491  15.561  0.8827  0.8244  1.2977
 1917TIP3   OH227165   5.309   4.086   2.409 -0.0840 -0.4018  0.1560
 1917TIP3    H127166   5.401   4.073   2.388 -0.3060 -0.2683 -0.9564
 1917TIP3    H227167   5.274   4.134   2.334 -0.6314  1.3171  1.4228
 1918TIP3   OH227168   0.997   5.215  10.639  0.7744 -0.5257 -0.2274
 1918TIP3    H127169   0.931   5.147  10.626  0.0374  0.1282  0.0390
 1918TIP3    H227170   0.949   5.297  10.634  1.3836 -0.0702  0.9840
 1919TIP3   OH227171   6.161   2.657   5.744 -0.7416 -0.3079 -0.3707
 1919TIP3    H127172   6.212   2.722   5.792 -0.1013  0.1416 -1.6255
 1919TIP3    H227173   6.189   2.573   5.781  0.9701 -0.0779 -1.0610
 1920TIP3   OH227174   0.767   5.278  11.530  0.2084 -0.6148 -0.3559
 1920TIP3    H127175   0.695   5.244  11.582  2.8432 -1.6402  3.0381
 1920TIP3    H227176   0.775   5.369  11.558  1.1529 -0.9494  0.5180
 1921TIP3   OH227177   6.314   5.527   5.035  0.1358 -0.0818 -0.1327
 1921TIP3    H127178   6.261   5.576   4.972  0.6060  1.2207  0.4509
 1921TIP3    H227179   6.250   5.491   5.097 -0.1394  0.7701  0.0888
 1922TIP3   OH227180   6.295   0.115  16.352 -0.7881  0.1032 -0.2148
 1922TIP3    H127181   6.274   0.082  16.265  0.3840 -0.8228 -0.1680
 1922TIP3    H227182   6.262   0.205  16.353 -0.8426  0.1064 -1.5943
 1923TIP3   OH227183   2.778   5.895   0.541 -0.0994  0.2315  0.2387
 1923TIP3    H127184   2.810   5.859   0.459  0.4577 -0.6325  0.8194
 1923TIP3    H227185   2.708   5.955   0.515 -0.0766 -0.1904 -0.8483
 1924TIP3   OH227186   4.274   3.099   5.402 -0.0076  0.2123 -0.6306
 1924TIP3    H127187   4.354   3.118   5.450  0.5829  0.7082 -1.7566
 1924TIP3    H227188   4.204   3.136   5.456  0.3910 -1.1640  0.8903
 1925TIP3   OH227189   1.897   3.819   4.730 -0.0648 -0.4472 -0.3178
 1925TIP3    H127190   1.984   3.830   4.770 -0.5095 -0.1049  0.5975
 1925TIP3    H227191   1.836   3.832   4.803 -0.9194  0.3253 -1.1480
 1926TIP3   OH227192   0.599   3.864  14.138  0.6446  0.1520 -0.1900
 1926TIP3    H127193   0.678   3.916  14.155  2.3800 -1.9780 -1.1624
 1926TIP3    H227194   0.544   3.921  14.084  1.7782  1.5050  0.0173
 1927TIP3   OH227195   2.645   1.033   6.340  0.0354 -0.0262 -0.4957
 1927TIP3    H127196   2.571   1.014   6.282  0.2571  1.2190 -1.2179
 1927TIP3    H227197   2.609   1.092   6.406  0.4795  1.0589 -1.1844
 1928TIP3   OH227198   5.326   2.810   1.100 -0.2828  0.3490 -0.0024
 1928TIP3    H127199   5.363   2.742   1.155  0.3268  0.7009  0.0326
 1928TIP3    H227200   5.395   2.876   1.093 -0.5494  0.5689 -0.7305
 1929TIP3   OH227201   2.551   0.029   5.106 -0.2086  0.4398  0.1994
 1929TIP3    H127202   2.475   0.068   5.064 -0.3694  0.2662  0.3282
 1929TIP3    H227203   2.590   0.100   5.158 -1.4628  0.0212  1.7919
 1930TIP3   OH227204   1.458   4.678   2.001 -0.1740 -0.6298  0.4270
 1930TIP3    H127205   1.530   4.617   2.017 -1.0559 -2.0077 -0.5781
 1930TIP3    H227206   1.400   4.666   2.076  0.7166  0.6575  1.3595
 1931TIP3   OH227207   6.256   1.674  12.768  0.0704  0.2963 -0.3806
 1931TIP3    H127208   6.331   1.730  12.787  0.4687 -0.1389 -0.6457
 1931TIP3    H227209   6.251   1.672  12.672  0.3523 -0.4909 -0.3848
 1932TIP3   OH227210   5.634   6.054   0.512  0.4474 -0.7380  0.5170
 1932TIP3    H127211   5.612   5.970   0.472  2.0496 -1.5424  1.2856
 1932TIP3    H227212   5.568   6.115   0.476  0.3258 -1.9238 -1.4077
 1933TIP3   OH227213   6.506   0.758  16.690  0.5829  0.0326  0.0255
 1933TIP3    H127214   6.563   0.688  16.660  1.5637  0.6980  0.3042
 1933TIP3    H227215   6.544   0.786  16.773 -0.2617  0.3578  0.3128
 1934TIP3   OH227216   5.928   3.764   2.933 -0.1006 -0.2707  0.3855
 1934TIP3    H127217   5.930   3.678   2.891 -0.5098 -1.1629  2.1030
 1934TIP3    H227218   6.005   3.809   2.899  0.1325 -1.3094 -0.5354
 1935TIP3   OH227219   0.425   5.437   5.554 -0.0520 -0.3317 -0.1088
 1935TIP3    H127220   0.469   5.488   5.622  0.7358 -1.3531  0.1917
 1935TIP3    H227221   0.333   5.438   5.578  0.0449  0.4105  0.2399
 1936TIP3   OH227222   1.539   4.837  15.237 -0.2139 -0.1417  0.1645
 1936TIP3    H127223   1.449   4.850  15.207 -0.1568 -0.3719 -0.1103
 1936TIP3    H227224   1.587   4.810  15.158  0.0093 -0.4207  0.3938
 1937TIP3   OH227225   3.628   5.143   5.886 -1.1527  0.2281  0.1621
 1937TIP3    H127226   3.697   5.077   5.896  0.4938  1.6332 -1.2821
 1937TIP3    H227227   3.632   5.194   5.967 -1.7247 -0.7462  0.8302
 1938TIP3   OH227228   2.628   5.597  17.208 -0.1578 -0.0853  0.4511
 1938TIP3    H127229   2.705   5.585  17.263  0.1815 -3.6923 -0.5353
 1938TIP3    H227230   2.554   5.582  17.267  0.1506 -2.3089  0.3387
 1939TIP3   OH227231   5.500   4.771  11.121  0.1556 -0.3768 -0.0152
 1939TIP3    H127232   5.524   4.702  11.059 -0.3858 -0.2430 -0.3838
 1939TIP3    H227233   5.450   4.834  11.069  0.9226  0.4708  0.2379
 1940TIP3   OH227234   1.148   3.499   1.887 -0.8649  0.5393 -0.1180
 1940TIP3    H127235   1.163   3.418   1.936 -0.0766  0.2283 -0.8341
 1940TIP3    H227236   1.114   3.470   1.803 -0.7028  0.9565 -0.3304
 1941TIP3   OH227237   4.389   6.311  13.253  0.1046  0.4782  1.1883
 1941TIP3    H127238   4.299   6.322  13.221 -0.0023  0.4056  1.4664
 1941TIP3    H227239   4.428   6.398  13.243  0.0822  0.4487  0.8257
 1942TIP3   OH227240   4.537   1.983  16.989  0.1041  0.1002  0.3248
 1942TIP3    H127241   4.623   2.002  17.027 -0.2338 -0.1842  1.2574
 1942TIP3    H227242   4.476   2.034  17.041 -0.2444  0.8263 -0.7584
 1943TIP3   OH227243   4.008   5.061   2.639 -0.0217 -0.3001  0.3575
 1943TIP3    H127244   3.992   5.067   2.733 -1.1399 -1.1546  0.2387
 1943TIP3    H227245   3.935   5.107   2.598  0.9457  0.9051 -0.1098
 1944TIP3   OH227246   0.196   6.290   6.380 -0.3118 -0.6953  0.3562
 1944TIP3    H127247   0.124   6.261   6.325 -1.2968 -0.1959  1.3592
 1944TIP3    H227248   0.156   6.344   6.448  1.2864  1.9293 -0.6110
 1945TIP3   OH227249   6.137   4.969  13.487  0.0468  0.4508 -0.0153
 1945TIP3    H127250   6.153   5.046  13.541 -2.0331  0.0223  1.3350
 1945TIP3    H227251   6.170   4.896  13.540 -1.2424  0.1133  0.3813
 1946TIP3   OH227252   1.557   3.373   4.610  0.2360  0.5358  0.0999
 1946TIP3    H127253   1.593   3.292   4.648  1.4295  0.4592 -1.1366
 1946TIP3    H227254   1.544   3.431   4.686  1.3228 -0.0741  0.7764
 1947TIP3   OH227255   3.537   4.623  14.932  0.3060 -0.1602  0.5153
 1947TIP3    H127256   3.448   4.590  14.942  0.6584 -0.8089  1.6717
 1947TIP3    H227257   3.527   4.718  14.923 -0.5704 -0.3373 -0.6284
 1948TIP3   OH227258   5.560   3.665   4.754 -0.7563 -0.5345 -0.3457
 1948TIP3    H127259   5.539   3.612   4.677  0.3400  0.3062 -1.2416
 1948TIP3    H227260   5.507   3.744   4.744  0.2173  0.0768 -0.8492
 1949TIP3   OH227261   2.966   4.064   3.014 -0.2111  0.3401 -0.3738
 1949TIP3    H127262   3.001   4.132   3.071  0.9602 -0.4012 -0.1787
 1949TIP3    H227263   3.039   4.004   3.000 -1.5042 -1.5103  0.4141
 1950TIP3   OH227264   6.026   5.560   2.562 -0.2706 -0.0047 -0.2029
 1950TIP3    H127265   6.010   5.494   2.629  0.3438 -0.7387 -0.7663
 1950TIP3    H227266   6.060   5.511   2.487  0.1989  0.9520 -0.6315
 1951TIP3   OH227267   2.868   6.773   5.315 -0.1023 -0.1655 -0.3002
 1951TIP3    H127268   2.861   6.829   5.392  0.8168  1.5214 -1.3902
 1951TIP3    H227269   2.957   6.786   5.283 -0.8047  0.0910 -2.2986
 1952TIP3   OH227270   5.502   2.628   4.548 -1.0254 -0.0804 -0.1113
 1952TIP3    H127271   5.467   2.629   4.637  0.2667 -3.0013  0.5387
 1952TIP3    H227272   5.585   2.675   4.554 -0.8847 -0.3767  0.2570
 1953TIP3   OH227273   1.880   4.771   0.699 -0.2846  0.4655 -0.0058
 1953TIP3    H127274   1.849   4.828   0.770  0.2328 -0.0661  0.6627
 1953TIP3    H227275   1.841   4.807   0.620  1.3838  2.8549  0.1388
 1954TIP3   OH227276   0.853   0.172   1.000  0.6513 -0.0879  0.1281
 1954TIP3    H127277   0.934   0.165   1.051  1.2023  1.2102 -0.5277
 1954TIP3    H227278   0.883   0.188   0.910 -0.3345 -0.6061 -0.3074
 1955TIP3   OH227279   3.850   3.227  15.771 -0.2128 -0.0151 -0.0673
 1955TIP3    H127280   3.903   3.246  15.694  0.4235 -2.2775 -0.2370
 1955TIP3    H227281   3.912   3.196  15.837 -1.2718 -3.9733 -0.6881
 1956TIP3   OH227282   2.403   4.688  14.876  0.3324 -0.2551  0.4738
 1956TIP3    H127283   2.329   4.627  14.888  0.6816 -0.3842  2.3323
 1956TIP3    H227284   2.476   4.631  14.853  0.3521 -0.4027  0.8824
 1957TIP3   OH227285   1.245   3.316  14.785  0.1550  0.4270 -0.0981
 1957TIP3    H127286   1.202   3.246  14.736 -0.8111  0.1506  1.0957
 1957TIP3    H227287   1.175   3.376  14.809  0.4333  0.1528  1.5699
 1958TIP3   OH227288   4.044   6.503  13.540  0.5260 -0.1109 -0.2165
 1958TIP3    H127289   4.025   6.551  13.460 -2.1205  0.5725  0.7341
 1958TIP3    H227290   3.984   6.428  13.539 -0.0381  0.2880  1.4231
 1959TIP3   OH227291   1.725   5.016   1.648  0.7941  0.5115  0.4903
 1959TIP3    H127292   1.807   5.064   1.637  0.6314  1.0033  1.3395
 1959TIP3    H227293   1.708   5.019   1.742 -0.0381  0.1466  0.3581
 1960TIP3   OH227294   4.467   3.906   0.305  0.2498 -0.1910 -0.2393
 1960TIP3    H127295   4.465   3.811   0.311 -0.4892 -0.1869 -0.3558
 1960TIP3    H227296   4.557   3.927   0.280  0.8627 -0.7570  1.3869
 1961TIP3   OH227297   2.802   4.597  12.418  0.2229  0.2373  0.5531
 1961TIP3    H127298   2.771   4.652  12.490 -1.0234 -0.0385  0.2458
 1961TIP3    H227299   2.723   4.554  12.386  0.8695 -0.1281 -0.5710
 1962TIP3   OH227300   6.143   5.654   0.944  0.0710 -0.0589  0.0429
 1962TIP3    H127301   6.122   5.599   1.020  1.8931 -0.4568  0.3171
 1962TIP3    H227302   6.087   5.730   0.952 -2.0309 -1.5190  0.0509
 1963TIP3   OH227303   4.496   5.454  16.632 -0.5078 -0.2252  0.0624
 1963TIP3    H127304   4.419   5.510  16.642 -0.9147 -0.6559 -0.5585
 1963TIP3    H227305   4.474   5.397  16.559 -0.2967 -1.5186  0.9794
 1964TIP3   OH227306   0.504   0.513   5.656  0.2823  0.5881  0.1221
 1964TIP3    H127307   0.511   0.580   5.725  0.4555 -0.2106  0.9000
 1964TIP3    H227308   0.413   0.485   5.661  0.3872  0.2718  0.2786
 1965TIP3   OH227309   6.236   1.878   5.027  0.0920 -0.1224 -0.5158
 1965TIP3    H127310   6.149   1.841   5.014 -0.3122  0.7366 -0.3225
 1965TIP3    H227311   6.262   1.850   5.115 -0.6269  0.8358  0.0238
 1966TIP3   OH227312   2.658   0.771  13.829  0.3903  0.0285  0.1966
 1966TIP3    H127313   2.701   0.686  13.821  1.8959  0.6943  0.9127
 1966TIP3    H227314   2.701   0.827  13.764 -0.4211  0.3132 -0.1055
 1967TIP3   OH227315   0.987   2.068  14.098 -0.4063  0.4620 -0.2393
 1967TIP3    H127316   1.010   2.157  14.126 -0.5370  0.2247  0.6712
 1967TIP3    H227317   1.063   2.037  14.050  0.2574  0.5309  0.7316
 1968TIP3   OH227318   0.568   3.682  13.530 -0.1807 -0.7188 -0.1425
 1968TIP3    H127319   0.625   3.693  13.454  1.5142 -0.9778  1.0336
 1968TIP3    H227320   0.602   3.605  13.574  0.6628  0.9320  2.3132
 1969TIP3   OH227321   6.598   5.003  15.505  0.3071  0.7012  0.3197
 1969TIP3    H127322   6.609   4.938  15.574 -0.3464  0.0911 -0.1320
 1969TIP3    H227323   6.662   4.980  15.438 -0.0524  0.3984  0.0749
 1970TIP3   OH227324   1.633   0.110   2.797  0.3470 -0.9742  0.4918
 1970TIP3    H127325   1.673   0.136   2.880 -2.2304 -0.5537  1.6703
 1970TIP3    H227326   1.695   0.046   2.760  2.6560  0.4849  1.5926
 1971TIP3   OH227327   6.315   0.297  15.778 -0.1898  0.7412  0.1733
 1971TIP3    H127328   6.232   0.255  15.799 -0.5128  0.9015 -0.7068
 1971TIP3    H227329   6.309   0.383  15.818  0.0228  0.3500  1.0623
 1972TIP3   OH227330   1.464   2.374  16.215  0.0465  0.4123  0.0271
 1972TIP3    H127331   1.422   2.449  16.258  0.0913  0.9762 -0.8891
 1972TIP3    H227332   1.393   2.329  16.170  0.1443  0.3407 -0.0555
 1973TIP3   OH227333   6.505   0.340   3.844 -0.3492  0.4638 -0.1039
 1973TIP3    H127334   6.455   0.309   3.768  0.0418 -0.3073 -0.0563
 1973TIP3    H227335   6.534   0.427   3.820  1.0903 -0.3509 -1.4938
 1974TIP3   OH227336   2.041   4.067  15.767 -0.0379  0.0412  1.2377
 1974TIP3    H127337   2.008   4.083  15.856 -0.3912 -1.2622  1.3564
 1974TIP3    H227338   1.963   4.055  15.714  0.1798  0.5358  0.7987
 1975TIP3   OH227339   2.100   2.134  16.642 -0.4915  0.0540  0.0607
 1975TIP3    H127340   2.137   2.102  16.724  0.7199  2.1450  0.4055
 1975TIP3    H227341   2.041   2.204  16.667 -1.2677 -0.2778 -0.7822
 1976TIP3   OH227342   2.287   5.563   0.401 -0.3429  0.0879  0.3761
 1976TIP3    H127343   2.370   5.608   0.383  0.1415 -0.7945  0.3616
 1976TIP3    H227344   2.241   5.566   0.317  0.5297 -1.1508 -0.1760
 1977TIP3   OH227345   6.020   0.520  11.893  0.5708  0.1183 -0.1072
 1977TIP3    H127346   6.006   0.537  11.799  0.5628 -0.3319 -0.1892
 1977TIP3    H227347   5.943   0.470  11.919  0.6901  0.0362  0.0859
 1978TIP3   OH227348   2.611   3.914  12.173 -0.3377 -0.4340 -0.0824
 1978TIP3    H127349   2.550   3.879  12.237  1.8502 -0.7347  2.0098
 1978TIP3    H227350   2.642   3.837  12.125  0.5829 -0.7276  0.9360
 1979TIP3   OH227351   6.711   1.059  10.513  0.5621 -0.3028 -0.3668
 1979TIP3    H127352   6.663   1.136  10.542 -2.3123 -1.8119 -0.8262
 1979TIP3    H227353   6.751   1.087  10.430  1.1795  1.2194  0.3921
 1980TIP3   OH227354   0.116   5.091   5.011 -0.0771 -0.2341  0.3852
 1980TIP3    H127355   0.080   5.145   5.081 -2.3681 -1.7394  0.4814
 1980TIP3    H227356   0.176   5.148   4.965  0.1110  1.3551  2.4535
 1981TIP3   OH227357   4.571   3.981  14.147 -0.0683  0.3885 -0.5930
 1981TIP3    H127358   4.586   3.927  14.225  0.4074 -0.8779 -1.5267
 1981TIP3    H227359   4.490   3.947  14.110 -0.0479  0.6776 -0.9042
 1982TIP3   OH227360   5.082   6.192   4.901  0.0150 -0.3747 -0.2828
 1982TIP3    H127361   5.029   6.193   4.821  0.4957 -2.2232 -0.6777
 1982TIP3    H227362   5.050   6.116   4.949 -0.8023  1.1493  1.7251
 1983TIP3   OH227363   5.317   2.708   0.476 -0.3862 -0.0819  0.2323
 1983TIP3    H127364   5.249   2.645   0.452  0.3143 -0.5196 -0.6491
 1983TIP3    H227365   5.345   2.746   0.394  0.2754  0.2642  0.6108
 1984TIP3   OH227366   1.154   6.296   5.329  0.1689 -0.5617  0.1695
 1984TIP3    H127367   1.146   6.310   5.235  1.5832 -1.2376 -0.0852
 1984TIP3    H227368   1.214   6.365   5.358 -1.5043  0.6450  0.8881
 1985TIP3   OH227369   3.211   2.714   2.338  0.3187  0.0860 -0.3704
 1985TIP3    H127370   3.267   2.687   2.410 -0.4254  0.0948  0.2259
 1985TIP3    H227371   3.214   2.641   2.276 -1.3350 -1.2687  1.0332
 1986TIP3   OH227372   4.386   4.019   5.837  0.4300 -0.3069  0.2809
 1986TIP3    H127373   4.459   3.996   5.780  1.0110 -1.0952  1.3292
 1986TIP3    H227374   4.420   4.088   5.893  0.8642 -1.6626  1.7481
 1987TIP3   OH227375   6.478   3.619  16.428  0.4167  0.5579 -0.4889
 1987TIP3    H127376   6.421   3.694  16.410  0.8759  1.1285  0.3761
 1987TIP3    H227377   6.422   3.558  16.476  0.0117  0.2832 -1.2883
 1988TIP3   OH227378   3.340   6.515   1.276 -0.0194  0.0203 -0.3484
 1988TIP3    H127379   3.425   6.473   1.282 -0.4731 -0.8704 -0.0100
 1988TIP3    H227380   3.282   6.459   1.327 -0.6635  0.9960  0.0259
 1989TIP3   OH227381   3.968   0.497  11.756  0.1740 -0.5372  0.1141
 1989TIP3    H127382   3.942   0.457  11.839 -0.6457 -3.0356 -1.2476
 1989TIP3    H227383   3.887   0.534  11.721 -0.1256 -2.0209 -0.8418
 1990TIP3   OH227384   4.520   6.448  13.738  0.1702  0.4885  0.7737
 1990TIP3    H127385   4.441   6.410  13.776 -0.3769  0.9977  0.1652
 1990TIP3    H227386   4.488   6.516  13.679  1.0177  0.1429 -0.1242
 1991TIP3   OH227387   6.654   6.754   5.838 -0.1072 -0.4136  0.4685
 1991TIP3    H127388   6.573   6.756   5.787 -0.2846  0.3434  0.7577
 1991TIP3    H227389   6.695   6.671   5.816  0.0917  0.1364 -1.3389
 1992TIP3   OH227390   5.999   3.148  10.808 -0.0141 -0.2293  0.2425
 1992TIP3    H127391   6.030   3.190  10.888  1.4073  0.4177 -0.6085
 1992TIP3    H227392   6.078   3.116  10.765 -0.8448 -1.4513 -0.4272
 1993TIP3   OH227393   6.558   3.365  15.416  0.1663  0.0710  0.0599
 1993TIP3    H127394   6.618   3.292  15.431 -0.0324  0.1508  1.4014
 1993TIP3    H227395   6.519   3.347  15.330  0.3309 -1.2572  0.2417
 1994TIP3   OH227396   0.964   1.891   5.431  0.0689 -0.0625  0.0516
 1994TIP3    H127397   0.886   1.839   5.411  1.2316 -1.3496 -1.3952
 1994TIP3    H227398   1.011   1.897   5.348 -0.4423  4.2179 -0.1489
 1995TIP3   OH227399   4.454   3.761  15.184 -1.0126 -0.4989 -0.0751
 1995TIP3    H127400   4.379   3.780  15.127 -0.4221 -1.5953 -1.2775
 1995TIP3    H227401   4.527   3.751  15.123  0.3222  1.4077  1.1166
 1996TIP3   OH227402   5.937   4.862  14.484 -0.6292 -0.4713  0.1343
 1996TIP3    H127403   5.864   4.921  14.466  1.7645  2.4502 -0.8183
 1996TIP3    H227404   5.938   4.853  14.580  0.7405  3.8411  0.7335
 1997TIP3   OH227405   0.786   5.363   4.883  0.1608  0.0450 -0.4417
 1997TIP3    H127406   0.692   5.374   4.870  0.2971  0.4374 -1.1355
 1997TIP3    H227407   0.797   5.362   4.978 -0.4581  0.8165 -0.3499
 1998TIP3   OH227408   1.051   3.168  15.074  0.4003  0.2922 -0.1452
 1998TIP3    H127409   1.026   3.081  15.044  4.9100 -0.5686 -2.1783
 1998TIP3    H227410   1.063   3.218  14.993  2.3958  1.3054  0.7226
 1999TIP3   OH227411   1.924   0.099   5.721 -0.2807  0.1696 -0.3893
 1999TIP3    H127412   1.907   0.005   5.728  0.8830  0.0581  1.5604
 1999TIP3    H227413   1.892   0.135   5.804 -0.0867  1.4057 -0.8315
 2000TIP3   OH227414   6.173   1.430  12.935 -0.0079 -0.5262 -0.6707
 2000TIP3    H127415   6.268   1.418  12.935  0.3921  1.4229  2.4469
 2000TIP3    H227416   6.158   1.507  12.880  0.5716  0.6172  0.7071
 2001TIP3   OH227417   3.474   6.663   6.602  0.4368 -0.2231  0.4462
 2001TIP3    H127418   3.500   6.738   6.548 -2.3313 -0.2835 -1.1356
 2001TIP3    H227419   3.382   6.677   6.620  0.7163 -1.4343  3.2953
 2002TIP3   OH227420   2.772   3.163  12.979  0.2790 -0.1155 -0.3376
 2002TIP3    H127421   2.717   3.213  13.040  0.5514  0.6884 -0.7310
 2002TIP3    H227422   2.753   3.071  12.998  0.6763  0.1096  1.2432
 2003TIP3   OH227423   3.366   3.420  11.024 -0.1804 -0.0606  0.4739
 2003TIP3    H127424   3.326   3.335  11.042  1.2266 -0.6813  0.8432
 2003TIP3    H227425   3.349   3.436  10.931 -0.5091 -0.7091  0.4175
 2004TIP3   OH227426   4.258   3.610  14.467  0.1392  0.4840  0.2701
 2004TIP3    H127427   4.233   3.574  14.382  0.5944 -0.3069  0.4658
 2004TIP3    H227428   4.230   3.544  14.530  0.8439  0.5360  0.6428
 2005TIP3   OH227429   4.192   0.300   1.355 -0.0695  0.5491  0.2330
 2005TIP3    H127430   4.143   0.222   1.328  0.9486  0.6519 -2.1295
 2005TIP3    H227431   4.259   0.266   1.414 -0.8109 -0.0613  0.7586
 2006TIP3   OH227432   4.747   0.435   4.419  0.5086 -0.3634  0.6395
 2006TIP3    H127433   4.782   0.524   4.424 -1.3058  0.4642 -0.1053
 2006TIP3    H227434   4.741   0.406   4.510  4.6427 -1.3088  0.8021
 2007TIP3   OH227435   5.225   2.520   5.761 -0.5459  0.1170 -0.2674
 2007TIP3    H127436   5.269   2.586   5.707  2.3047 -0.6944  0.9013
 2007TIP3    H227437   5.254   2.436   5.725 -2.4050 -0.5492 -0.3564
 2008TIP3   OH227438   2.672   4.078  15.478 -0.0030 -0.3226 -0.3506
 2008TIP3    H127439   2.725   4.050  15.403 -1.1435  0.9989 -1.7272
 2008TIP3    H227440   2.671   4.002  15.537  0.6918 -1.5151 -1.8035
 2009TIP3   OH227441   0.053   0.276  11.910  0.1460 -0.5020 -0.6195
 2009TIP3    H127442   0.090   0.225  11.983  0.8195  0.5565 -0.2018
 2009TIP3    H227443   0.007   0.348  11.951  0.8611  0.3311 -1.2295
 2010TIP3   OH227444   3.656   2.002   1.835 -0.0156  0.4769 -0.3806
 2010TIP3    H127445   3.683   1.963   1.752  1.6463 -0.5014  0.5706
 2010TIP3    H227446   3.561   2.007   1.830 -0.1373 -1.8579 -1.3666
 2011TIP3   OH227447   3.951   0.338   1.052 -0.4439  0.1709 -0.2547
 2011TIP3    H127448   3.973   0.246   1.063  0.1049  0.2617 -0.5271
 2011TIP3    H227449   3.943   0.349   0.957  3.1768  1.1814 -0.5862
 2012TIP3   OH227450   2.630   2.646   1.372 -0.1504  0.3760  0.2202
 2012TIP3    H127451   2.637   2.556   1.406 -2.2504  0.0378 -0.1097
 2012TIP3    H227452   2.620   2.700   1.451  1.0025  0.3290  0.4144
 2013TIP3   OH227453   2.905   0.906  16.083  0.0163 -0.2033 -0.8307
 2013TIP3    H127454   2.894   0.898  16.178 -1.2322  1.8085 -0.7508
 2013TIP3    H227455   2.835   0.852  16.046 -0.7862  0.5965 -0.5345
 2014TIP3   OH227456   4.105   4.596   3.225  0.6354 -0.5035  0.0713
 2014TIP3    H127457   4.190   4.575   3.187  0.0186 -1.7041 -0.7082
 2014TIP3    H227458   4.124   4.661   3.293  2.2481 -1.2395  0.3683
 2015TIP3   OH227459   6.560   1.516   2.660  0.0450  0.5802 -0.2382
 2015TIP3    H127460   6.603   1.538   2.742 -0.9697 -0.0107  0.4782
 2015TIP3    H227461   6.627   1.470   2.609  1.1979  2.3698 -0.4551
 2016TIP3   OH227462   3.870   0.538  14.090  0.0771  0.5029 -0.2650
 2016TIP3    H127463   3.834   0.616  14.047  1.3816  0.7311 -0.9665
 2016TIP3    H227464   3.867   0.558  14.184 -1.1775  0.6907 -0.3257
 2017TIP3   OH227465   2.267   2.485  14.279  0.2381 -0.3262 -0.2082
 2017TIP3    H127466   2.223   2.548  14.335  0.6967 -0.2783  0.1053
 2017TIP3    H227467   2.279   2.408  14.334  1.2604 -0.0532 -0.0226
 2018TIP3   OH227468   0.887   0.338   2.623 -0.9007  0.1486 -0.3082
 2018TIP3    H127469   0.846   0.297   2.547 -1.0460  0.1349 -0.2214
 2018TIP3    H227470   0.831   0.314   2.696 -0.4458 -0.3157 -0.1086
 2019TIP3   OH227471   3.973   0.505  13.267  0.4249 -0.5866  0.0777
 2019TIP3    H127472   3.922   0.528  13.345 -2.0418 -0.9467 -1.3239
 2019TIP3    H227473   3.976   0.585  13.215 -0.6055 -1.1026 -0.8166
 2020TIP3   OH227474   3.900   6.450   4.010  0.0462  0.1896 -0.7206
 2020TIP3    H127475   3.894   6.512   4.083 -0.4823  0.2833 -0.8419
 2020TIP3    H227476   3.812   6.447   3.974  0.4321  0.6223 -1.7469
 2021TIP3   OH227477   4.154   2.147   5.272 -0.4786 -0.1825 -0.3034
 2021TIP3    H127478   4.243   2.140   5.236 -0.4390  0.5537 -0.3551
 2021TIP3    H227479   4.158   2.098   5.354  0.1954  0.5135  0.0941
 2022TIP3   OH227480   6.138   2.818  12.898  0.0554 -0.0176 -0.5459
 2022TIP3    H127481   6.205   2.841  12.834  0.7320 -0.7406 -0.1115
 2022TIP3    H227482   6.056   2.822  12.849  0.3474  1.3889 -0.9496
 2023TIP3   OH227483   3.221   4.044   4.833 -0.2031 -0.4357  0.1128
 2023TIP3    H127484   3.231   4.135   4.806 -0.3149  0.0445  1.5914
 2023TIP3    H227485   3.302   4.002   4.804  0.3676  0.4123  0.4195
 2024TIP3   OH227486   0.345   1.936   6.687  0.2955  0.1650  0.4833
 2024TIP3    H127487   0.253   1.951   6.665  0.7011  0.1622 -1.4126
 2024TIP3    H227488   0.384   2.023   6.684 -0.0098  0.5292  3.5771
 2025TIP3   OH227489   6.406   4.486   5.470  0.7906 -0.4229 -0.4229
 2025TIP3    H127490   6.487   4.472   5.520  0.0967 -0.5226  0.7129
 2025TIP3    H227491   6.376   4.397   5.450 -0.7762 -0.5446  2.0957
 2026TIP3   OH227492   3.978   0.696   0.801 -0.2195 -0.0908 -0.3788
 2026TIP3    H127493   3.893   0.713   0.843 -1.1757 -2.2472 -1.2690
 2026TIP3    H227494   4.038   0.679   0.874 -1.3387 -1.6376  0.2420
 2027TIP3   OH227495   2.334   6.254  16.490  0.0843  0.1130  0.1498
 2027TIP3    H127496   2.335   6.346  16.463 -1.7633  0.2869  0.5610
 2027TIP3    H227497   2.361   6.256  16.581 -1.1840  0.4284  0.5411
 2028TIP3   OH227498   2.777   1.794   4.087  0.1553  0.0386 -0.0986
 2028TIP3    H127499   2.750   1.729   4.152 -1.3380  0.3034 -0.4137
 2028TIP3    H227500   2.813   1.743   4.015  0.2077 -0.3587  0.2048
 2029TIP3   OH227501   4.877   3.679  14.882 -0.1768  0.5551  0.2270
 2029TIP3    H127502   4.937   3.747  14.913  2.6465 -0.8601 -1.7281
 2029TIP3    H227503   4.823   3.723  14.817  1.7692  0.9886 -1.1808
 2030TIP3   OH227504   5.942   5.675  11.638 -0.4978  0.3621 -0.0930
 2030TIP3    H127505   5.875   5.712  11.696 -1.6447  0.6851 -1.5688
 2030TIP3    H227506   5.908   5.690  11.550  0.7377 -0.9865 -0.8324
 2031TIP3   OH227507   1.120   2.334  16.552 -0.1736  0.0600  0.0304
 2031TIP3    H127508   1.162   2.373  16.629  0.8682 -1.0887  0.0912
 2031TIP3    H227509   1.053   2.276  16.587  1.5030 -1.8589  0.2245
 2032TIP3   OH227510   1.217   3.374  16.501  0.1085 -0.2916 -0.3134
 2032TIP3    H127511   1.185   3.428  16.574 -0.9266 -0.3385 -0.7044
 2032TIP3    H227512   1.277   3.312  16.542 -2.0198 -1.6916  0.9019
 2033TIP3   OH227513   1.035   3.880  12.306  0.3702  0.2718 -0.6814
 2033TIP3    H127514   1.034   3.867  12.401 -0.0284  0.9955 -0.5830
 2033TIP3    H227515   1.125   3.906  12.287  0.0560  1.7272 -0.2716
 2034TIP3   OH227516   1.168   4.209  12.964  0.0533  0.0747  0.1754
 2034TIP3    H127517   1.135   4.244  12.881 -1.2652  1.1512  1.1043
 2034TIP3    H227518   1.113   4.132  12.981 -0.0601  0.1837  0.3104
 2035TIP3   OH227519   2.582   3.629  15.811  0.0187 -0.2113 -0.3695
 2035TIP3    H127520   2.590   3.534  15.804  1.1708 -0.0640 -1.4646
 2035TIP3    H227521   2.494   3.649  15.778 -0.0652 -0.8607 -0.5460
 2036TIP3   OH227522   1.929   3.184  16.211 -0.5088 -0.0470 -0.4975
 2036TIP3    H127523   1.976   3.119  16.264 -0.1330  0.6868  0.1017
 2036TIP3    H227524   1.983   3.263  16.219 -1.1512  0.4341 -0.9121
 2037TIP3   OH227525   2.328   3.326  16.534 -0.4266  0.4106  0.1787
 2037TIP3    H127526   2.368   3.246  16.499 -1.0925 -0.1792  0.7586
 2037TIP3    H227527   2.262   3.350  16.469  0.2053  0.8535 -0.3096
 2038TIP3   OH227528   2.175   1.411   2.590  0.5085 -0.0147 -0.3455
 2038TIP3    H127529   2.131   1.412   2.505  1.3421 -0.6483 -0.8018
 2038TIP3    H227530   2.133   1.481   2.640 -1.3963 -0.9489 -0.5524
 2039TIP3   OH227531   3.899   2.754   3.736  0.5732 -0.3907 -0.5695
 2039TIP3    H127532   3.878   2.663   3.757  0.7739 -0.6490 -1.4504
 2039TIP3    H227533   3.877   2.763   3.643 -2.0754  1.2247  0.0938
 2040TIP3   OH227534   6.499   0.121   0.786 -0.3308  0.1426 -0.0930
 2040TIP3    H127535   6.460   0.203   0.816  2.5103  1.2767  0.7809
 2040TIP3    H227536   6.511   0.069   0.866 -0.6894 -0.5049 -0.4454
 2041TIP3   OH227537   3.250   2.136  13.778 -0.7275  0.2049 -0.2148
 2041TIP3    H127538   3.201   2.167  13.702 -1.7867  0.5403  0.5752
 2041TIP3    H227539   3.194   2.158  13.853  0.8056  0.9674  0.7636
 2042TIP3   OH227540   1.908   5.407   5.342  0.1046  0.1310  0.2060
 2042TIP3    H127541   1.865   5.409   5.257  1.5776 -0.4569 -0.5870
 2042TIP3    H227542   1.837   5.387   5.404 -1.0108  0.7066 -0.8345
 2043TIP3   OH227543   0.882   6.565   5.409 -0.3656  0.2577  0.0885
 2043TIP3    H127544   0.923   6.563   5.323 -1.3361 -2.1345 -0.4055
 2043TIP3    H227545   0.891   6.476   5.442 -2.2837  0.4657  1.3375
 2044TIP3   OH227546   6.597   5.348   2.418  0.7267 -0.0884 -0.1892
 2044TIP3    H127547   6.534   5.313   2.480  0.0780  0.8805 -0.2834
 2044TIP3    H227548   6.680   5.306   2.442  0.2978 -0.4430  0.7199
 2045TIP3   OH227549   1.403   5.596   4.461 -0.4218  0.2148 -0.0702
 2045TIP3    H127550   1.454   5.631   4.388 -0.1032 -1.2023 -0.5662
 2045TIP3    H227551   1.336   5.542   4.419 -2.5404  2.2105  0.5590
 2046TIP3   OH227552   2.837   5.792  13.618  0.1440  0.3928 -0.0708
 2046TIP3    H127553   2.901   5.733  13.658  0.4985  0.5155 -0.4496
 2046TIP3    H227554   2.812   5.852  13.689 -0.5758 -0.4933  0.4449
 2047TIP3   OH227555   2.853   3.934  10.816 -0.1854  0.0441  0.0417
 2047TIP3    H127556   2.834   3.890  10.733 -0.9803  2.3407 -1.0785
 2047TIP3    H227557   2.946   3.954  10.813  0.0132 -0.8432  0.2066
 2048TIP3   OH227558   3.914   5.816   3.668 -0.3132 -0.0083  0.4561
 2048TIP3    H127559   3.894   5.909   3.657 -1.6414 -0.1345  1.6181
 2048TIP3    H227560   3.934   5.785   3.579 -3.7182  0.5133 -0.6119
 2049TIP3   OH227561   1.457   1.311   1.590 -0.3694 -0.2692  0.4931
 2049TIP3    H127562   1.386   1.374   1.595 -0.1671 -0.1254  2.3185
 2049TIP3    H227563   1.446   1.257   1.669 -0.7882 -2.8159 -1.1849
 2050TIP3   OH227564   1.303   3.267  10.791 -0.0685  0.3597 -0.5913
 2050TIP3    H127565   1.349   3.192  10.829 -1.9880 -1.3681 -1.4209
 2050TIP3    H227566   1.340   3.343  10.835  0.4108 -1.2202  1.9993
 2051TIP3   OH227567   4.441   4.807  11.785 -0.2802 -0.0950 -0.0702
 2051TIP3    H127568   4.484   4.763  11.712  0.8462 -1.0516  1.1203
 2051TIP3    H227569   4.390   4.738  11.828 -1.8764  0.7054 -0.6002
 2052TIP3   OH227570   3.063   4.948  14.198 -0.1872  0.0728  0.3659
 2052TIP3    H127571   3.121   5.008  14.152 -0.1520 -0.0877  0.1950
 2052TIP3    H227572   3.096   4.946  14.288  0.3812 -0.3873  0.1611
 2053TIP3   OH227573   0.605   4.994  14.866 -0.5121  0.2603 -0.5519
 2053TIP3    H127574   0.531   4.934  14.879 -1.4127  1.4640  0.0225
 2053TIP3    H227575   0.677   4.937  14.836 -1.5778 -0.9729 -0.8561
 2054TIP3   OH227576   3.528   5.306   3.009  0.2507  0.2070  0.2763
 2054TIP3    H127577   3.491   5.325   3.095 -3.4158 -0.6687 -0.9394
 2054TIP3    H227578   3.452   5.301   2.951  2.1195 -3.3955 -2.2219
 2055TIP3   OH227579   0.518   1.682   4.912 -0.0834 -0.2210  0.1140
 2055TIP3    H127580   0.533   1.719   4.825  0.0787  1.6652  0.8801
 2055TIP3    H227581   0.438   1.632   4.904 -0.5895  0.7141 -0.9226
 2056TIP3   OH227582   3.443   5.502  14.793 -0.0815 -0.4779 -0.4584
 2056TIP3    H127583   3.472   5.419  14.755  0.5765 -0.3018 -0.3582
 2056TIP3    H227584   3.360   5.521  14.748 -0.2699 -1.2106 -0.4410
 2057TIP3   OH227585   4.334   2.385   3.049  0.1915  0.7545 -0.0419
 2057TIP3    H127586   4.250   2.427   3.030 -0.9102 -1.9282 -1.7983
 2057TIP3    H227587   4.375   2.373   2.963  1.8215  0.8890  0.6719
 2058TIP3   OH227588   2.919   2.171  12.438 -0.2909 -0.1767  0.3715
 2058TIP3    H127589   2.913   2.098  12.500  0.5269  0.8257  1.6639
 2058TIP3    H227590   2.875   2.244  12.482 -0.9259  0.2006 -0.8233
 2059TIP3   OH227591   6.140   4.895   3.026 -0.4324  0.3321  0.0099
 2059TIP3    H127592   6.048   4.919   3.029 -0.2811  0.8651  0.6509
 2059TIP3    H227593   6.140   4.800   3.013 -1.1149  0.0003  2.0547
 2060TIP3   OH227594   2.200   0.502   1.284 -0.3392  0.1395  0.0442
 2060TIP3    H127595   2.231   0.550   1.361 -0.5688  0.6456 -0.1747
 2060TIP3    H227596   2.173   0.570   1.222 -0.1942 -0.2618 -0.4723
 2061TIP3   OH227597   6.319   1.980   4.795  0.4141  0.1819 -0.3376
 2061TIP3    H127598   6.267   1.934   4.860  1.3341  2.0385  1.8550
 2061TIP3    H227599   6.406   1.987   4.834  1.8595 -1.0832 -3.0191
 2062TIP3   OH227600   2.517   2.266   0.031 -0.1061  0.7523  0.0511
 2062TIP3    H127601   2.504   2.291   0.122  2.8019  0.2636  0.7004
 2062TIP3    H227602   2.611   2.252   0.023 -0.5267 -1.4901 -2.4702
 2063TIP3   OH227603   5.940   2.924  14.011 -0.6003 -0.0093  0.2694
 2063TIP3    H127604   6.003   2.898  13.944 -2.1750 -0.4655 -1.0848
 2063TIP3    H227605   5.987   2.911  14.094  0.8264 -1.0070 -0.6499
 2064TIP3   OH227606   6.334   1.615  15.952  0.3825 -0.5380 -0.2233
 2064TIP3    H127607   6.382   1.620  16.035 -0.4264  1.7065  0.1677
 2064TIP3    H227608   6.386   1.668  15.891 -1.7357  2.4723  0.3707
 2065TIP3   OH227609   0.149   2.234  11.488  0.1249 -0.4816 -0.3234
 2065TIP3    H127610   0.235   2.199  11.511  0.2334  0.4849  0.8632
 2065TIP3    H227611   0.096   2.156  11.470  0.6217 -1.2457  1.2717
 2066TIP3   OH227612   2.954   4.208  12.268  0.0744  0.1405  0.4614
 2066TIP3    H127613   2.990   4.296  12.271  0.6770 -0.0255 -0.9085
 2066TIP3    H227614   3.030   4.150  12.277 -0.3602 -0.2654  1.7858
 2067TIP3   OH227615   0.476   6.086  15.428  0.2390  0.1013 -0.6101
 2067TIP3    H127616   0.533   6.077  15.504 -0.1840 -0.2254 -0.3306
 2067TIP3    H227617   0.481   6.179  15.406  1.1137  0.0237 -0.7752
 2068TIP3   OH227618   4.023   5.818  13.802 -0.2277  0.0485  0.7478
 2068TIP3    H127619   3.998   5.860  13.720 -1.5495  0.5830  1.3890
 2068TIP3    H227620   4.040   5.890  13.862  1.3935 -0.3335  0.7751
 2069TIP3   OH227621   5.291   0.183  10.619 -0.6809 -0.0576  0.6217
 2069TIP3    H127622   5.245   0.266  10.608 -1.6083 -0.9046 -3.3540
 2069TIP3    H227623   5.347   0.197  10.696 -1.0564  4.0795  0.3843
 2070TIP3   OH227624   1.478   5.028  14.818 -0.1692 -0.2289 -0.3301
 2070TIP3    H127625   1.455   4.935  14.825  0.0986 -0.4381 -1.9048
 2070TIP3    H227626   1.472   5.047  14.724  0.0402  1.2845 -0.0564
 2071TIP3   OH227627   6.674   1.357  11.843  0.4158 -0.0101 -0.1176
 2071TIP3    H127628   6.744   1.316  11.894 -1.6160 -1.6755  1.4943
 2071TIP3    H227629   6.641   1.427  11.900 -0.7744 -0.7917  0.1704
 2072TIP3   OH227630   2.057   3.945  14.580  0.5104  0.5515 -0.5145
 2072TIP3    H127631   1.993   3.990  14.525  0.1185  0.6374  0.0018
 2072TIP3    H227632   2.015   3.939  14.666  1.9537  2.4830  0.4361
 2073TIP3   OH227633   4.123   3.814   1.946 -0.1414 -0.0556 -0.3660
 2073TIP3    H127634   4.031   3.830   1.928 -0.6984 -1.8170  0.6730
 2073TIP3    H227635   4.129   3.807   2.042  0.8029 -1.2669 -0.4795
 2074TIP3   OH227636   0.142   1.458  15.338  0.4862  0.4250 -0.3181
 2074TIP3    H127637   0.193   1.515  15.281 -0.2217  0.0634 -1.3551
 2074TIP3    H227638   0.051   1.480  15.317  0.1862  1.0757  1.4957
 2075TIP3   OH227639   1.394   3.531  14.694 -0.4592 -0.1964 -0.7390
 2075TIP3    H127640   1.441   3.505  14.615  0.7304  0.4371 -0.2694
 2075TIP3    H227641   1.346   3.452  14.720  0.9127 -1.1200 -0.8554
 2076TIP3   OH227642   4.852   6.135  12.888  0.0798  0.0165 -0.2212
 2076TIP3    H127643   4.771   6.186  12.880 -1.6148 -2.3845  0.2464
 2076TIP3    H227644   4.860   6.090  12.803  1.0209  0.3283 -0.3067
 2077TIP3   OH227645   4.727   2.914  12.446 -0.3218 -0.2339  0.4442
 2077TIP3    H127646   4.723   2.818  12.451  0.1931 -0.2613  0.3554
 2077TIP3    H227647   4.680   2.944  12.523 -0.9357 -0.5526  0.2002
 2078TIP3   OH227648   4.238   6.424   2.854 -0.2905 -0.0615 -0.6832
 2078TIP3    H127649   4.215   6.342   2.810  2.2615 -1.8429  1.0279
 2078TIP3    H227650   4.171   6.434   2.922  0.8155 -2.2664  0.8257
 2079TIP3   OH227651   0.627   4.563  10.669 -0.0260  0.3954 -0.5644
 2079TIP3    H127652   0.535   4.537  10.661 -0.2292  0.6827  0.5624
 2079TIP3    H227653   0.623   4.653  10.700  0.6554  0.8070 -1.6511
 2080TIP3   OH227654   5.457   0.709  14.386  0.3336 -0.0043  0.1712
 2080TIP3    H127655   5.362   0.702  14.376  0.1868  1.6001  0.0905
 2080TIP3    H227656   5.491   0.626  14.352 -0.9773 -0.2290 -0.6862
 2081TIP3   OH227657   2.455   3.950  10.790  0.1449 -0.1532 -0.5581
 2081TIP3    H127658   2.404   3.904  10.724 -1.6757  0.7149  0.1965
 2081TIP3    H227659   2.391   3.981  10.854  1.8145 -0.8566  1.5920
 2082TIP3   OH227660   6.388   0.160  12.377 -0.4318  0.3171  0.7120
 2082TIP3    H127661   6.404   0.173  12.470  3.2489 -1.3015  0.5098
 2082TIP3    H227662   6.410   0.244  12.337 -0.2489  0.4927  1.1794
 2083TIP3   OH227663   0.618   3.849   0.574 -0.5011 -0.5100 -0.2468
 2083TIP3    H127664   0.690   3.895   0.530 -0.8444 -0.4989 -0.8079
 2083TIP3    H227665   0.656   3.765   0.600  0.3498  0.3398  1.4489
 2084TIP3   OH227666   1.640   2.625   3.172 -0.5897  0.1783  0.5220
 2084TIP3    H127667   1.716   2.570   3.187  0.6403  1.8993  0.8737
 2084TIP3    H227668   1.674   2.715   3.172 -2.5842  0.9989  0.5276
 2085TIP3   OH227669   6.362   4.584  16.829  0.2020 -0.2894 -0.3203
 2085TIP3    H127670   6.410   4.658  16.791 -0.5122  0.2294 -0.2387
 2085TIP3    H227671   6.419   4.509  16.815  0.4228  0.0707 -1.4541
 2086TIP3   OH227672   4.896   4.357   6.221  0.4368  0.4616  0.3718
 2086TIP3    H127673   4.817   4.405   6.193  0.9169 -0.0569 -2.0531
 2086TIP3    H227674   4.862   4.285   6.275 -0.6647  0.7902  0.1540
 2087TIP3   OH227675   1.803   0.820   1.698  0.3309 -0.4514 -0.6371
 2087TIP3    H127676   1.868   0.890   1.704  0.1567 -0.3758  0.7917
 2087TIP3    H227677   1.849   0.741   1.727 -0.4701 -0.1776  1.5869
 2088TIP3   OH227678   5.214   3.593  15.350 -0.0783  0.4582 -0.4093
 2088TIP3    H127679   5.128   3.600  15.307 -0.3431 -0.3987 -0.0573
 2088TIP3    H227680   5.277   3.595  15.278 -0.5054 -0.7156 -0.8424
 2089TIP3   OH227681   6.075   4.392   2.756  0.3688 -0.6127 -0.3206
 2089TIP3    H127682   6.121   4.347   2.827  1.6124 -0.5362 -1.0347
 2089TIP3    H227683   6.133   4.380   2.680 -0.2528  0.4826 -0.9843
 2090TIP3   OH227684   0.127   2.000   2.367  0.1618 -0.0179 -0.0007
 2090TIP3    H127685   0.079   1.979   2.287  1.9536 -3.2233 -0.3712
 2090TIP3    H227686   0.073   1.965   2.437 -0.8582  1.7898  0.1778
 2091TIP3   OH227687   4.326   2.636  14.921  0.6711 -0.1628  0.4761
 2091TIP3    H127688   4.416   2.608  14.905  0.7469 -0.1705  0.9038
 2091TIP3    H227689   4.309   2.700  14.852  0.5079 -1.2188 -0.4743
 2092TIP3   OH227690   5.522   0.105   2.657  0.0765  0.5580 -0.0552
 2092TIP3    H127691   5.465   0.164   2.608  1.6954  0.9153 -1.5939
 2092TIP3    H227692   5.489   0.109   2.747 -2.1717  0.8857 -0.8364
 2093TIP3   OH227693   2.552   6.769  15.092  0.0142 -0.1245  0.4070
 2093TIP3    H127694   2.537   6.859  15.120  1.6805  0.1471  0.5462
 2093TIP3    H227695   2.551   6.718  15.173 -0.4697 -0.1749  0.3743
 2094TIP3   OH227696   6.161   3.376   5.703  0.9253  0.7470 -0.2316
 2094TIP3    H127697   6.101   3.402   5.772  0.7121  0.1839 -0.1976
 2094TIP3    H227698   6.249   3.393   5.739  0.8361 -0.1198  0.4194
 2095TIP3   OH227699   2.371   5.487   4.752 -0.2155  0.1330 -0.1721
 2095TIP3    H127700   2.410   5.405   4.721 -0.8651  0.4126 -1.8189
 2095TIP3    H227701   2.423   5.556   4.710 -0.1933  0.5716  0.5541
 2096TIP3   OH227702   4.336   6.087   5.900 -0.0742 -0.6201  0.2996
 2096TIP3    H127703   4.409   6.147   5.887 -0.2674 -0.1046  1.4929
 2096TIP3    H227704   4.358   6.038   5.979 -1.2568 -0.0680  1.0083
 2097TIP3   OH227705   3.936   0.486   4.470 -0.6030 -0.1281  0.6998
 2097TIP3    H127706   3.981   0.552   4.522  0.2627 -0.0201 -0.1572
 2097TIP3    H227707   3.969   0.402   4.504 -1.1178 -0.1081  1.2660
 2098TIP3   OH227708   1.106   5.207  12.725  0.3396  0.4246 -0.0506
 2098TIP3    H127709   1.144   5.187  12.811 -4.0359 -1.1237  1.8461
 2098TIP3    H227710   1.073   5.122  12.694 -1.0819  1.5191 -1.6768
 2099TIP3   OH227711   3.696   6.068   4.085  0.0233  0.0514 -0.0752
 2099TIP3    H127712   3.673   6.038   3.997 -0.3375 -1.9556  0.6454
 2099TIP3    H227713   3.665   6.159   4.089 -2.3274 -0.6377 -1.1699
 2100TIP3   OH227714   5.366   2.282   0.301 -0.3009 -0.0007  0.7255
 2100TIP3    H127715   5.282   2.323   0.277  0.3229  0.8577 -0.0605
 2100TIP3    H227716   5.417   2.354   0.338  0.3023 -0.3892  0.6471
 2101TIP3   OH227717   5.381   0.151   1.520  0.4839 -0.0736 -0.4120
 2101TIP3    H127718   5.352   0.075   1.570  0.8088 -1.2807 -1.9490
 2101TIP3    H227719   5.447   0.193   1.575 -0.2192 -0.4803  0.7705
 2102TIP3   OH227720   3.436   0.547   4.981  0.0193  0.0567 -0.4034
 2102TIP3    H127721   3.360   0.495   5.006  1.5382 -2.2830 -0.3330
 2102TIP3    H227722   3.436   0.545   4.885  0.0320 -0.0182 -0.4021
 2103TIP3   OH227723   1.279   2.060  10.681 -0.4139 -0.5130 -0.0729
 2103TIP3    H127724   1.259   1.966  10.674 -0.5952 -0.3774 -1.6911
 2103TIP3    H227725   1.323   2.082  10.599  1.2483  0.4682  1.0190
 2104TIP3   OH227726   1.489   5.469   3.624  0.1615 -0.0019  0.6214
 2104TIP3    H127727   1.546   5.429   3.558  0.2773  0.9055  0.1601
 2104TIP3    H227728   1.512   5.425   3.705 -0.2622 -1.4326  0.0068
 2105TIP3   OH227729   4.296   1.044  13.358  0.0591  0.2639  0.0481
 2105TIP3    H127730   4.332   1.098  13.288  1.7610 -0.9995 -0.1145
 2105TIP3    H227731   4.278   0.959  13.316 -1.7266  0.3831  0.4940
 2106TIP3   OH227732   1.894   3.756  14.309  0.0162  0.2601 -0.8953
 2106TIP3    H127733   1.883   3.847  14.336  1.2651  0.4327 -0.9204
 2106TIP3    H227734   1.962   3.759  14.241  0.2521 -0.7122 -0.7164
 2107TIP3   OH227735   3.272   5.361   1.138 -0.4284  0.1301  0.0374
 2107TIP3    H127736   3.180   5.369   1.164 -1.4956 -0.0096 -3.1347
 2107TIP3    H227737   3.320   5.413   1.202 -2.5012 -0.8605  2.5773
 2108TIP3   OH227738   0.750   5.614   0.386  0.2389 -0.1029  0.4465
 2108TIP3    H127739   0.806   5.685   0.353  0.0209  0.3691  1.0728
 2108TIP3    H227740   0.781   5.598   0.475  1.6243 -2.2004 -0.3394
 2109TIP3   OH227741   6.788   1.653   4.791 -0.2781  0.4534 -0.0196
 2109TIP3    H127742   6.816   1.657   4.883  0.0905 -1.8159  0.0391
 2109TIP3    H227743   6.864   1.618   4.745 -0.6032  1.1938 -1.1370
 2110TIP3   OH227744   1.620   5.212  11.934 -0.6631 -0.6067 -0.1556
 2110TIP3    H127745   1.532   5.186  11.961 -1.1807 -0.6573 -1.7600
 2110TIP3    H227746   1.665   5.129  11.916 -0.3680 -0.5718  0.4101
 2111TIP3   OH227747   4.909   0.155  13.756  0.0511 -0.0850 -0.9848
 2111TIP3    H127748   4.914   0.072  13.708 -0.4162 -1.4389  1.1837
 2111TIP3    H227749   5.000   0.185  13.760  0.1913 -0.3103 -2.0439
 2112TIP3   OH227750   3.415   1.034  15.660  0.5198 -0.2613 -0.1604
 2112TIP3    H127751   3.368   1.096  15.715  1.1564 -0.3378  0.4832
 2112TIP3    H227752   3.347   0.981  15.618  0.0022  0.4180 -0.1766
 2113TIP3   OH227753   3.398   3.162   3.472  0.7153 -0.2217  0.1785
 2113TIP3    H127754   3.397   3.256   3.456 -1.1970 -0.5556 -2.2988
 2113TIP3    H227755   3.480   3.132   3.433  1.7849  0.4365  1.7782
 2114TIP3   OH227756   3.371   4.387  14.755 -0.1901  0.4019 -0.4460
 2114TIP3    H127757   3.285   4.429  14.756 -0.4895 -0.2071 -0.2012
 2114TIP3    H227758   3.375   4.339  14.838  0.5467  0.7384 -0.2802
 2115TIP3   OH227759   3.660   2.112   2.839  0.1526 -0.4352 -0.3716
 2115TIP3    H127760   3.594   2.153   2.895  0.5116 -2.0782  1.3827
 2115TIP3    H227761   3.743   2.133   2.882  0.3871 -2.3110  0.1857
 2116TIP3   OH227762   2.676   0.540  11.963  0.2643  0.0639  0.0490
 2116TIP3    H127763   2.622   0.619  11.961  0.1711  0.0439 -3.0898
 2116TIP3    H227764   2.613   0.468  11.971 -0.1699  0.1021 -2.4222
 2117TIP3   OH227765   2.759   2.479  15.624  0.1776 -0.4943 -0.3951
 2117TIP3    H127766   2.844   2.515  15.647 -0.3394 -0.7824  2.3287
 2117TIP3    H227767   2.751   2.399  15.677 -1.9229 -0.2325 -0.2014
 2118TIP3   OH227768   5.884   3.413   0.454 -0.1568 -0.0766  0.4319
 2118TIP3    H127769   5.827   3.395   0.529  0.5527 -0.9588  0.7733
 2118TIP3    H227770   5.947   3.341   0.454  0.5254  0.5075 -0.3589
 2119TIP3   OH227771   0.677   6.357   4.270 -0.5121 -0.4465 -0.2177
 2119TIP3    H127772   0.648   6.431   4.323 -1.7806 -1.2406  0.2490
 2119TIP3    H227773   0.701   6.289   4.333 -0.1707 -0.7351 -0.6434
 2120TIP3   OH227774   0.958   0.683  11.695 -0.0418  0.1845  0.2864
 2120TIP3    H127775   1.040   0.725  11.669  0.1895 -0.7027 -0.5016
 2120TIP3    H227776   0.966   0.671  11.790 -0.7071  3.0811  0.7974
 2121TIP3   OH227777   2.747   6.726   5.671  0.4770  0.0237  0.2778
 2121TIP3    H127778   2.741   6.814   5.635 -0.7890  0.7461  2.0875
 2121TIP3    H227779   2.806   6.734   5.746 -0.5213 -0.3763  1.1435
 2122TIP3   OH227780   1.956   1.318   1.851  0.3711  0.2331  0.2707
 2122TIP3    H127781   1.951   1.363   1.767 -2.1328 -2.1876 -1.0165
 2122TIP3    H227782   2.049   1.303   1.865  1.1613  3.7441 -0.2453
 2123TIP3   OH227783   0.148   3.592  17.207  0.0883  0.1505  0.7665
 2123TIP3    H127784   0.169   3.581  17.114 -1.0362  1.4634  0.3135
 2123TIP3    H227785   0.228   3.626  17.246  0.4480 -0.0277  0.1936
 2124TIP3   OH227786   6.326   3.898  13.311  0.8789 -0.0527 -0.1898
 2124TIP3    H127787   6.406   3.869  13.354  0.2415 -0.6838  0.6301
 2124TIP3    H227788   6.274   3.818  13.302  0.0316  0.4606  0.0132
 2125TIP3   OH227789   1.895   5.662  15.813  0.1521 -0.2358 -0.0102
 2125TIP3    H127790   1.834   5.611  15.867  0.1476  1.4322  1.6549
 2125TIP3    H227791   1.974   5.609  15.809 -0.4750 -1.2032  0.1111
 2126TIP3   OH227792   0.471   0.650   0.784 -0.6129  0.4668 -0.4487
 2126TIP3    H127793   0.389   0.629   0.827  0.0964 -2.1899 -0.1959
 2126TIP3    H227794   0.511   0.564   0.765  0.5686  1.5425 -3.5728
 2127TIP3   OH227795   3.123   1.627  13.674  0.4749 -0.3084  0.3537
 2127TIP3    H127796   3.123   1.539  13.637  0.2799 -0.1496 -0.0379
 2127TIP3    H227797   3.209   1.637  13.714  1.0468 -0.1643 -0.8633
 2128TIP3   OH227798   1.577   5.484  12.575 -0.0431 -1.1275  0.7877
 2128TIP3    H127799   1.482   5.485  12.575 -0.0666 -2.1404  1.3185
 2128TIP3    H227800   1.601   5.399  12.614  1.0684 -0.4307  1.7026
 2129TIP3   OH227801   3.562   2.914  13.441  0.3376  0.2021 -0.2713
 2129TIP3    H127802   3.469   2.931  13.423 -0.4110 -2.2927  0.7152
 2129TIP3    H227803   3.584   2.973  13.513 -0.8140  0.1306  0.1641
 2130TIP3   OH227804   2.360   1.883   0.769  0.5668 -0.1617 -0.2971
 2130TIP3    H127805   2.434   1.833   0.734  0.3154 -0.4825 -0.3773
 2130TIP3    H227806   2.399   1.942   0.833  0.6891 -1.5869  0.9978
 2131TIP3   OH227807   4.049   0.652   0.196  0.7778 -0.3390 -0.3528
 2131TIP3    H127808   4.080   0.737   0.165 -0.2633 -0.2409 -1.1658
 2131TIP3    H227809   4.121   0.620   0.251  0.7451  1.5647  0.9165
 2132TIP3   OH227810   4.625   4.281   2.634  0.1702 -0.5455  0.0628
 2132TIP3    H127811   4.718   4.284   2.609  0.2540 -2.6821 -0.0443
 2132TIP3    H227812   4.612   4.192   2.666 -1.6551 -0.0082  0.9322
 2133TIP3   OH227813   6.028   1.389  13.679  0.7595 -0.3762 -0.1019
 2133TIP3    H127814   5.968   1.324  13.642  2.3727 -1.4544 -0.8967
 2133TIP3    H227815   5.988   1.473  13.656 -0.5072 -1.0632 -0.5004
 2134TIP3   OH227816   3.809   3.338   3.949  0.7069  0.2374 -0.2510
 2134TIP3    H127817   3.900   3.349   3.922  0.9042 -0.9320 -0.1214
 2134TIP3    H227818   3.813   3.324   4.044  0.4846 -0.5964 -0.3502
 2135TIP3   OH227819   5.217   1.734  13.756  0.3220  0.3909  0.1887
 2135TIP3    H127820   5.221   1.827  13.778  0.6987  0.1919  0.9835
 2135TIP3    H227821   5.286   1.694  13.808 -1.0580 -0.6143  1.3564
 2136TIP3   OH227822   1.349   6.045  12.684 -0.7920  0.9885 -0.1297
 2136TIP3    H127823   1.357   6.028  12.590 -0.3807  1.1824 -0.1349
 2136TIP3    H227824   1.345   5.958  12.724  1.2161  0.8267 -0.1642
 2137TIP3   OH227825   5.078   3.055   5.468  0.1637 -0.3659  0.1200
 2137TIP3    H127826   5.114   3.058   5.556 -0.7147 -2.2694  0.5917
 2137TIP3    H227827   4.984   3.062   5.479  0.0683 -0.1023 -0.7269
 2138TIP3   OH227828   0.882   0.621   3.450  0.5821 -0.2067 -0.2249
 2138TIP3    H127829   0.925   0.549   3.404  1.5532  1.1644 -1.5754
 2138TIP3    H227830   0.927   0.700   3.419 -1.2867  1.1054  0.2170
 2139TIP3   OH227831   3.040   2.027  16.039 -0.1437 -0.0310 -0.1580
 2139TIP3    H127832   3.052   2.070  15.954 -0.4674 -0.4302 -0.4099
 2139TIP3    H227833   3.083   1.941  16.029 -0.8987 -0.4133 -0.2009
 2140TIP3   OH227834   3.775   1.419   4.652 -0.4329 -0.0599  0.0275
 2140TIP3    H127835   3.856   1.371   4.672 -0.6790 -1.6765 -2.3672
 2140TIP3    H227836   3.713   1.391   4.719  0.6429  0.3178  1.2225
 2141TIP3   OH227837   3.197   6.307   0.524 -0.4362 -0.1975 -0.5735
 2141TIP3    H127838   3.260   6.291   0.595  3.8314 -1.9533 -4.2802
 2141TIP3    H227839   3.195   6.402   0.516 -0.2968  0.0060  1.2334
 2142TIP3   OH227840   1.480   3.505   2.294  0.0024 -0.3392  0.3235
 2142TIP3    H127841   1.506   3.546   2.377  2.6247 -0.5555 -0.3188
 2142TIP3    H227842   1.437   3.576   2.246 -0.7022  0.0483  1.4693
 2143TIP3   OH227843   0.641   4.104   5.400  0.1280 -0.0653 -0.6828
 2143TIP3    H127844   0.564   4.049   5.417 -0.0816  0.7051  1.0079
 2143TIP3    H227845   0.618   4.154   5.321 -0.7100 -0.5221 -0.7361
 2144TIP3   OH227846   6.077   4.052   4.212  0.6161  0.0322 -0.6657
 2144TIP3    H127847   6.056   4.145   4.201  1.1101  0.0305 -1.8132
 2144TIP3    H227848   6.080   4.039   4.307  2.3785  1.6363 -0.4457
 2145TIP3   OH227849   1.941   1.877   0.198  0.6422  0.0155 -0.6110
 2145TIP3    H127850   1.946   1.806   0.262 -1.3823  0.5922  0.2733
 2145TIP3    H227851   1.935   1.833   0.114  2.0953 -0.7806 -0.3298
 2146TIP3   OH227852   2.129   4.272   0.465  0.2590  0.3744  0.7036
 2146TIP3    H127853   2.046   4.230   0.444 -0.1448  2.2089 -1.7776
 2146TIP3    H227854   2.105   4.358   0.498  1.1589  0.6707  0.6097
 2147TIP3   OH227855   3.448   3.966  14.159  0.0591  0.8331  0.4220
 2147TIP3    H127856   3.494   4.043  14.193 -1.9397  1.0663  2.9277
 2147TIP3    H227857   3.356   3.994  14.154 -0.7381 -1.3560  1.4656
 2148TIP3   OH227858   6.727   5.316  16.965 -0.2897 -0.7204  0.3297
 2148TIP3    H127859   6.638   5.299  16.996 -1.3344  1.9912 -0.8609
 2148TIP3    H227860   6.769   5.366  17.036 -1.4498  2.2508 -0.9170
 2149TIP3   OH227861   2.131   4.119  16.347  0.0301 -0.5337  0.5890
 2149TIP3    H127862   2.040   4.118  16.378 -0.6623  1.1923 -1.1629
 2149TIP3    H227863   2.173   4.190  16.395  0.2932 -0.9169  0.9345
 2150TIP3   OH227864   1.197   5.029   3.932  0.1546  0.6765 -0.6125
 2150TIP3    H127865   1.133   5.096   3.906  0.7885  1.5182 -0.0458
 2150TIP3    H227866   1.152   4.978   3.999  0.1749  1.4605  0.0061
 2151TIP3   OH227867   5.512   3.568   3.836  0.1863  0.6911  0.2782
 2151TIP3    H127868   5.463   3.646   3.811  0.2883  1.1189  1.3534
 2151TIP3    H227869   5.604   3.593   3.830  0.2090  0.8976  1.3286
 2152TIP3   OH227870   3.830   1.659   3.946  0.5611 -0.0169 -0.3106
 2152TIP3    H127871   3.767   1.696   4.007  1.6149  0.4677  0.4997
 2152TIP3    H227872   3.895   1.728   3.933  0.7542 -0.3860 -1.3986
 2153TIP3   OH227873   0.615   3.177   4.220  0.5894 -0.3313 -0.1819
 2153TIP3    H127874   0.567   3.094   4.216 -0.8586  0.4917 -1.2855
 2153TIP3    H227875   0.549   3.241   4.249  1.5105  0.5311  0.0635
 2154TIP3   OH227876   4.658   4.022  15.543 -0.4667  0.5158  0.0465
 2154TIP3    H127877   4.603   4.082  15.492 -1.1857 -0.1195  0.0681
 2154TIP3    H227878   4.695   3.962  15.478 -0.2663  0.5682  0.1091
 2155TIP3   OH227879   3.214   4.440  16.545  0.2967 -0.3821  0.1965
 2155TIP3    H127880   3.171   4.378  16.605  0.3193  1.6213  2.4229
 2155TIP3    H227881   3.157   4.517  16.545  1.2632  0.3592 -0.9405
 2156TIP3   OH227882   6.775   1.797  16.629 -0.0164  0.6652  0.4174
 2156TIP3    H127883   6.763   1.886  16.662 -0.6061  0.3410  1.0878
 2156TIP3    H227884   6.687   1.758  16.631  0.6274 -0.9395  3.0668
 2157TIP3   OH227885   1.259   3.780   4.877  0.0947 -0.3030 -0.7013
 2157TIP3    H127886   1.320   3.716   4.912 -1.7741 -0.9666  1.6265
 2157TIP3    H227887   1.262   3.853   4.939 -1.0884 -0.1391 -0.8158
 2158TIP3   OH227888   0.445   1.489   3.658 -0.8435 -0.1381 -0.8945
 2158TIP3    H127889   0.512   1.484   3.726 -2.0018 -1.4134  0.2016
 2158TIP3    H227890   0.460   1.412   3.603 -1.3874 -0.3984 -0.6761
 2159TIP3   OH227891   4.580   0.844   1.569  0.1263 -0.0552 -0.1282
 2159TIP3    H127892   4.493   0.873   1.541  0.8418  0.7378 -1.6241
 2159TIP3    H227893   4.605   0.775   1.508  0.5563 -0.2886  0.2976
 2160TIP3   OH227894   2.893   4.909  13.073 -0.0202  0.0755 -0.0134
 2160TIP3    H127895   2.838   4.847  13.026 -2.0187  0.2905  1.8831
 2160TIP3    H227896   2.832   4.967  13.118  1.7886  2.1435 -0.0555
 2161TIP3   OH227897   5.741   0.465   3.540 -0.5291  0.0955 -0.0140
 2161TIP3    H127898   5.800   0.425   3.476  1.4524  1.8174  0.6263
 2161TIP3    H227899   5.722   0.395   3.603  2.3500 -0.1030  0.7614
 2162TIP3   OH227900   2.772   5.411  13.460 -0.3011  0.0941  0.0414
 2162TIP3    H127901   2.813   5.491  13.495 -0.7915  0.7703 -0.8941
 2162TIP3    H227902   2.806   5.341  13.516  0.1383  0.9519  0.8889
 2163TIP3   OH227903   4.373   5.336  13.387  0.1580  0.0704 -0.3720
 2163TIP3    H127904   4.423   5.412  13.357 -0.4807 -0.1128 -1.9820
 2163TIP3    H227905   4.288   5.344  13.345  0.0482 -1.5046 -0.5247
 2164TIP3   OH227906   5.078   1.014  16.520 -0.0824 -0.2021 -0.1802
 2164TIP3    H127907   5.016   1.035  16.589  0.4362  1.8897 -0.2756
 2164TIP3    H227908   5.100   0.922  16.534 -1.6409 -0.4232  1.0740
 2165TIP3   OH227909   0.268   3.703   1.710 -0.3374  0.4109  0.5025
 2165TIP3    H127910   0.330   3.774   1.693 -0.5654  0.5828  0.3870
 2165TIP3    H227911   0.292   3.635   1.648 -1.2396  1.0765 -0.6068
 2166TIP3   OH227912   2.537   0.466  12.662  0.3914 -0.1397 -0.4446
 2166TIP3    H127913   2.587   0.543  12.636 -1.6120  0.1010 -4.4390
 2166TIP3    H227914   2.456   0.472  12.611 -0.7674 -3.8200  0.6350
 2167TIP3   OH227915   0.278   0.249   3.263 -0.6309  0.3009 -0.0439
 2167TIP3    H127916   0.268   0.211   3.350  0.1580 -0.8765 -0.4259
 2167TIP3    H227917   0.305   0.339   3.278  0.0123 -0.0388  0.9529
 2168TIP3   OH227918   1.319   4.502  16.093  0.0612 -0.1469 -0.3900
 2168TIP3    H127919   1.369   4.424  16.113 -0.2232 -1.1970 -3.3431
 2168TIP3    H227920   1.236   4.490  16.140  0.1603 -1.4364 -0.5251
 2169TIP3   OH227921   2.267   3.081   5.218 -0.0176  0.2919  0.1152
 2169TIP3    H127922   2.354   3.057   5.189  0.0260  1.2971 -0.6513
 2169TIP3    H227923   2.264   3.056   5.310  0.6855 -0.7605 -0.1375
 2170TIP3   OH227924   4.662   0.813  12.851 -0.5998  0.4059  0.0950
 2170TIP3    H127925   4.632   0.840  12.938 -0.5533  0.4366  0.1023
 2170TIP3    H227926   4.601   0.855  12.791  0.9238  2.6590 -0.0374
 2171TIP3   OH227927   0.657   2.989  11.620  0.6609  0.0342  0.1826
 2171TIP3    H127928   0.712   3.066  11.607 -1.7025  1.5847 -1.1899
 2171TIP3    H227929   0.659   2.943  11.536  1.0652 -0.7889  0.6199
 2172TIP3   OH227930   3.412   4.901   2.169 -0.2102 -0.1415 -0.4413
 2172TIP3    H127931   3.452   4.932   2.251 -1.7632 -0.3393  0.4345
 2172TIP3    H227932   3.367   4.820   2.194 -0.1200 -0.5839 -1.6611
 2173TIP3   OH227933   4.141   1.720   2.499  0.0180  0.1595 -0.1878
 2173TIP3    H127934   4.198   1.787   2.462  0.0236 -0.0816 -0.6289
 2173TIP3    H227935   4.053   1.755   2.492  0.1327  0.7032  0.8608
 2174TIP3   OH227936   0.326   2.141  17.212 -0.1389  0.1066  0.8083
 2174TIP3    H127937   0.348   2.164  17.303 -1.3331  2.4970  0.5916
 2174TIP3    H227938   0.360   2.214  17.161 -0.7891 -0.4783 -0.4934
 2175TIP3   OH227939   0.826   5.960   5.954  0.0553 -0.3573 -0.2743
 2175TIP3    H127940   0.893   6.028   5.965 -0.0492 -0.1865 -0.6973
 2175TIP3    H227941   0.812   5.927   6.043  0.3619 -0.0720 -0.1156
 2176TIP3   OH227942   0.428   6.024  11.672  0.2109 -0.3990 -0.0299
 2176TIP3    H127943   0.485   6.023  11.595 -0.9995 -0.1898 -0.9515
 2176TIP3    H227944   0.339   6.022  11.637 -0.3719 -0.2541  1.3623
 2177TIP3   OH227945   4.703   5.841   4.898 -0.3001  0.2487  0.3300
 2177TIP3    H127946   4.766   5.782   4.857 -0.3679  0.6699 -0.3948
 2177TIP3    H227947   4.695   5.914   4.837 -0.3635  0.9199  1.1219
 2178TIP3   OH227948   1.134   1.173  10.680 -0.5950 -0.2126  0.2987
 2178TIP3    H127949   1.160   1.216  10.598 -0.0711 -0.6700  0.2179
 2178TIP3    H227950   1.215   1.163  10.729 -0.5794 -1.6824  0.0371
 2179TIP3   OH227951   6.518   5.823  16.236 -0.5172  0.3138 -0.2523
 2179TIP3    H127952   6.489   5.826  16.327 -0.2532  1.9735 -0.2001
 2179TIP3    H227953   6.553   5.910  16.219 -1.4875  0.3606 -2.2513
 2180TIP3   OH227954   5.724   1.646  13.785  0.2518 -0.2102  0.1564
 2180TIP3    H127955   5.638   1.688  13.781  0.5400  0.3645 -0.0777
 2180TIP3    H227956   5.714   1.580  13.853 -0.7088 -0.9219 -0.6475
 2181TIP3   OH227957   6.434   6.540   3.752 -0.4688  0.9182 -0.3425
 2181TIP3    H127958   6.419   6.613   3.813 -0.0301  0.2058  0.6424
 2181TIP3    H227959   6.530   6.536   3.742 -0.4413  0.0133  0.2019
 2182TIP3   OH227960   4.656   3.423  12.880  0.3632  0.3109  0.3209
 2182TIP3    H127961   4.625   3.357  12.941  0.7823  0.4135  0.6537
 2182TIP3    H227962   4.636   3.506  12.923  1.3478  0.3735  0.6687
 2183TIP3   OH227963   0.829   3.827  15.526 -0.3540  0.3751  0.2281
 2183TIP3    H127964   0.925   3.832  15.525 -0.1012 -2.2233  1.8409
 2183TIP3    H227965   0.807   3.768  15.454 -0.6478  0.1814  0.4712
 2184TIP3   OH227966   3.173   0.681  14.574 -0.3806 -0.0343  1.0167
 2184TIP3    H127967   3.192   0.647  14.662  0.6144  0.2187  0.9192
 2184TIP3    H227968   3.109   0.621  14.538  0.1797 -0.9079  1.4335
 2185TIP3   OH227969   1.694   4.685  15.647 -0.0538  0.1993  0.9836
 2185TIP3    H127970   1.717   4.724  15.562 -1.1929  0.3917  0.7474
 2185TIP3    H227971   1.778   4.657  15.683  0.3293 -1.5023 -0.9862
 2186TIP3   OH227972   5.673   4.796   2.873 -0.6321 -0.3527  0.0246
 2186TIP3    H127973   5.703   4.826   2.959 -1.5970  0.1291  0.2087
 2186TIP3    H227974   5.713   4.709   2.862  2.1207  0.8606 -0.4617
 2187TIP3   OH227975   2.906   2.812  12.084  0.2661 -0.3927 -0.2281
 2187TIP3    H127976   2.845   2.860  12.140  1.0159  0.5562 -0.2019
 2187TIP3    H227977   2.851   2.750  12.037 -0.6817  0.2502  0.0026
 2188TIP3   OH227978   0.184   5.855   5.853  0.1362 -0.0736  0.3494
 2188TIP3    H127979   0.278   5.861   5.871 -0.1190  2.1718  1.3086
 2188TIP3    H227980   0.173   5.900   5.769  0.0073 -1.2121 -0.2639
 2189TIP3   OH227981   6.757   3.443   2.341 -0.2087 -0.2185 -0.2343
 2189TIP3    H127982   6.748   3.394   2.423 -0.7557 -0.7632 -0.6156
 2189TIP3    H227983   6.849   3.470   2.340 -0.8087  2.3508  1.9849
 2190TIP3   OH227984   3.220   0.396  15.773 -0.2686 -0.2901 -0.2748
 2190TIP3    H127985   3.299   0.367  15.819  0.0044  0.1005 -0.4869
 2190TIP3    H227986   3.197   0.323  15.716 -0.9194 -1.0000  0.8425
 2191TIP3   OH227987   0.290   4.980  11.102  0.0649 -0.0013 -0.7624
 2191TIP3    H127988   0.356   5.047  11.120  0.9391 -0.3057 -2.5721
 2191TIP3    H227989   0.283   4.931  11.184  0.7784  1.1309  0.0111
 2192TIP3   OH227990   3.501   1.176  13.958 -0.0142  0.5620  0.5909
 2192TIP3    H127991   3.441   1.233  13.909  0.3281  3.4411  3.2098
 2192TIP3    H227992   3.588   1.200  13.926  0.0864  1.1353  1.2511
 2193TIP3   OH227993   0.902   2.912  13.508  0.0099  0.3850  0.2334
 2193TIP3    H127994   0.896   2.999  13.467 -0.0856  0.2407 -0.0549
 2193TIP3    H227995   0.976   2.921  13.568  1.3974  0.0469 -1.3451
 2194TIP3   OH227996   5.952   4.514  12.889 -0.6172 -0.0107 -0.0166
 2194TIP3    H127997   5.963   4.509  12.794  0.1395  1.7752 -0.0781
 2194TIP3    H227998   6.014   4.451  12.925  0.2236  0.4154 -0.6929
 2195TIP3   OH227999   1.013   2.518   3.975 -0.0185  0.0325  0.0308
 2195TIP3    H128000   0.935   2.464   3.965 -0.5930  1.0012 -0.8848
 2195TIP3    H228001   0.982   2.608   3.967  1.2721  0.4142 -1.0026
 2196TIP3   OH228002   5.491   3.747   0.168  0.6700 -0.1797 -0.3521
 2196TIP3    H128003   5.481   3.652   0.179 -0.1021 -0.0070  0.5574
 2196TIP3    H228004   5.403   3.777   0.142  0.5968  0.4385  0.5815
 2197TIP3   OH228005   1.434   2.220   3.737  0.3806 -0.5232 -0.0631
 2197TIP3    H128006   1.358   2.218   3.796 -0.5216 -2.0217 -1.1910
 2197TIP3    H228007   1.439   2.311   3.708 -1.1667 -0.4387 -0.1657
 2198TIP3   OH228008   4.968   3.738  15.255  0.2023  0.2082 -0.1124
 2198TIP3    H128009   4.889   3.696  15.220 -0.8071  0.9607  1.1639
 2198TIP3    H228010   4.959   3.830  15.232  0.6081  0.3293  0.1985
 2199TIP3   OH228011   4.645   1.556   4.567  0.1445  0.3192 -0.1687
 2199TIP3    H128012   4.639   1.510   4.651  0.0542  0.4985 -0.0753
 2199TIP3    H228013   4.644   1.649   4.590  1.0855  0.3742 -0.3074
 2200TIP3   OH228014   2.818   4.037  13.878  0.1316 -0.0981 -0.5763
 2200TIP3    H128015   2.805   4.078  13.793  0.1061 -0.2615 -0.6507
 2200TIP3    H228016   2.782   4.100  13.941 -0.6850 -0.3796 -0.7473
 2201TIP3   OH228017   5.520   5.244  14.077  0.2411 -0.0058 -0.0725
 2201TIP3    H128018   5.436   5.229  14.033 -0.2967 -1.6699  1.4218
 2201TIP3    H228019   5.526   5.340  14.084 -3.3595  0.2537  2.9718
 2202TIP3   OH228020   2.025   1.992   4.781 -0.4064 -0.3160 -0.6276
 2202TIP3    H128021   2.013   2.018   4.689 -1.0190 -0.0643 -0.4841
 2202TIP3    H228022   1.938   1.966   4.810 -0.0832 -1.0862 -0.3180
 2203TIP3   OH228023   4.151   4.502   5.042 -0.0861 -0.6243 -0.4310
 2203TIP3    H128024   4.201   4.583   5.055  3.2555 -2.2366 -1.8853
 2203TIP3    H228025   4.137   4.469   5.131  2.3101 -0.4640  0.0945
 2204TIP3   OH228026   5.008   5.073  12.061 -0.2385 -0.1601 -0.7683
 2204TIP3    H128027   5.025   5.107  12.149  2.7125 -1.1307 -0.8294
 2204TIP3    H228028   5.000   4.978  12.073  0.5220 -0.3369 -1.5602
 2205TIP3   OH228029   5.533   0.656   1.686 -0.0395 -0.1382 -0.5208
 2205TIP3    H128030   5.502   0.722   1.623  2.1420  0.4359 -1.0832
 2205TIP3    H228031   5.617   0.627   1.650  0.7865 -0.5376  1.6329
 2206TIP3   OH228032   6.303   3.793   4.185 -0.3815  0.5468 -0.2063
 2206TIP3    H128033   6.311   3.790   4.280  0.5270  1.1442 -0.2481
 2206TIP3    H228034   6.346   3.713   4.155  1.5406  1.5270 -0.2046
 2207TIP3   OH228035   5.946   4.591  13.522  0.1659 -0.1745 -0.7127
 2207TIP3    H128036   5.976   4.576  13.432 -1.2644  0.5685 -1.3539
 2207TIP3    H228037   5.937   4.686  13.529  0.3381 -0.2157  0.2586
 2208TIP3   OH228038   1.482   5.650  14.326  0.0826 -0.1222 -0.3931
 2208TIP3    H128039   1.552   5.668  14.263 -0.3646  1.4417 -0.4842
 2208TIP3    H228040   1.406   5.696  14.291 -0.1841  0.7625  1.2742
 2209TIP3   OH228041   0.938   3.902   1.083 -0.2129 -0.2537 -0.2242
 2209TIP3    H128042   0.998   3.876   1.153  0.2657  0.2723 -0.4266
 2209TIP3    H228043   0.991   3.900   1.004 -0.6492 -0.4649 -0.5158
 2210TIP3   OH228044   2.026   6.260   0.558  0.0695 -0.2873 -0.0678
 2210TIP3    H128045   2.101   6.280   0.503  0.2649 -0.0012  0.3015
 2210TIP3    H228046   2.032   6.322   0.631  1.2220 -2.2234  1.6066
 2211TIP3   OH228047   0.055   4.364  12.492  0.5593 -0.0131 -0.1546
 2211TIP3    H128048   0.085   4.454  12.497  1.1368 -0.1904 -0.3206
 2211TIP3    H228049   0.027   4.352  12.402 -0.7533  0.3706  0.1767
 2212TIP3   OH228050   5.190   6.583  12.579  0.1656  0.0536  0.2953
 2212TIP3    H128051   5.124   6.515  12.586 -0.5049  0.6071 -0.4145
 2212TIP3    H228052   5.142   6.660  12.549  0.9950  0.6984  0.5696
 2213TIP3   OH228053   0.226   0.059  11.347  0.3122  0.4908 -0.5497
 2213TIP3    H128054   0.321   0.052  11.343  0.3154  0.4633 -0.4191
 2213TIP3    H228055   0.196  -0.032  11.344  0.2466  0.5332 -1.7278
 2214TIP3   OH228056   5.427   1.972   2.279 -0.1419  0.3157  0.3660
 2214TIP3    H128057   5.360   1.913   2.312  0.5091 -0.6545  0.0084
 2214TIP3    H228058   5.391   2.060   2.292 -1.4573 -0.1794  0.2185
 2215TIP3   OH228059   2.696   2.002   6.547  0.2323 -0.4339 -0.4031
 2215TIP3    H128060   2.759   1.942   6.507  0.6704 -0.4601  0.3130
 2215TIP3    H228061   2.740   2.036   6.625 -0.8245 -0.8382  0.3937
 2216TIP3   OH228062   2.042   4.849   4.458 -0.1347  0.0553  0.5333
 2216TIP3    H128063   1.962   4.824   4.504 -0.7318  1.4449  0.3047
 2216TIP3    H228064   2.090   4.767   4.447 -1.4382 -0.7776  0.8310
 2217TIP3   OH228065   1.496   3.032   5.219  0.3848 -0.4730  0.2300
 2217TIP3    H128066   1.518   2.961   5.280 -0.2759  1.4782  2.9054
 2217TIP3    H228067   1.580   3.074   5.201  0.6018 -1.1306 -0.3331
 2218TIP3   OH228068   5.670   2.499  11.328  0.3182  0.3129 -0.3128
 2218TIP3    H128069   5.656   2.494  11.423 -0.2852  1.6556 -0.3018
 2218TIP3    H228070   5.704   2.413  11.304  2.4953  0.5949  1.4342
 2219TIP3   OH228071   1.904   3.828   6.063 -0.0735  0.2481 -0.2224
 2219TIP3    H128072   1.982   3.775   6.044  0.7633  0.4942  2.1304
 2219TIP3    H228073   1.833   3.764   6.072  0.1212 -0.1024 -1.1242
 2220TIP3   OH228074   5.852   5.694  15.385  0.5644  0.3024 -0.4535
 2220TIP3    H128075   5.762   5.705  15.353 -0.1858 -2.3874  0.4605
 2220TIP3    H228076   5.907   5.705  15.307 -0.8286 -1.1008 -1.7000
 2221TIP3   OH228077   3.669   3.176  14.860 -0.1667 -0.4202 -0.1718
 2221TIP3    H128078   3.754   3.185  14.901 -0.8986 -0.3922  1.4101
 2221TIP3    H228079   3.684   3.197  14.767  1.0584  2.1923  0.5234
 2222TIP3   OH228080   3.771   1.806  16.332  0.0333  0.2609  0.2662
 2222TIP3    H128081   3.806   1.805  16.421  0.0016 -0.8409  0.2856
 2222TIP3    H228082   3.680   1.776  16.342  0.7757 -2.4700 -0.3817
 2223TIP3   OH228083   1.276   4.900   4.379 -0.6006 -0.5356  0.9249
 2223TIP3    H128084   1.310   4.971   4.433  0.9205 -0.4497 -0.0762
 2223TIP3    H228085   1.181   4.911   4.381 -0.3955  1.8800  0.3584
 2224TIP3   OH228086   6.722   0.938  16.037  0.1492  0.2113 -0.9829
 2224TIP3    H128087   6.637   0.914  15.999  0.7288 -2.2550 -0.8527
 2224TIP3    H228088   6.715   0.912  16.129  1.0246  0.0838 -0.9471
 2225TIP3   OH228089   6.570   1.403   4.103  0.5084 -0.3787 -0.4358
 2225TIP3    H128090   6.537   1.448   4.025  1.0333  0.5949 -0.1096
 2225TIP3    H228091   6.623   1.468   4.148  0.1244 -0.8950  0.8107
 2226TIP3   OH228092   5.579   2.180   6.444  0.3501 -0.3186 -0.2914
 2226TIP3    H128093   5.511   2.205   6.505  1.7472 -2.2330  2.2937
 2226TIP3    H228094   5.544   2.104   6.398  0.3454 -0.6810  0.3040
 2227TIP3   OH228095   3.864   3.858   1.086  0.1952 -0.1953  0.6910
 2227TIP3    H128096   3.815   3.870   1.005  0.5275  2.7325  0.8408
 2227TIP3    H228097   3.938   3.802   1.061  0.6631  1.1971 -1.2257
 2228TIP3   OH228098   1.440   5.709  11.519 -0.1220  0.1122  0.2155
 2228TIP3    H128099   1.465   5.626  11.560  0.0130 -0.1155 -0.3044
 2228TIP3    H228100   1.397   5.759  11.588 -1.0388 -0.7603  0.2990
 2229TIP3   OH228101   3.703   5.419   0.001 -0.3422  0.2746 -0.3020
 2229TIP3    H128102   3.683   5.373   0.082  0.5206 -0.8422 -0.7132
 2229TIP3    H228103   3.656   5.502   0.009  2.3642  1.7261  2.8518
 2230TIP3   OH228104   6.585   6.466  10.692  0.2672 -0.1294 -0.5652
 2230TIP3    H128105   6.514   6.474  10.755  0.4403 -1.1764 -0.2270
 2230TIP3    H228106   6.567   6.385  10.644  1.5974 -0.8127  0.0149
 2231TIP3   OH228107   1.392   6.359  12.561  0.2789 -0.0536 -0.3073
 2231TIP3    H128108   1.401   6.451  12.538 -0.7743 -0.3407 -2.0305
 2231TIP3    H228109   1.302   6.349  12.590  0.3508 -0.5631 -0.2354
 2232TIP3   OH228110   0.237   4.666   1.222 -0.0963 -0.5627 -0.3026
 2232TIP3    H128111   0.296   4.627   1.157 -0.2417 -1.1974 -0.0685
 2232TIP3    H228112   0.180   4.593   1.249 -0.6403 -0.0868 -0.1399
 2233TIP3   OH228113   0.616   2.094  13.976 -0.2932 -0.4445 -0.4648
 2233TIP3    H128114   0.635   2.001  13.984 -1.0211 -0.4959  0.9835
 2233TIP3    H228115   0.574   2.103  13.890 -1.7163 -1.7484  0.0514
 2234TIP3   OH228116   4.526   3.192   5.501 -0.2473  0.3880 -0.5563
 2234TIP3    H128117   4.604   3.137   5.498 -1.1165 -1.0936  1.6037
 2234TIP3    H228118   4.556   3.274   5.540  0.2835 -0.0802  0.0398
 2235TIP3   OH228119   3.411   2.226   2.903  0.2305 -0.7026 -0.1396
 2235TIP3    H128120   3.344   2.158   2.896 -0.3109 -0.0532 -1.9099
 2235TIP3    H228121   3.372   2.293   2.959 -0.9254 -0.0564 -1.6246
 2236TIP3   OH228122   0.697   0.607  15.874  0.2236  0.9092 -0.0945
 2236TIP3    H128123   0.782   0.648  15.889 -0.4986  2.0561  1.1451
 2236TIP3    H228124   0.670   0.578  15.961 -1.4321  2.1929 -0.1268
 2237TIP3   OH228125   5.490   0.610   5.918 -0.2949  0.2324 -0.0343
 2237TIP3    H128126   5.516   0.588   6.007 -0.3072 -1.0786 -0.3418
 2237TIP3    H228127   5.407   0.565   5.905 -1.6590  2.5523  0.1556
 2238TIP3   OH228128   4.371   3.458   2.961 -0.5952 -0.2022  0.5170
 2238TIP3    H128129   4.354   3.452   3.055 -0.3466 -2.7895  0.4671
 2238TIP3    H228130   4.465   3.448   2.953 -0.4808  1.1358  0.0298
 2239TIP3   OH228131   1.256   0.600  11.665 -0.2083 -0.1180  0.0387
 2239TIP3    H128132   1.346   0.627  11.680 -0.7437  1.3986  0.7276
 2239TIP3    H228133   1.255   0.566  11.575  1.2464 -1.1817  0.3890
 2240TIP3   OH228134   2.547   3.247   2.894  0.4725  0.4053  0.5419
 2240TIP3    H128135   2.551   3.152   2.908 -0.0643  0.6330  2.5250
 2240TIP3    H228136   2.637   3.273   2.876  0.6857 -0.4327  0.3801
 2241TIP3   OH228137   2.412   6.023  13.202  0.1833 -0.4628 -0.0925
 2241TIP3    H128138   2.392   6.072  13.282  1.4669  1.0821 -0.6438
 2241TIP3    H228139   2.357   6.064  13.135 -2.5860 -3.1925  0.2864
 2242TIP3   OH228140   2.449   0.688  12.260 -0.1647 -0.3010  0.5978
 2242TIP3    H128141   2.521   0.625  12.254 -1.0860 -1.2311 -1.8246
 2242TIP3    H228142   2.478   0.761  12.206 -0.6944 -0.3122  0.3006
 2243TIP3   OH228143   0.449   1.541   6.276  0.7314 -0.3287 -0.5794
 2243TIP3    H128144   0.394   1.574   6.205  0.2089 -0.7828 -0.4006
 2243TIP3    H228145   0.431   1.447   6.279  0.1654 -0.2118  0.6295
 2244TIP3   OH228146   2.441   4.942   5.224 -0.4788  0.4462  1.0924
 2244TIP3    H128147   2.493   5.006   5.273  0.2982  1.2125 -0.6629
 2244TIP3    H228148   2.496   4.864   5.222  0.0724  0.8379  0.3534
 2245TIP3   OH228149   0.547   6.783   5.205  0.0847  0.2204  0.1402
 2245TIP3    H128150   0.544   6.829   5.121 -0.2789  1.6045  0.8855
 2245TIP3    H228151   0.455   6.771   5.229  0.1870  0.8302  0.8632
 2246TIP3   OH228152   4.920   4.927   2.022  0.2154  0.8392  0.2964
 2246TIP3    H128153   4.864   4.935   1.945  0.7280  1.4989 -0.0236
 2246TIP3    H228154   4.997   4.982   2.002  0.1535  1.3877  1.4485
 2247TIP3   OH228155   2.961   5.303   4.700  0.2870 -0.0880  0.3808
 2247TIP3    H128156   2.898   5.375   4.695 -0.0070 -0.3570  0.1718
 2247TIP3    H228157   2.907   5.224   4.698  0.6876 -0.3548 -0.9616
 2248TIP3   OH228158   6.061   2.835   6.078 -0.3165 -0.0142 -0.4026
 2248TIP3    H128159   6.035   2.892   6.150  1.0156  1.2860 -0.9130
 2248TIP3    H228160   6.004   2.859   6.005  0.7142  1.2034 -0.8304
 2249TIP3   OH228161   4.096   3.977   4.829  0.4137  0.1118 -0.3077
 2249TIP3    H128162   4.057   4.014   4.908 -1.0106 -0.3052 -0.7911
 2249TIP3    H228163   4.190   3.997   4.837 -0.0227  2.1016  0.3646
 2250TIP3   OH228164   4.031   4.026  11.849  0.1018  0.1484  0.3067
 2250TIP3    H128165   4.044   3.958  11.914  1.8012  0.3022  0.1546
 2250TIP3    H228166   4.077   3.995  11.771  1.9063  1.9365  0.5878
 2251TIP3   OH228167   2.606   5.029   5.467 -0.3029  0.1749  0.5445
 2251TIP3    H128168   2.665   5.103   5.451  0.7980 -0.3281  2.0563
 2251TIP3    H228169   2.663   4.959   5.499 -1.3619 -1.2561 -0.5263
 2252TIP3   OH228170   4.257   2.931   4.029 -0.1400  0.7458 -0.2209
 2252TIP3    H128171   4.231   3.012   3.984 -0.4068 -0.3157 -2.0642
 2252TIP3    H228172   4.353   2.931   4.023 -0.1985  0.3142 -1.3888
 2253TIP3   OH228173   6.043   2.189   2.671 -0.0582 -0.0643  0.4866
 2253TIP3    H128174   6.130   2.179   2.634 -0.6000  1.9803 -1.6366
 2253TIP3    H228175   6.056   2.243   2.749  0.5925  0.2003  0.2010
 2254TIP3   OH228176   3.700   0.826   3.677 -0.2559  0.1599 -0.1628
 2254TIP3    H128177   3.672   0.916   3.696 -0.7227  0.3758 -1.6680
 2254TIP3    H228178   3.667   0.810   3.588 -0.4299 -1.6136  0.1965
 2255TIP3   OH228179   4.784   0.020   1.653 -0.2101  0.3665 -0.4825
 2255TIP3    H128180   4.810   0.104   1.690  1.4363 -0.4315  0.3082
 2255TIP3    H228181   4.768   0.038   1.560  0.7801  1.4271 -0.4670
 2256TIP3   OH228182   2.535   1.039  16.933 -0.0853  0.6791 -0.3603
 2256TIP3    H128183   2.587   1.027  16.853  0.2998  2.5546 -0.4347
 2256TIP3    H228184   2.568   0.972  16.993 -0.9072 -1.2889 -1.9798
 2257TIP3   OH228185   3.679   5.698  13.609 -0.5305 -0.7018 -0.6467
 2257TIP3    H128186   3.646   5.704  13.519  0.4928 -0.3693 -1.0174
 2257TIP3    H228187   3.708   5.787  13.630 -0.3820 -0.8679 -0.1375
 2258TIP3   OH228188   0.124   1.001   3.560  0.0532  0.2001  0.5530
 2258TIP3    H128189   0.192   0.996   3.493 -0.4795 -0.1351  0.0416
 2258TIP3    H228190   0.096   0.911   3.574 -0.0314  0.2940  1.0337
 2259TIP3   OH228191   4.489   5.301   4.722 -0.3609 -0.2288 -0.0527
 2259TIP3    H128192   4.510   5.210   4.700 -1.1430 -0.5308  0.3956
 2259TIP3    H228193   4.397   5.298   4.748 -1.1657  1.1207 -2.4444
 2260TIP3   OH228194   1.532   0.407  15.414 -0.0744  0.5104 -0.1712
 2260TIP3    H128195   1.591   0.471  15.375 -0.4275 -0.4229 -2.4047
 2260TIP3    H228196   1.588   0.356  15.473  1.4058 -0.3231 -2.1918
 2261TIP3   OH228197   3.477   0.865  16.980  0.1239  0.3873  0.6664
 2261TIP3    H128198   3.393   0.911  16.986  0.3762  0.8969  0.4160
 2261TIP3    H228199   3.542   0.931  17.004  0.3571 -0.4393  2.4348
 2262TIP3   OH228200   0.979   0.844  13.973 -0.4145  0.2694  0.1890
 2262TIP3    H128201   1.012   0.829  14.062 -0.9417  1.2950  0.5773
 2262TIP3    H228202   0.884   0.834  13.981 -0.8043  3.2238  0.4343
 2263TIP3   OH228203   5.740   2.234   2.197  0.5993 -0.3369 -0.0363
 2263TIP3    H128204   5.724   2.140   2.188 -0.4834 -0.2572  0.8540
 2263TIP3    H228205   5.720   2.253   2.289  2.2457  0.5044  0.1824
 2264TIP3   OH228206   0.914   1.401   5.984 -0.5728  0.2791  0.1140
 2264TIP3    H128207   0.834   1.382   6.033  0.2013  0.9095  1.7019
 2264TIP3    H228208   0.971   1.444   6.048  0.6155  0.8450 -1.2847
 2265TIP3   OH228209   0.982   3.699   2.626  0.0829  0.1954  0.1321
 2265TIP3    H128210   0.953   3.667   2.541 -0.6842  1.1230  0.0191
 2265TIP3    H228211   1.067   3.658   2.640  0.1285 -0.1285 -0.9919
 2266TIP3   OH228212   1.112   2.228  15.177 -0.1244 -0.3581  0.1394
 2266TIP3    H128213   1.030   2.210  15.221 -0.2712  2.0090  0.9829
 2266TIP3    H228214   1.178   2.228  15.246  0.4459 -1.3119 -0.3855
 2267TIP3   OH228215   2.695   3.311  12.327 -0.1187 -0.1599  0.0500
 2267TIP3    H128216   2.666   3.402  12.337 -1.1482 -0.5269  0.5733
 2267TIP3    H228217   2.790   3.314  12.336  0.3984  1.3999 -3.7991
 2268TIP3   OH228218   1.558   2.310  14.734  0.3463 -0.1521 -0.4657
 2268TIP3    H128219   1.602   2.227  14.714  0.0113 -0.0380 -1.7846
 2268TIP3    H228220   1.562   2.359  14.652 -0.8033  0.5196 -0.1320
 2269TIP3   OH228221   3.742   1.988  11.876 -0.5079 -0.4841  0.1874
 2269TIP3    H128222   3.753   2.077  11.843  0.7290 -0.4526  0.6430
 2269TIP3    H228223   3.780   1.932  11.809 -0.9671 -0.6568  0.0630
 2270TIP3   OH228224   2.033   0.766  11.370 -0.1643 -0.6651 -0.0364
 2270TIP3    H128225   2.040   0.677  11.337  1.4912 -0.4168 -0.4147
 2270TIP3    H228226   2.072   0.820  11.302 -0.4400  0.2703  0.5327
 2271TIP3   OH228227   4.382   5.552   0.801 -0.4560  0.3178  0.5463
 2271TIP3    H128228   4.431   5.480   0.761  0.8912  1.3149  0.3374
 2271TIP3    H228229   4.440   5.585   0.869 -1.1449  1.0804  0.7725
 2272TIP3   OH228230   1.392   0.010   2.653  0.1710  0.5672  0.1942
 2272TIP3    H128231   1.452   0.083   2.635 -3.3867  4.1266  1.3071
 2272TIP3    H228232   1.370   0.019   2.745 -0.9272 -1.6116  0.2018
 2273TIP3   OH228233   1.822   2.772   2.032 -0.3901  0.2522  0.0977
 2273TIP3    H128234   1.759   2.781   2.103 -0.1876 -0.5854  0.3972
 2273TIP3    H228235   1.877   2.697   2.058 -0.3663 -0.1161 -0.9724
 2274TIP3   OH228236   1.908   0.816  12.793 -0.5176 -0.1057 -0.0317
 2274TIP3    H128237   1.921   0.752  12.863  0.9803 -0.0981 -0.2685
 2274TIP3    H228238   1.926   0.901  12.834  0.2660 -0.0932 -0.3918
 2275TIP3   OH228239   3.248   6.168  14.671  0.2819 -0.0799  0.0563
 2275TIP3    H128240   3.313   6.116  14.717  0.7895  0.4472 -0.0569
 2275TIP3    H228241   3.248   6.133  14.581  2.4749  1.7305 -0.7390
 2276TIP3   OH228242   3.354   0.311   1.078  0.1645 -0.9507  0.1767
 2276TIP3    H128243   3.282   0.288   1.136  0.1519 -1.6499 -0.0989
 2276TIP3    H228244   3.430   0.318   1.136 -0.4149  1.5345  0.7287
 2277TIP3   OH228245   1.885   1.425  12.515 -0.7819  0.4668  0.0415
 2277TIP3    H128246   1.941   1.439  12.439  0.6921  2.0573  1.3442
 2277TIP3    H228247   1.943   1.393  12.584 -1.7601  0.6312  0.9853
 2278TIP3   OH228248   2.899   2.038   2.928  0.1695  0.7772  0.2360
 2278TIP3    H128249   2.947   2.005   2.853  0.0748  0.7207  0.2002
 2278TIP3    H228250   2.925   2.130   2.935  1.8351  0.2547  1.4362
 2279TIP3   OH228251   3.627   4.595  12.829 -0.2660  0.8202 -0.3723
 2279TIP3    H128252   3.674   4.581  12.747 -1.0820 -0.3958 -0.6650
 2279TIP3    H228253   3.673   4.539  12.892  1.7644  3.4035  0.6336
 2280TIP3   OH228254   2.659   0.706   2.375 -0.0198 -0.1337  0.0050
 2280TIP3    H128255   2.674   0.792   2.414 -0.2953  0.4882 -1.2235
 2280TIP3    H228256   2.732   0.694   2.314  1.8687 -2.2102  2.4563
 2281TIP3   OH228257   1.650   4.881  14.188  0.3401 -0.5420 -0.2141
 2281TIP3    H128258   1.736   4.863  14.225  0.3775  0.2407  0.1062
 2281TIP3    H228259   1.661   4.867  14.094  0.5371 -1.4528 -0.0601
 2282TIP3   OH228260   4.050   6.064  14.827 -0.2565 -0.0670  0.0738
 2282TIP3    H128261   4.023   6.156  14.830  1.2215  0.3780  0.7634
 2282TIP3    H228262   4.100   6.056  14.746 -1.0561 -0.4751 -0.3876
 2283TIP3   OH228263   5.539   1.577   5.146 -0.4959  0.1020  0.7612
 2283TIP3    H128264   5.598   1.643   5.182  1.9119 -2.0423  1.1117
 2283TIP3    H228265   5.557   1.578   5.052  1.4490 -1.5725  1.0201
 2284TIP3   OH228266   1.997   5.679   0.712 -0.6622 -0.0787  0.1385
 2284TIP3    H128267   1.975   5.587   0.705  0.7806 -0.3634 -1.0515
 2284TIP3    H228268   2.063   5.694   0.645 -0.0121  1.5573  1.0732
 2285TIP3   OH228269   4.526   2.517   0.974 -0.4671  0.5007 -0.2936
 2285TIP3    H128270   4.540   2.430   0.936 -1.0616  0.4417 -0.3851
 2285TIP3    H228271   4.431   2.531   0.969 -0.3642  1.2160 -0.4159
 2286TIP3   OH228272   1.394   2.109  10.449 -0.3229 -0.5085 -0.1561
 2286TIP3    H128273   1.458   2.162  10.402  0.2913  0.3434  1.5394
 2286TIP3    H228274   1.415   2.018  10.426 -0.4624 -0.1236 -1.9569
 2287TIP3   OH228275   2.496   3.233   4.165  0.1844 -0.1896  0.0107
 2287TIP3    H128276   2.528   3.207   4.251  0.3487 -0.4285 -0.1228
 2287TIP3    H228277   2.409   3.194   4.158 -0.2209  0.5985  0.4424
 2288TIP3   OH228278   0.973   1.353   4.258  0.2365  0.1236  0.0004
 2288TIP3    H128279   0.882   1.326   4.245  0.6683 -0.5270 -2.0644
 2288TIP3    H228280   0.994   1.405   4.180  1.0993  1.8589  1.3261
 2289TIP3   OH228281   3.659   2.349  14.244  0.3283  0.4996  0.4104
 2289TIP3    H128282   3.611   2.353  14.161 -0.3290  0.5287  0.7894
 2289TIP3    H228283   3.656   2.257  14.269 -0.0500  0.5965  0.7330
 2290TIP3   OH228284   2.068   4.837   3.556  0.5246 -0.0421  0.4011
 2290TIP3    H128285   2.130   4.872   3.492  0.0232  1.7912  0.8549
 2290TIP3    H228286   1.992   4.811   3.504  0.6745  0.0819  0.1158
 2291TIP3   OH228287   4.810   6.346   6.160 -0.1141  0.3786 -0.0274
 2291TIP3    H128288   4.815   6.377   6.250  0.9848  2.2142 -0.6775
 2291TIP3    H228289   4.884   6.387   6.116  0.2666 -1.6702 -1.4481
 2292TIP3   OH228290   1.410   4.200  12.790 -0.0889  0.5075 -0.2684
 2292TIP3    H128291   1.480   4.257  12.821  0.5317 -0.4112  0.0926
 2292TIP3    H228292   1.378   4.156  12.868 -0.3682  0.1729 -0.5667
 2293TIP3   OH228293   4.049   5.173  15.354  0.2168 -0.1779 -0.5703
 2293TIP3    H128294   4.102   5.198  15.278  0.0640  0.5157 -0.4491
 2293TIP3    H228295   4.033   5.255  15.400 -0.3490 -0.4892 -0.2112
 2294TIP3   OH228296   1.065   0.878   4.612  0.1348 -0.3247 -0.5256
 2294TIP3    H128297   1.151   0.841   4.593  0.5998 -0.1484  1.0860
 2294TIP3    H228298   1.020   0.809   4.662  0.3708  0.5741  0.9872
 2295TIP3   OH228299   6.211   3.796  12.415 -0.1140 -0.6773  0.2096
 2295TIP3    H128300   6.124   3.832  12.429 -2.0253 -3.4967 -2.7056
 2295TIP3    H228301   6.249   3.851  12.346  0.0272 -0.0181  0.8075
 2296TIP3   OH228302   3.175   1.609  11.291  0.3274  0.0549  0.2581
 2296TIP3    H128303   3.214   1.537  11.242  1.2107  0.7566 -0.1140
 2296TIP3    H228304   3.123   1.567  11.359  1.0292 -0.9330  0.2018
 2297TIP3   OH228305   6.411   1.156  17.067 -0.0796 -0.4978 -0.0734
 2297TIP3    H128306   6.389   1.241  17.030  2.0089 -0.0063 -0.3364
 2297TIP3    H228307   6.451   1.107  16.995  0.9592 -0.7684  0.6441
 2298TIP3   OH228308   1.474   5.766  13.207 -0.4051 -0.6653  0.1929
 2298TIP3    H128309   1.507   5.767  13.117 -0.5370 -2.2492  0.1107
 2298TIP3    H228310   1.381   5.788  13.199  0.0334  1.3629  0.1856
 2299TIP3   OH228311   5.803   2.070  10.539  0.1273 -0.4927  0.2045
 2299TIP3    H128312   5.896   2.085  10.525  0.8612 -2.3461  2.4131
 2299TIP3    H228313   5.776   2.141  10.598  0.3549 -0.4167  0.2171
 2300TIP3   OH228314   2.563   4.735  14.555  0.0695 -0.3071  0.5143
 2300TIP3    H128315   2.539   4.645  14.530 -1.5253 -0.2891  1.7861
 2300TIP3    H228316   2.653   4.728  14.587  0.9462 -0.9269 -1.8861
 2301TIP3   OH228317   4.033   4.973  11.993  0.2286 -0.5704  0.4171
 2301TIP3    H128318   3.946   4.949  12.026  0.3443 -1.1062  0.3418
 2301TIP3    H228319   4.063   5.042  12.053 -0.2308 -0.4082  0.4670
 2302TIP3   OH228320   5.892   6.303  12.437  0.0965  0.0370  0.0089
 2302TIP3    H128321   5.954   6.238  12.407 -0.6131 -0.1504 -1.1019
 2302TIP3    H228322   5.816   6.293  12.379  0.2188  2.2585 -0.6305
 2303TIP3   OH228323   5.719   2.525   5.918 -0.0681 -0.4169 -0.5469
 2303TIP3    H128324   5.753   2.554   6.003 -1.2040 -0.2898 -0.1217
 2303TIP3    H228325   5.782   2.558   5.854  0.4947 -0.0183  0.2049
 2304TIP3   OH228326   5.370   4.496  11.169 -0.0603 -0.1012 -0.2242
 2304TIP3    H128327   5.421   4.526  11.095 -0.7328  0.5542 -0.4398
 2304TIP3    H228328   5.361   4.402  11.156  0.1930 -0.0553 -0.7392
 2305TIP3   OH228329   3.070   6.179  16.325 -0.2181 -0.2417  0.1214
 2305TIP3    H128330   3.042   6.165  16.415 -0.2018  1.6263  0.4506
 2305TIP3    H228331   3.069   6.091  16.285 -0.9601 -0.9821  1.7059
 2306TIP3   OH228332   2.694   0.302   6.083  0.2640  0.4380 -0.2793
 2306TIP3    H128333   2.691   0.375   6.145  1.6574  0.1058  0.2146
 2306TIP3    H228334   2.751   0.237   6.125  1.0787  0.1168 -1.8100
 2307TIP3   OH228335   4.911   0.527  15.434 -0.2652 -0.2159 -0.3697
 2307TIP3    H128336   4.898   0.619  15.457  1.8360  0.4712 -1.6776
 2307TIP3    H228337   4.863   0.479  15.501  1.4782  1.7516  2.5057
 2308TIP3   OH228338   4.683   2.568   4.621 -0.3875 -0.6247 -0.2407
 2308TIP3    H128339   4.655   2.541   4.709 -0.9831  2.6643  0.7163
 2308TIP3    H228340   4.773   2.600   4.633  0.2724 -1.9686 -1.2997
 2309TIP3   OH228341   3.345   3.096  11.654  0.2791 -0.2770 -0.9465
 2309TIP3    H128342   3.300   3.013  11.640  0.2833 -0.3155 -0.7420
 2309TIP3    H228343   3.354   3.133  11.567  0.7132 -0.7209 -1.0968
 2310TIP3   OH228344   1.590   1.990  11.140 -0.2529 -0.0554 -0.0418
 2310TIP3    H128345   1.523   1.931  11.106  1.7426 -1.6960 -1.4256
 2310TIP3    H228346   1.657   1.992  11.071  0.0396  3.4959  0.1690
 2311TIP3   OH228347   6.599   1.533   0.861 -0.2638 -0.1009 -0.4158
 2311TIP3    H128348   6.531   1.531   0.795  0.7116  0.7490 -1.4824
 2311TIP3    H228349   6.638   1.445   0.859  0.4092  0.2069 -1.6918
 2312TIP3   OH228350   2.001   1.707  16.107 -0.6952 -0.1661 -0.6573
 2312TIP3    H128351   2.085   1.752  16.120 -2.2632  2.4735  1.4898
 2312TIP3    H228352   2.021   1.615  16.122  1.8569  0.3169 -0.5143
 2313TIP3   OH228353   0.683   0.715   5.984 -0.6612 -0.3825 -0.0756
 2313TIP3    H128354   0.740   0.774   5.936 -1.5303  0.3426 -0.2508
 2313TIP3    H228355   0.737   0.682   6.056 -0.3954  1.3137  0.5509
 2314TIP3   OH228356   3.565   5.841  15.188  0.4728 -0.2604  0.2293
 2314TIP3    H128357   3.602   5.780  15.252  0.4284 -0.7391 -0.1923
 2314TIP3    H228358   3.588   5.803  15.103  1.7361  1.0834 -0.0669
 2315TIP3   OH228359   0.262   3.709   2.511 -0.2083 -0.2248  0.2984
 2315TIP3    H128360   0.236   3.775   2.576  2.3444  0.8432  0.3312
 2315TIP3    H228361   0.315   3.757   2.448 -0.4407 -1.7730 -1.1263
 2316TIP3   OH228362   4.149   0.568  12.470  0.1940 -0.1992  0.2159
 2316TIP3    H128363   4.097   0.646  12.487  2.0869  0.8765  1.3844
 2316TIP3    H228364   4.186   0.582  12.383 -1.2792 -0.9084 -0.5631
 2317TIP3   OH228365   3.610   0.088  13.904 -0.0345  0.2964 -0.4250
 2317TIP3    H128366   3.573   0.071  13.990  0.9140  1.4022  0.2299
 2317TIP3    H228367   3.570   0.171  13.877  0.7047  0.6562 -0.4349
 2318TIP3   OH228368   4.780   4.358  12.619  0.1822  0.1348 -0.3489
 2318TIP3    H128369   4.719   4.344  12.547  0.3467 -1.8243 -0.1490
 2318TIP3    H228370   4.724   4.364  12.697  0.2222 -2.4404 -0.0616
 2319TIP3   OH228371   4.667   6.080   4.727 -0.3068  1.2380  0.7510
 2319TIP3    H128372   4.636   6.082   4.637 -1.0595  1.3435  1.0088
 2319TIP3    H228373   4.751   6.126   4.724  0.3440  0.0511 -0.1335
 2320TIP3   OH228374   2.437   0.789  12.577  0.0778  0.5225 -0.0638
 2320TIP3    H128375   2.460   0.879  12.554 -0.7592  0.2496 -2.1787
 2320TIP3    H228376   2.438   0.788  12.673 -1.3383  3.1511  0.0659
 2321TIP3   OH228377   3.781   3.305   0.067  0.6863 -0.5580 -0.3791
 2321TIP3    H128378   3.767   3.399   0.053 -0.0453 -0.6726 -0.4681
 2321TIP3    H228379   3.754   3.264  -0.016  0.1386 -0.9116 -0.0358
 2322TIP3   OH228380   5.709   1.436  11.474  0.0300  0.4186  0.4458
 2322TIP3    H128381   5.621   1.436  11.438 -0.2945  3.1286  1.0397
 2322TIP3    H228382   5.755   1.368  11.425 -1.6218  0.8700 -1.9014
 2323TIP3   OH228383   2.053   3.120  15.249  0.3216 -0.1177 -0.2203
 2323TIP3    H128384   2.118   3.188  15.260 -0.4307  0.6249 -0.2564
 2323TIP3    H228385   2.103   3.043  15.221  0.9835  0.9610 -2.2520
 2324TIP3   OH228386   3.231   0.603  15.160 -0.1250  0.2554  0.7212
 2324TIP3    H128387   3.208   0.517  15.124 -0.4689  0.1704  1.1303
 2324TIP3    H228388   3.231   0.589  15.255  1.4888  0.2927  0.7456
 2325TIP3   OH228389   4.794   0.064  14.851 -0.2070 -0.1822  0.2893
 2325TIP3    H128390   4.825   0.052  14.761 -0.7587 -1.1515  0.2090
 2325TIP3    H228391   4.768  -0.024  14.879  0.5506 -0.0053  1.6205
 2326TIP3   OH228392   2.712   4.101   4.011  0.0225 -0.4578  0.0610
 2326TIP3    H128393   2.765   4.047   4.069  0.2183 -0.7654 -0.3984
 2326TIP3    H228394   2.623   4.096   4.047  0.7086  2.2732  2.4878
 2327TIP3   OH228395   0.601   4.190  16.098 -0.8782 -0.0609  0.4986
 2327TIP3    H128396   0.594   4.096  16.081 -0.0283  0.1767 -1.4283
 2327TIP3    H228397   0.694   4.205  16.109 -0.8776  0.7468 -0.5280
 2328TIP3   OH228398   4.539   3.688  15.592  0.0873  0.4799 -0.2194
 2328TIP3    H128399   4.509   3.739  15.668  0.3513 -0.2126  0.3592
 2328TIP3    H228400   4.594   3.749  15.543  0.7132  0.6569  0.6703
 2329TIP3   OH228401   1.490   2.643  15.496  0.0239 -0.0583 -0.2824
 2329TIP3    H128402   1.495   2.705  15.568  2.2213  0.0320 -0.4706
 2329TIP3    H228403   1.535   2.685  15.423  3.1230 -2.3800  0.0550
 2330TIP3   OH228404   4.717   5.418  11.733 -0.0409  0.2321 -0.3972
 2330TIP3    H128405   4.714   5.341  11.789  0.6688  0.2251 -0.3537
 2330TIP3    H228406   4.626   5.445  11.724 -0.1750  0.2259  0.7510
 2331TIP3   OH228407   4.176   0.204  14.538  0.0020  0.4506  0.5110
 2331TIP3    H128408   4.192   0.202  14.443 -0.4086  1.3184  0.4122
 2331TIP3    H228409   4.082   0.185  14.547  0.2621 -0.7465  0.8260
 2332TIP3   OH228410   4.596   1.430   6.136  0.3203  0.0913  0.1250
 2332TIP3    H128411   4.676   1.423   6.189 -0.8193 -0.7253  1.8498
 2332TIP3    H228412   4.582   1.341   6.103  1.8900  0.9089 -3.0123
 2333TIP3   OH228413   3.559   4.399  14.540 -0.1028  0.1718 -0.6697
 2333TIP3    H128414   3.509   4.331  14.585  1.5647 -1.8923 -1.7474
 2333TIP3    H228415   3.496   4.442  14.483 -1.4786  0.4735  1.0028
 2334TIP3   OH228416   2.218   5.048   3.819  0.1294  0.5592  0.2187
 2334TIP3    H128417   2.289   5.006   3.771 -0.7712  0.4183 -1.0553
 2334TIP3    H228418   2.162   4.976   3.848  0.8806  0.6047  1.9279
 2335TIP3   OH228419   2.963   3.385  12.377  0.5407 -0.4376 -0.3349
 2335TIP3    H128420   2.974   3.479  12.392  0.0179 -0.5720  1.0227
 2335TIP3    H228421   3.020   3.344  12.442 -1.2989 -1.0536  0.9692
 2336TIP3   OH228422   5.845   2.531  16.247 -0.6710  0.4651 -0.3131
 2336TIP3    H128423   5.789   2.608  16.242 -0.0432  1.1834  2.1071
 2336TIP3    H228424   5.927   2.564  16.283 -0.1197 -1.2007  0.0352
 2337TIP3   OH228425   4.437   5.446  15.291  0.3857 -0.0097  0.5859
 2337TIP3    H128426   4.530   5.450  15.268  0.1925 -0.3067 -0.3075
 2337TIP3    H228427   4.420   5.353  15.308 -0.0057 -0.1495 -0.4713
 2338TIP3   OH228428   5.321   5.663  14.564  0.4255 -0.4053  0.3453
 2338TIP3    H128429   5.376   5.609  14.508  0.0378  1.0390 -1.5482
 2338TIP3    H228430   5.265   5.601  14.610  0.1062 -1.6538 -1.6281
 2339TIP3   OH228431   6.547   4.318   1.595 -0.0821 -0.3756  0.6658
 2339TIP3    H128432   6.454   4.329   1.614 -0.3917 -1.5600 -0.0563
 2339TIP3    H228433   6.576   4.251   1.657  0.2664 -0.0944  0.8118
 2340TIP3   OH228434   0.685   3.053  14.240 -0.6102  0.1410 -0.3476
 2340TIP3    H128435   0.720   3.142  14.231 -0.3377  0.2992  1.6313
 2340TIP3    H228436   0.598   3.057  14.203 -0.1682  0.9264 -1.3356
 2341TIP3   OH228437   1.206   0.271   7.039  0.5169 -0.6394 -0.0708
 2341TIP3    H128438   1.271   0.342   7.042  1.6300 -1.5947 -0.7465
 2341TIP3    H228439   1.210   0.239   6.949 -2.8172  0.9529 -0.9564
 2342TIP3   OH228440   5.218   4.521  16.006 -0.1221 -0.2106 -0.0975
 2342TIP3    H128441   5.196   4.495  16.096  0.3876  0.0361  0.1047
 2342TIP3    H228442   5.236   4.615  16.012  1.4588 -0.4763 -0.1400
 2343TIP3   OH228443   1.143   4.680  13.136 -0.1028 -0.4843  1.1463
 2343TIP3    H128444   1.089   4.656  13.060  0.3134 -1.9427  1.2770
 2343TIP3    H228445   1.094   4.648  13.211  1.1581 -2.3312  1.2302
 2344TIP3   OH228446   2.199   5.979   1.405 -0.2730 -0.1404  0.0799
 2344TIP3    H128447   2.158   5.893   1.416  1.6960 -1.3768 -1.4678
 2344TIP3    H228448   2.288   5.959   1.376  0.8147  2.4278  1.3300
 2345TIP3   OH228449   0.927   1.711   1.297  0.5681  0.1677  0.2144
 2345TIP3    H128450   0.976   1.782   1.255 -0.4343  0.8527  0.1925
 2345TIP3    H228451   0.962   1.708   1.386  0.4083  0.8960  0.3084
 2346TIP3   OH228452   5.718   3.538   1.129 -0.4140 -0.2814  0.4766
 2346TIP3    H128453   5.657   3.607   1.104  0.9196  1.0805  0.8285
 2346TIP3    H228454   5.710   3.532   1.224 -0.3114 -0.3828  0.4791
 2347TIP3   OH228455   3.942   2.863  10.760 -0.0473 -0.6429 -0.1290
 2347TIP3    H128456   3.968   2.951  10.731 -0.5143 -0.6788 -0.6826
 2347TIP3    H228457   3.973   2.857  10.850 -0.0688  0.1172 -0.0633
 2348TIP3   OH228458   4.701   6.456  11.992  0.2978 -0.0514 -0.4198
 2348TIP3    H128459   4.791   6.429  11.974 -0.1243 -1.4250 -0.6003
 2348TIP3    H228460   4.691   6.539  11.946  1.0929 -0.5127 -1.4711
 2349TIP3   OH228461   6.368   3.372  16.280  0.0636  0.3280  0.0304
 2349TIP3    H128462   6.285   3.351  16.238  1.4536 -2.0678 -1.8077
 2349TIP3    H228463   6.384   3.464  16.258 -1.7962  0.6510 -0.0798
 2350TIP3   OH228464   1.468   0.421   4.037  0.2484  0.0612  0.0867
 2350TIP3    H128465   1.372   0.423   4.033  0.2780  0.3269 -2.4330
 2350TIP3    H228466   1.493   0.509   4.065 -0.2512  0.2046  0.0895
 2351TIP3   OH228467   6.744   6.240   4.769 -1.0882  0.2598  0.0046
 2351TIP3    H128468   6.689   6.318   4.765 -0.4556  0.7588  0.7947
 2351TIP3    H228469   6.699   6.176   4.714 -2.3786  0.7030  0.5121
 2352TIP3   OH228470   1.051   0.710   4.964  0.1470  0.0480  0.1730
 2352TIP3    H128471   1.003   0.793   4.971  1.9040  1.0618  0.9601
 2352TIP3    H228472   1.050   0.674   5.052  1.8930  0.7663  0.5376
 2353TIP3   OH228473   4.409   1.644   0.347 -0.0127  0.1263  0.5805
 2353TIP3    H128474   4.389   1.615   0.436 -1.1123  2.7575  1.2899
 2353TIP3    H228475   4.497   1.612   0.330 -0.2444 -1.4796  2.1207
 2354TIP3   OH228476   1.168   2.830  15.877  0.0043 -0.0526  0.1642
 2354TIP3    H128477   1.161   2.892  15.950 -0.4015  1.0544 -0.7854
 2354TIP3    H228478   1.224   2.874  15.813 -0.3817 -0.6094 -0.5748
 2355TIP3   OH228479   3.616   0.978  16.250  0.4205  0.8016 -0.0308
 2355TIP3    H128480   3.586   0.926  16.175 -0.0901  1.2517 -0.1391
 2355TIP3    H228481   3.622   0.915  16.322  1.6688  0.1912 -0.6194
 2356TIP3   OH228482   2.749   3.148  15.233  0.2231  0.1350 -0.0979
 2356TIP3    H128483   2.823   3.208  15.240  0.8556 -0.5120 -1.0721
 2356TIP3    H228484   2.677   3.194  15.277  1.7810 -0.2716  3.1211
 2357TIP3   OH228485   2.168   6.673   0.532 -0.3799  0.0642  0.3746
 2357TIP3    H128486   2.226   6.739   0.571 -0.0463 -0.5636  0.9462
 2357TIP3    H228487   2.223   6.624   0.472 -0.5701  0.1390  0.1362
 2358TIP3   OH228488   2.930   1.085  15.530  0.7915 -0.3680  0.1969
 2358TIP3    H128489   3.023   1.103  15.546  1.1164 -1.8312  0.1135
 2358TIP3    H228490   2.925   1.065  15.436  0.3429  0.0193  0.1379
 2359TIP3   OH228491   1.829   1.841  12.711 -0.2688 -0.2417 -0.1887
 2359TIP3    H128492   1.879   1.898  12.653  0.1937  0.5847  0.9706
 2359TIP3    H228493   1.876   1.758  12.710  0.7419  0.2976  0.3184
 2360TIP3   OH228494   0.612   5.769   2.981 -0.6251  0.1011 -0.2823
 2360TIP3    H128495   0.704   5.784   2.961 -1.0439  2.6568 -0.7086
 2360TIP3    H228496   0.574   5.739   2.898 -0.2745 -0.5151 -0.2236
 2361TIP3   OH228497   5.086   6.316   1.027  0.3223  0.8189  0.1450
 2361TIP3    H128498   5.105   6.223   1.032 -0.6590  0.6495  1.3157
 2361TIP3    H228499   4.991   6.320   1.013  0.4683  1.6528 -0.7775
 2362TIP3   OH228500   5.036   0.528   1.299 -0.2361 -0.5440  0.0497
 2362TIP3    H128501   5.042   0.553   1.207 -3.8597  1.8345  0.2346
 2362TIP3    H228502   4.984   0.448   1.299 -1.2578  0.1056  0.0316
 2363TIP3   OH228503   3.665   5.283   3.383  0.0174  0.2869  0.3014
 2363TIP3    H128504   3.623   5.249   3.462  1.5657 -0.9838  0.6414
 2363TIP3    H228505   3.618   5.240   3.311 -0.8709  0.8221  0.5547
 2364TIP3   OH228506   2.476   3.127  12.302  0.3595  0.3402 -0.6248
 2364TIP3    H128507   2.472   3.077  12.383 -0.7134 -1.0315 -1.4669
 2364TIP3    H228508   2.546   3.191  12.315  1.8447 -1.4460  0.4752
 2365TIP3   OH228509   5.092   6.195  15.846 -0.3328 -0.4909  0.4591
 2365TIP3    H128510   5.060   6.157  15.927 -2.0366  0.1198  0.1044
 2365TIP3    H228511   5.018   6.244  15.810  0.8319  0.5566 -0.6785
 2366TIP3   OH228512   3.715   6.389  11.873  0.2656  0.2752 -0.1499
 2366TIP3    H128513   3.641   6.413  11.818 -0.6052 -1.7580  0.0276
 2366TIP3    H228514   3.770   6.334  11.817 -0.1380 -1.0268  0.6864
 2367TIP3   OH228515   0.933   5.437  12.160  0.3284  0.8962  0.0333
 2367TIP3    H128516   1.011   5.487  12.135  0.3860  0.8149  0.0481
 2367TIP3    H228517   0.901   5.399  12.078  1.5262 -0.8198  0.3042
 2368TIP3   OH228518   4.857   2.463   1.975  0.7372 -0.0924 -0.4817
 2368TIP3    H128519   4.831   2.389   1.921  0.4904 -1.0367  0.8921
 2368TIP3    H228520   4.890   2.424   2.056  3.5887  1.1387 -0.9029
 2369TIP3   OH228521   4.372   3.860  13.993 -0.2556 -0.3962  0.2646
 2369TIP3    H128522   4.303   3.798  14.016 -0.6163  0.2401  0.9583
 2369TIP3    H228523   4.449   3.805  13.977 -0.8673 -1.0979 -0.3325
 2370TIP3   OH228524   1.542   2.639  10.480 -0.6387 -0.5950 -0.0562
 2370TIP3    H128525   1.493   2.675  10.407  1.4590  0.9203 -0.8105
 2370TIP3    H228526   1.562   2.714  10.536  0.3199 -1.2387  0.5094
 2371TIP3   OH228527   2.115   6.773   2.987 -0.1967  0.2137 -0.0808
 2371TIP3    H128528   2.073   6.827   2.920 -0.5226  0.2101  0.1129
 2371TIP3    H228529   2.059   6.784   3.064 -1.3109 -1.7919 -0.5280
 2372TIP3   OH228530   5.892   3.135  13.507 -0.1937 -0.4390  0.4327
 2372TIP3    H128531   5.949   3.211  13.512 -0.9385  0.1354  0.2597
 2372TIP3    H228532   5.939   3.067  13.556  1.1423 -0.3161 -0.5977
 2373TIP3   OH228533   4.293   4.194  15.734 -0.0314  0.4556 -0.0083
 2373TIP3    H128534   4.387   4.212  15.728  0.3131 -0.7109  1.2572
 2373TIP3    H228535   4.278   4.121  15.675  0.3409 -0.8436  1.4278
 2374TIP3   OH228536   6.616   3.266  16.326  0.1500  0.1347  0.0538
 2374TIP3    H128537   6.527   3.301  16.328 -0.7620 -1.9627  2.6331
 2374TIP3    H228538   6.666   3.324  16.384  0.3759  1.0377 -1.0222
 2375TIP3   OH228539   3.371   2.644  15.645  0.0162  0.0688 -0.8258
 2375TIP3    H128540   3.410   2.730  15.632  0.4489  0.1699  0.8686
 2375TIP3    H228541   3.278   2.663  15.660  0.3987  0.4818  1.3910
 2376TIP3   OH228542   5.606   4.831   2.567  0.3841  0.1601 -0.4497
 2376TIP3    H128543   5.566   4.747   2.544 -1.0099  0.6798 -0.0540
 2376TIP3    H228544   5.639   4.818   2.656 -1.2253  0.4576  0.2284
 2377TIP3   OH228545   5.019   1.654   4.793  0.2672 -0.2505  0.2812
 2377TIP3    H128546   5.026   1.577   4.736  0.0189  0.5867 -0.9115
 2377TIP3    H228547   4.968   1.623   4.868 -0.6431 -1.0040 -0.6247
 2378TIP3   OH228548   5.064   2.804   5.728  0.1591 -0.1769  0.3506
 2378TIP3    H128549   5.128   2.757   5.675  0.7336  0.2294  0.6726
 2378TIP3    H228550   5.089   2.896   5.719 -0.5813  0.0163  0.2172
 2379TIP3   OH228551   2.536   4.318   4.166 -0.5719  0.0556  0.4145
 2379TIP3    H128552   2.629   4.342   4.168  0.0058 -2.0076 -0.2000
 2379TIP3    H228553   2.521   4.270   4.247 -0.7057 -0.9319 -0.1751
 2380TIP3   OH228554   6.323   0.036   0.604 -0.0871 -0.3874 -0.1151
 2380TIP3    H128555   6.235   0.054   0.638  0.0060 -2.1227  1.1478
 2380TIP3    H228556   6.382   0.076   0.667  0.0478 -0.5576 -0.1339
 2381TIP3   OH228557   2.440   2.922   0.475  0.0846  0.0903 -0.0125
 2381TIP3    H128558   2.413   2.837   0.510  0.2069 -0.6800 -1.6820
 2381TIP3    H228559   2.535   2.924   0.486 -0.0093  0.3788  0.7811
 2382TIP3   OH228560   0.358   4.257   1.312  0.3741 -0.3619 -0.0296
 2382TIP3    H128561   0.292   4.288   1.373 -0.0690 -0.8926 -0.2311
 2382TIP3    H228562   0.308   4.220   1.239  0.8719 -1.5233  0.1893
 2383TIP3   OH228563   4.127   1.160  15.545 -0.1579  0.2485 -0.2702
 2383TIP3    H128564   4.205   1.136  15.595  1.1851 -2.8939 -3.4766
 2383TIP3    H228565   4.054   1.132  15.600  1.1786 -1.8428  0.5446
 2384TIP3   OH228566   2.696   5.943  16.807  0.3496 -0.2739  0.2130
 2384TIP3    H128567   2.747   5.926  16.886 -0.6459 -0.2730  0.8634
 2384TIP3    H228568   2.749   5.906  16.736  0.8831 -0.9761  0.9622
 2385TIP3   OH228569   2.433   3.141  11.476  0.3023  0.5406  0.2776
 2385TIP3    H128570   2.358   3.150  11.535  0.2912 -0.2501  0.3968
 2385TIP3    H228571   2.447   3.047  11.469 -0.0619  0.5956 -1.4594
 2386TIP3   OH228572   5.958   4.589   6.714  0.4343 -0.0665  0.0895
 2386TIP3    H128573   5.895   4.538   6.663  0.8664  0.8089 -1.3920
 2386TIP3    H228574   6.043   4.548   6.696  0.4646 -0.4442  1.0394
 2387TIP3   OH228575   1.514   5.191  11.639  0.4305 -0.0223  0.4863
 2387TIP3    H128576   1.590   5.155  11.592  0.5806 -0.9509  1.4246
 2387TIP3    H228577   1.549   5.218  11.724 -0.1970  0.0055  0.7398
 2388TIP3   OH228578   6.242   4.159   4.766 -0.0928  0.1109  0.0699
 2388TIP3    H128579   6.319   4.185   4.716  0.3776 -1.8053 -0.3011
 2388TIP3    H228580   6.269   4.166   4.858  0.2382  0.2529 -0.0397
 2389TIP3   OH228581   0.295   5.548  14.805 -0.1283  0.1836 -0.4053
 2389TIP3    H128582   0.301   5.564  14.899  0.2048  0.1546 -0.4188
 2389TIP3    H228583   0.211   5.584  14.779 -1.0398 -1.3946  0.2246
 2390TIP3   OH228584   5.293   6.240  15.186 -0.1960  0.4834 -0.1427
 2390TIP3    H128585   5.294   6.193  15.103  0.3576 -0.3094  0.3116
 2390TIP3    H228586   5.228   6.194  15.240  2.0510 -1.3367  1.1759
 2391TIP3   OH228587   3.137   2.214  11.941 -0.1636  0.5160  0.5209
 2391TIP3    H128588   3.228   2.239  11.954 -0.1756  1.1594 -0.5065
 2391TIP3    H228589   3.129   2.198  11.847 -1.6010  2.6203  0.2122
 2392TIP3   OH228590   1.464   5.304   5.685 -0.4790  0.2286  0.2643
 2392TIP3    H128591   1.472   5.390   5.726 -1.8199 -0.7252  2.6939
 2392TIP3    H228592   1.516   5.246   5.741 -1.8646 -1.0216  0.3195
 2393TIP3   OH228593   1.574   3.141  15.593  0.5039 -0.4099  0.1679
 2393TIP3    H128594   1.539   3.230  15.595  0.8648 -0.2588 -0.1056
 2393TIP3    H228595   1.522   3.097  15.525 -1.8480 -1.3488  2.4021
 2394TIP3   OH228596   6.569   3.584   1.151  0.1054  0.3117  0.3778
 2394TIP3    H128597   6.613   3.649   1.205  1.7734  0.9332 -1.5939
 2394TIP3    H228598   6.614   3.502   1.170  1.5519  0.7607 -0.8875
 2395TIP3   OH228599   6.035   3.640  16.010 -0.6415 -0.0956  0.2039
 2395TIP3    H128600   5.942   3.661  16.002 -0.5017  0.2358 -0.7630
 2395TIP3    H228601   6.037   3.546  16.026 -1.1609  0.0385  1.1260
 2396TIP3   OH228602   6.581   0.874   5.334  0.3273  0.0389 -0.5351
 2396TIP3    H128603   6.639   0.934   5.286  2.6062  0.2100  2.1548
 2396TIP3    H228604   6.500   0.924   5.346  1.7145  2.1709  0.5426
 2397TIP3   OH228605   1.541   5.540  13.636  0.1034 -0.0716  0.3047
 2397TIP3    H128606   1.458   5.509  13.673  0.2154 -1.6962 -0.7086
 2397TIP3    H228607   1.603   5.470  13.655  0.9263  0.5324 -0.1191
 2398TIP3   OH228608   5.165   3.145  14.577  0.1831  0.7045  0.0030
 2398TIP3    H128609   5.158   3.092  14.657 -0.5025  0.6278 -0.0985
 2398TIP3    H228610   5.216   3.091  14.517 -0.5595  0.1159 -0.1209
 2399TIP3   OH228611   6.510   6.288   1.771  0.4034  0.0854  0.6632
 2399TIP3    H128612   6.575   6.240   1.821  1.4653 -1.0457 -1.6626
 2399TIP3    H228613   6.472   6.223   1.712 -1.0902  1.2685  0.2535
 2400TIP3   OH228614   2.566   3.115  11.950 -0.0408 -0.2993 -0.5081
 2400TIP3    H128615   2.571   3.210  11.935 -0.7266 -0.1131  0.3489
 2400TIP3    H228616   2.474   3.099  11.972 -0.4602 -1.5197 -2.8040
 2401TIP3   OH228617   3.693   6.073  16.152  0.8400  0.3097 -0.0355
 2401TIP3    H128618   3.627   6.003  16.153  1.4590 -0.2839  0.0961
 2401TIP3    H228619   3.683   6.116  16.237 -0.9338  1.7397 -0.8913
 2402TIP3   OH228620   2.037   1.686   3.273 -0.2647 -0.1967 -0.1174
 2402TIP3    H128621   2.011   1.753   3.336 -1.5089 -1.1028  0.3785
 2402TIP3    H228622   1.983   1.703   3.195  2.2327  1.7606 -1.5431
 2403TIP3   OH228623   5.396   2.717   5.313 -0.0609 -0.0256 -0.3149
 2403TIP3    H128624   5.428   2.671   5.235 -0.6186 -0.0683 -0.5207
 2403TIP3    H228625   5.334   2.782   5.279 -0.8766 -0.5455  0.1432
 2404TIP3   OH228626   6.284   0.869  14.777  0.2029  0.0821  0.0711
 2404TIP3    H128627   6.313   0.941  14.832  1.2752  0.2284 -0.6632
 2404TIP3    H228628   6.298   0.791  14.831 -1.1940  0.4042  0.9625
 2405TIP3   OH228629   2.959   4.490  13.964 -0.2432  0.4577 -0.4290
 2405TIP3    H128630   3.001   4.573  13.942  1.7437 -0.2823  0.3637
 2405TIP3    H228631   2.909   4.467  13.885 -0.1449  1.9611 -0.9661
 2406TIP3   OH228632   4.174   4.820   3.389 -0.4377 -0.3361  0.2046
 2406TIP3    H128633   4.209   4.778   3.468 -1.6431 -0.0731  0.9042
 2406TIP3    H228634   4.242   4.883   3.364  0.9119 -1.8817 -0.2320
 2407TIP3   OH228635   6.229   3.337   5.135 -0.7346  0.0848 -0.0281
 2407TIP3    H128636   6.305   3.368   5.184  0.2454 -2.1680 -0.0220
 2407TIP3    H228637   6.254   3.345   5.043 -0.9058  0.3042 -0.0573
 2408TIP3   OH228638   3.552   6.285   2.752  0.1479  0.0290 -0.0141
 2408TIP3    H128639   3.542   6.298   2.846 -2.9668  0.2082 -0.2752
 2408TIP3    H228640   3.539   6.372   2.714 -2.6641 -0.5904 -0.7311
 2409TIP3   OH228641   5.968   3.307   0.178  0.5636  0.1947 -0.2387
 2409TIP3    H128642   6.056   3.294   0.215 -0.3645  0.3120  2.2325
 2409TIP3    H228643   5.924   3.224   0.193 -0.0110  0.4078 -0.7127
 2410TIP3   OH228644   2.348   1.872   4.903  0.1700 -0.0643  0.1441
 2410TIP3    H128645   2.263   1.898   4.937  0.0375 -1.6609  1.1715
 2410TIP3    H228646   2.408   1.941   4.933 -0.6880  0.9379 -0.3772
 2411TIP3   OH228647   0.491   6.768  13.698  0.0918 -0.5927 -0.1119
 2411TIP3    H128648   0.436   6.718  13.758  0.2140  0.2619  0.7480
 2411TIP3    H228649   0.431   6.822  13.648  0.0379 -0.8135 -0.2861
 2412TIP3   OH228650   2.528   4.984  14.460 -0.4335 -0.0897 -0.1578
 2412TIP3    H128651   2.614   4.987  14.418 -1.1582 -1.5061 -1.8538
 2412TIP3    H228652   2.535   4.911  14.522  0.1581  1.0534  1.1931
 2413TIP3   OH228653   6.476   1.001   4.967  0.2244  0.2066  0.3510
 2413TIP3    H128654   6.536   1.074   4.986 -0.5749  1.1350 -0.5631
 2413TIP3    H228655   6.401   1.016   5.025  0.7754 -0.8756  1.3917
 2414TIP3   OH228656   5.199   0.652  13.593  0.5314 -0.8730  0.2796
 2414TIP3    H128657   5.112   0.685  13.573  0.9542  0.1756  0.1094
 2414TIP3    H228658   5.222   0.597  13.517  0.8496  0.5373 -0.6856
 2415TIP3   OH228659   3.910   0.586  15.131  0.1549  0.2367  0.2126
 2415TIP3    H128660   3.846   0.656  15.132  2.2652  2.2828  1.3924
 2415TIP3    H228661   3.952   0.592  15.046  0.9314  1.0229  0.6391
 2416TIP3   OH228662   1.231   3.332   3.158 -0.0166 -0.2765  0.3869
 2416TIP3    H128663   1.139   3.307   3.150  0.1034 -0.6012 -0.0419
 2416TIP3    H228664   1.279   3.250   3.146  0.3423 -0.0427  0.1935
 2417TIP3   OH228665   6.305   3.689  15.942  0.1260 -0.1300 -0.3429
 2417TIP3    H128666   6.364   3.648  16.005  0.3272 -0.6758 -0.8852
 2417TIP3    H228667   6.218   3.676  15.981  0.2259 -0.6752 -0.2878
 2418TIP3   OH228668   6.306   5.897  16.994 -0.1265 -0.6682 -0.6569
 2418TIP3    H128669   6.275   5.946  16.918  0.9733  1.9906  0.4760
 2418TIP3    H228670   6.231   5.892  17.052  0.1996  1.5011  0.0337
 2419TIP3   OH228671   4.419   2.592   3.269  0.1371 -0.2397 -0.4721
 2419TIP3    H128672   4.407   2.558   3.180  1.9378  0.0924 -0.8929
 2419TIP3    H228673   4.424   2.687   3.258  0.2708 -0.1882 -0.0045
 2420TIP3   OH228674   5.181   3.202   2.267 -0.1180  0.3829  0.3604
 2420TIP3    H128675   5.134   3.203   2.350  1.8843  1.0244  1.5525
 2420TIP3    H228676   5.244   3.274   2.274  1.3397 -0.6976 -0.9596
 2421TIP3   OH228677   5.938   6.452   3.632 -0.3685  0.3222  0.0790
 2421TIP3    H128678   6.028   6.485   3.627  0.4857 -1.8937 -0.4109
 2421TIP3    H228679   5.925   6.431   3.724  0.5140 -1.5721 -0.1975
 2422TIP3   OH228680   2.600   2.213   6.773  0.3994  0.5452 -0.2985
 2422TIP3    H128681   2.535   2.177   6.833  0.6171  0.1157 -0.3212
 2422TIP3    H228682   2.549   2.244   6.698  0.2934 -0.6772 -0.7579
 2423TIP3   OH228683   3.598   0.805   3.417  0.2276  0.4126  0.7793
 2423TIP3    H128684   3.564   0.846   3.338 -0.1904 -0.5702  0.4348
 2423TIP3    H228685   3.593   0.711   3.399  1.2989  0.2037  1.4837
 2424TIP3   OH228686   5.628   6.045   3.118 -0.0862  0.0446 -0.2064
 2424TIP3    H128687   5.606   5.987   3.045  1.8229  0.1787 -0.9600
 2424TIP3    H228688   5.640   5.987   3.193  1.1541 -0.5049 -0.7967
 2425TIP3   OH228689   6.357   5.405   0.632  0.5031  0.7663 -0.0372
 2425TIP3    H128690   6.317   5.355   0.702  2.5271  0.5219  1.0307
 2425TIP3    H228691   6.356   5.496   0.663 -0.0153  0.8851 -0.3993
 2426TIP3   OH228692   2.998   6.221   2.755 -0.2910 -0.7519 -0.4217
 2426TIP3    H128693   2.991   6.214   2.851 -0.1965  0.9722 -0.2582
 2426TIP3    H228694   3.091   6.232   2.738 -0.3846 -0.2826 -0.6418
 2427TIP3   OH228695   4.608   1.757   3.043 -0.6082  0.2657  0.0461
 2427TIP3    H128696   4.586   1.843   3.078 -1.8929 -0.2357  0.5581
 2427TIP3    H228697   4.560   1.751   2.961  0.1176  0.3333 -0.3913
 2428TIP3   OH228698   5.770   3.537  10.664 -0.3272 -0.2033  0.1004
 2428TIP3    H128699   5.746   3.453  10.704  0.6829 -0.2583  0.6230
 2428TIP3    H228700   5.855   3.521  10.623 -0.8928  0.1269 -1.2620
 2429TIP3   OH228701   5.278   2.998   6.502 -0.1219  1.1436 -0.1151
 2429TIP3    H128702   5.370   3.017   6.518 -0.6462  3.5766  0.5325
 2429TIP3    H228703   5.256   2.930   6.565  0.9333  1.5288  0.6941
 2430TIP3   OH228704   5.308   3.261   4.148 -0.0275  0.0027  0.2691
 2430TIP3    H128705   5.254   3.248   4.226 -0.6247 -0.0120 -0.1414
 2430TIP3    H228706   5.327   3.355   4.148 -1.4290  0.2994 -0.4687
 2431TIP3   OH228707   3.220   4.735  17.013  0.5249  0.3136  0.1438
 2431TIP3    H128708   3.188   4.663  16.958  1.2387  0.0174  0.1014
 2431TIP3    H228709   3.167   4.730  17.092  0.6636 -0.3579  0.2043
 2432TIP3   OH228710   2.717   5.014   0.156 -0.1486  0.0073  0.4183
 2432TIP3    H128711   2.728   5.089   0.097  1.7819  0.2092  0.9667
 2432TIP3    H228712   2.642   5.038   0.211  0.4556  1.5810  0.6072
 2433TIP3   OH228713   6.472   2.498   0.484 -0.0695 -0.2136 -0.0519
 2433TIP3    H128714   6.525   2.429   0.445 -1.4472 -0.9100 -0.7853
 2433TIP3    H228715   6.388   2.456   0.503 -0.3040  0.7758  1.3071
 2434TIP3   OH228716   1.248   5.659  15.210  0.2026 -0.1089 -0.1380
 2434TIP3    H128717   1.290   5.744  15.199  1.7234 -1.0666 -2.3978
 2434TIP3    H228718   1.168   5.678  15.259  1.2133  2.3721  0.6991
 2435TIP3   OH228719   1.306   2.659   2.782  0.1026 -0.3388 -0.1183
 2435TIP3    H128720   1.261   2.742   2.768  0.4087 -0.0120  0.7205
 2435TIP3    H228721   1.371   2.654   2.712  2.8962  2.1344  2.0108
 2436TIP3   OH228722   2.105   2.558   3.733  0.0326  0.1499 -0.3364
 2436TIP3    H128723   2.025   2.518   3.699 -0.4243  1.9816 -1.5744
 2436TIP3    H228724   2.167   2.554   3.660  0.1845  1.0580 -0.2712
 2437TIP3   OH228725   3.975   0.147  11.945  0.2037  0.4285  0.0590
 2437TIP3    H128726   3.997   0.075  12.003  2.3721  0.1890 -0.9827
 2437TIP3    H228727   3.898   0.117  11.898  0.5930 -0.8632  0.2174
 2438TIP3   OH228728   0.272   3.250   1.132 -0.3985 -0.6217 -0.2334
 2438TIP3    H128729   0.302   3.179   1.189  0.9640 -0.3469 -0.5750
 2438TIP3    H228730   0.247   3.207   1.051 -0.1488 -0.7856 -0.2250
 2439TIP3   OH228731   6.562   0.817   2.202  0.3722  0.2293  0.3465
 2439TIP3    H128732   6.578   0.906   2.172  0.3016  0.3712  0.7244
 2439TIP3    H228733   6.596   0.761   2.132  1.4349  0.5376  0.6059
 2440TIP3   OH228734   3.784   6.008  15.634  0.0604  0.5053  0.0559
 2440TIP3    H128735   3.720   5.938  15.623 -1.7480  1.8592  1.2301
 2440TIP3    H228736   3.749   6.061  15.706  2.7032  1.1655  0.9734
 2441TIP3   OH228737   2.490   5.270   0.639 -0.0226 -0.4892 -0.0129
 2441TIP3    H128738   2.480   5.183   0.678  2.6312 -0.8043  0.1806
 2441TIP3    H228739   2.585   5.282   0.631 -0.2256  2.8132  0.8760
 2442TIP3   OH228740   5.013   3.610   2.727 -0.6453  0.4243  0.1636
 2442TIP3    H128741   5.019   3.643   2.638 -1.6453 -1.4885 -0.6784
 2442TIP3    H228742   5.000   3.688   2.781 -1.1759  1.5261 -1.4936
 2443TIP3   OH228743   2.370   2.425   2.697  0.3395  1.1959  0.5010
 2443TIP3    H128744   2.296   2.485   2.695 -0.3686  0.3191 -0.7136
 2443TIP3    H228745   2.403   2.431   2.787 -3.3269 -0.8687  2.2252
 2444TIP3   OH228746   6.391   0.442   4.257  0.0665 -0.6666  0.0035
 2444TIP3    H128747   6.316   0.426   4.315 -0.6519  2.5237  0.1670
 2444TIP3    H228748   6.465   0.400   4.300 -0.8103  0.0244  2.3383
 2445TIP3   OH228749   3.603   4.046   0.473 -0.1624 -0.2645 -0.1318
 2445TIP3    H128750   3.659   4.062   0.548 -2.1131  0.1784  1.3037
 2445TIP3    H228751   3.609   4.126   0.421 -0.7807  0.4841  0.9191
 2446TIP3   OH228752   3.140   5.648   5.700  0.6474 -0.2773  0.2632
 2446TIP3    H128753   3.110   5.721   5.646 -0.1855 -1.0928 -0.3964
 2446TIP3    H228754   3.151   5.685   5.787 -1.0133  0.3540  0.2290
 2447TIP3   OH228755   0.464   3.971   3.585 -0.7419 -0.1815  0.4804
 2447TIP3    H128756   0.453   4.052   3.537 -0.9477 -0.9734 -0.8483
 2447TIP3    H228757   0.485   3.905   3.518 -3.5129 -1.8538  1.1116
 2448TIP3   OH228758   2.682   3.966  14.287 -0.2193  0.0744 -0.1655
 2448TIP3    H128759   2.635   3.936  14.364 -0.9393 -0.1682 -0.6905
 2448TIP3    H228760   2.739   3.893  14.262 -3.0018 -1.5556 -2.2907
 2449TIP3   OH228761   1.489   3.456   1.773  0.2787 -0.2218  0.0363
 2449TIP3    H128762   1.412   3.472   1.829 -0.0144 -0.8194 -0.1830
 2449TIP3    H228763   1.465   3.379   1.721  0.4712  0.4349 -1.0576
 2450TIP3   OH228764   6.743   4.267  12.229  0.1873  0.0624  0.2040
 2450TIP3    H128765   6.666   4.277  12.174 -0.7166 -1.6515  1.0804
 2450TIP3    H228766   6.732   4.182  12.270  1.5767  0.6385  1.8831
 2451TIP3   OH228767   4.191   4.338  16.557 -0.4687 -0.1040  0.5964
 2451TIP3    H128768   4.203   4.368  16.647  0.6470 -0.3241  0.5333
 2451TIP3    H228769   4.273   4.361  16.513 -0.1418 -1.9190  0.1886
 2452TIP3   OH228770   4.366   0.450   5.490 -0.2910  0.5147  0.6239
 2452TIP3    H128771   4.395   0.534   5.455  1.7691 -0.4803 -0.1757
 2452TIP3    H228772   4.427   0.430   5.561  0.4711 -1.1628 -0.4360
 2453TIP3   OH228773   0.716   1.876   2.990  0.0555  0.1646  0.0463
 2453TIP3    H128774   0.717   1.919   2.904 -2.1979  0.6042  0.1706
 2453TIP3    H228775   0.689   1.945   3.050 -0.4067 -0.6321  0.7734
 2454TIP3   OH228776   1.328   4.276  13.161  0.3072 -0.5708 -0.1235
 2454TIP3    H128777   1.280   4.221  13.098 -0.0471 -0.7519  0.2983
 2454TIP3    H228778   1.335   4.361  13.118 -0.0554 -0.6529 -0.3533
 2455TIP3   OH228779   1.495   6.091  10.963  0.1695 -0.0804 -0.0568
 2455TIP3    H128780   1.411   6.137  10.962 -0.2066 -0.7504 -1.0787
 2455TIP3    H228781   1.561   6.161  10.966 -0.4002  0.4473  0.9900
 2456TIP3   OH228782   0.751   3.479   4.451 -0.0693  0.6281 -0.2354
 2456TIP3    H128783   0.656   3.473   4.455  0.0141 -1.5392 -0.4253
 2456TIP3    H228784   0.768   3.545   4.384 -1.3971  2.3405  1.0440
 2457TIP3   OH228785   0.385   0.367   1.910  0.0667 -0.4295 -0.1238
 2457TIP3    H128786   0.463   0.421   1.920 -0.1276  0.0080 -0.8611
 2457TIP3    H228787   0.326   0.395   1.980 -0.9755  2.0186 -1.8280
 2458TIP3   OH228788   4.032   4.315   5.513 -0.0365  0.5502  0.0642
 2458TIP3    H128789   3.944   4.326   5.550  0.1276  0.9458  0.3462
 2458TIP3    H228790   4.091   4.339   5.584  0.2801  2.2088 -0.7234
 2459TIP3   OH228791   4.890   0.024   2.021  0.2466 -0.1350  0.3257
 2459TIP3    H128792   4.908   0.072   1.940  1.8182 -2.0220 -0.5340
 2459TIP3    H228793   4.858   0.091   2.082 -0.5256  1.4263 -1.6794
 2460TIP3   OH228794   2.954   2.786   6.413 -0.0621 -0.1786  0.4927
 2460TIP3    H128795   2.969   2.748   6.327 -0.9394  0.8373 -0.1335
 2460TIP3    H228796   3.028   2.757   6.466  1.5848  0.8809 -1.1637
 2461TIP3   OH228797   3.932   4.755   3.927 -0.1097 -0.2875 -0.0796
 2461TIP3    H128798   3.846   4.721   3.949 -0.5016  1.5204  1.4158
 2461TIP3    H228799   3.944   4.732   3.835 -1.5285 -1.8721  0.0855
 2462TIP3   OH228800   1.440   3.904  17.148  0.6577  0.4594  0.3869
 2462TIP3    H128801   1.466   3.939  17.063 -0.6825 -0.7406 -0.5658
 2462TIP3    H228802   1.359   3.950  17.169 -0.5608 -1.1983 -0.3893
 2463TIP3   OH228803   2.013   0.783  15.923  0.0161 -0.6603  0.3850
 2463TIP3    H128804   2.063   0.702  15.932 -1.6836 -1.9749 -1.2487
 2463TIP3    H228805   2.052   0.826  15.847  1.3260  0.4533  1.6153
 2464TIP3   OH228806   2.712   1.906   4.388 -0.6315  0.6458  0.0636
 2464TIP3    H128807   2.669   1.979   4.432 -0.6417  0.9092 -0.3790
 2464TIP3    H228808   2.653   1.885   4.314 -0.5063  0.3513  0.0448
 2465TIP3   OH228809   3.408   2.603   3.412  0.1990  0.0847  0.3892
 2465TIP3    H128810   3.394   2.681   3.466 -2.5569  0.3445 -0.5679
 2465TIP3    H228811   3.430   2.638   3.325 -3.3588  0.0162 -0.6771
 2466TIP3   OH228812   1.869   3.118   4.452  0.2122 -0.8621 -0.0159
 2466TIP3    H128813   1.857   3.188   4.388  2.8357  0.6336  0.9681
 2466TIP3    H228814   1.784   3.109   4.494 -0.3120  1.5706 -0.3967
 2467TIP3   OH228815   5.383   5.984   1.435  0.1321 -0.6170  0.3869
 2467TIP3    H128816   5.389   6.076   1.410 -0.3280 -0.8496 -0.6502
 2467TIP3    H228817   5.342   5.985   1.521 -0.3467  0.1234  0.1592
 2468TIP3   OH228818   5.225   1.199  14.137  0.3977 -0.3531 -0.6633
 2468TIP3    H128819   5.145   1.148  14.152  0.4060  0.1072  1.1756
 2468TIP3    H228820   5.296   1.136  14.153  0.4051 -0.5224 -1.3605
 2469TIP3   OH228821   1.855   0.272   3.475  0.0283  0.0081  1.1176
 2469TIP3    H128822   1.895   0.355   3.449 -0.4150 -0.6105 -1.9017
 2469TIP3    H228823   1.929   0.218   3.503  0.4977  0.8941  1.6428
 2470TIP3   OH228824   4.082   2.045  16.417  0.1568  0.1804  0.1213
 2470TIP3    H128825   4.052   2.129  16.452  1.4092  0.2029  1.1850
 2470TIP3    H228826   4.052   1.980  16.480 -2.2372 -0.4262 -1.5016
 2471TIP3   OH228827   1.102   0.393  15.879  0.3666 -0.8315  0.2280
 2471TIP3    H128828   1.071   0.387  15.788  1.6638  2.1845 -0.5144
 2471TIP3    H228829   1.174   0.330  15.883  0.8451 -0.4048 -1.1086
 2472TIP3   OH228830   1.312   4.281   5.137 -0.4343 -0.0338  0.2657
 2472TIP3    H128831   1.407   4.271   5.140 -0.6129 -1.8786  1.1589
 2472TIP3    H228832   1.287   4.301   5.227 -0.8889  0.5896  0.0082
 2473TIP3   OH228833   6.083   4.920  12.618  0.1921  0.3964  0.3937
 2473TIP3    H128834   6.169   4.928  12.660  0.3031  1.8263 -0.0457
 2473TIP3    H228835   6.099   4.867  12.541  0.6927  0.6713  0.3030
 2474TIP3   OH228836   2.246   5.522   3.324 -0.2426  0.2260  0.1085
 2474TIP3    H128837   2.163   5.561   3.294 -0.7856  0.1490  1.4535
 2474TIP3    H228838   2.239   5.521   3.419  0.3626 -1.8555  0.1742
 2475TIP3   OH228839   0.407   3.022  15.121  0.0121  0.9846  0.3103
 2475TIP3    H128840   0.383   3.054  15.034  0.7086 -0.0083 -0.2699
 2475TIP3    H228841   0.499   3.044  15.130  0.0781  0.6033  0.5702
 2476TIP3   OH228842   6.147   0.879  16.786 -0.0012 -0.4121  0.4257
 2476TIP3    H128843   6.214   0.846  16.727 -1.0564 -2.6340  0.3920
 2476TIP3    H228844   6.083   0.922  16.728 -0.1456 -1.0188  0.1313
 2477TIP3   OH228845   1.849   3.763   2.783 -0.0514  0.1717  0.8623
 2477TIP3    H128846   1.767   3.812   2.785 -1.6272 -2.2945  2.2616
 2477TIP3    H228847   1.893   3.787   2.865  0.2900  0.9317  0.4645
 2478TIP3   OH228848   4.592   3.789  13.665 -0.4593 -0.1266 -0.2394
 2478TIP3    H128849   4.560   3.838  13.741 -1.0179 -0.8292 -0.0097
 2478TIP3    H228850   4.687   3.792  13.673 -0.5220 -1.1687  1.1302
 2479TIP3   OH228851   2.777   3.034   2.401  0.4262  0.4198 -0.0417
 2479TIP3    H128852   2.692   3.017   2.441  0.7464  0.6160  0.7448
 2479TIP3    H228853   2.797   2.953   2.353  0.0256  0.1809  0.1863
 2480TIP3   OH228854   3.495   0.697  14.608 -0.7865  0.3594 -0.3597
 2480TIP3    H128855   3.440   0.764  14.567 -1.0951  1.7971  2.1639
 2480TIP3    H228856   3.436   0.651  14.668 -0.5796 -2.2845 -2.0112
 2481TIP3   OH228857   2.396   2.764   4.839 -0.0757  0.4958 -0.1943
 2481TIP3    H128858   2.380   2.794   4.928  1.5059 -1.2372  0.7622
 2481TIP3    H228859   2.474   2.708   4.846  1.6915  2.3022 -3.0917
 2482TIP3   OH228860   2.823   4.465   4.156  0.1208  0.7027  0.0832
 2482TIP3    H128861   2.874   4.420   4.224  0.1212  0.5500 -0.0167
 2482TIP3    H228862   2.763   4.521   4.204 -0.1833  0.2638  0.2172
 2483TIP3   OH228863   5.068   4.133  13.930 -0.1371 -0.6473  0.0777
 2483TIP3    H128864   5.024   4.054  13.898 -0.0629  0.0599 -1.9045
 2483TIP3    H228865   5.026   4.204  13.882  0.7444  0.3966  0.8173
 2484TIP3   OH228866   5.274   6.444  11.802  0.0068  0.2539 -0.5339
 2484TIP3    H128867   5.357   6.493  11.799  0.1991 -0.0630 -0.3807
 2484TIP3    H228868   5.217   6.490  11.740 -0.0474  1.1095  0.1334
 2485TIP3   OH228869   4.954   1.701   2.735 -0.0706 -0.0834  0.5277
 2485TIP3    H128870   4.968   1.675   2.644 -1.3051  0.6424  0.1126
 2485TIP3    H228871   4.886   1.642   2.767  0.4463 -0.4180  1.0317
 2486TIP3   OH228872   6.180   1.826   3.692 -0.0786  0.2172  0.6553
 2486TIP3    H128873   6.230   1.816   3.612  0.5619  0.4001  1.0230
 2486TIP3    H228874   6.244   1.814   3.762 -0.2286  1.9079  1.1296
 2487TIP3   OH228875   6.425   3.016   3.601 -0.1096 -0.4962  0.1729
 2487TIP3    H128876   6.425   2.974   3.687  0.0857 -1.3624 -0.2407
 2487TIP3    H228877   6.334   3.011   3.573 -0.2991  0.3622  0.5889
 2488TIP3   OH228878   4.166   2.734   4.365 -0.4224  0.3610  0.3889
 2488TIP3    H128879   4.146   2.822   4.333 -0.9990 -0.1287 -0.6222
 2488TIP3    H228880   4.107   2.676   4.317  1.4781 -0.8259 -0.6368
 2489TIP3   OH228881   1.339   0.538  13.259  0.5038 -0.0997  0.4476
 2489TIP3    H128882   1.372   0.460  13.214  1.1663  0.8070 -0.6530
 2489TIP3    H228883   1.281   0.502  13.327  0.1771 -1.5304 -0.5255
 2490TIP3   OH228884   6.699   6.764   4.110  0.4145 -0.5353  0.3385
 2490TIP3    H128885   6.736   6.740   4.195  4.0145  1.3578 -0.4659
 2490TIP3    H228886   6.661   6.851   4.124  0.9416 -0.2557  0.0915
 2491TIP3   OH228887   3.754   3.854   0.302 -0.3442  0.3635 -0.2910
 2491TIP3    H128888   3.708   3.919   0.355 -0.0352 -0.6697  1.3092
 2491TIP3    H228889   3.703   3.774   0.314  0.6524 -0.2718 -0.2511
 2492TIP3   OH228890   2.751   6.241   1.132 -0.4557  0.4734  0.1500
 2492TIP3    H128891   2.678   6.246   1.071 -0.1145  1.4580 -0.2004
 2492TIP3    H228892   2.815   6.304   1.098  1.2758 -1.5348 -0.4744
 2493TIP3   OH228893   2.920   3.576   5.752  0.0172 -0.1143 -0.4215
 2493TIP3    H128894   2.962   3.493   5.774 -0.4750 -1.1181 -2.8898
 2493TIP3    H228895   2.877   3.559   5.668 -2.5212  1.8183  0.3561
 2494TIP3   OH228896   1.357   0.528   2.337 -0.3565  0.2507  0.7068
 2494TIP3    H128897   1.352   0.476   2.257  0.3222  0.3315  0.5993
 2494TIP3    H228898   1.358   0.619   2.306  0.9049  0.2617  0.7284
 2495TIP3   OH228899   3.407   0.552  14.849  0.3384  0.4621  0.7306
 2495TIP3    H128900   3.427   0.459  14.852 -1.3988  0.0557  0.4360
 2495TIP3    H228901   3.317   0.559  14.879  0.1728  1.9694  0.0025
 2496TIP3   OH228902   3.541   4.915   5.111 -0.3280 -0.2303  0.1012
 2496TIP3    H128903   3.524   4.846   5.174  1.3842  0.1833  1.0811
 2496TIP3    H228904   3.567   4.869   5.031 -0.2473 -0.7247  0.4121
 2497TIP3   OH228905   2.019   4.562   0.807  0.1925  0.0270 -0.0377
 2497TIP3    H128906   1.984   4.643   0.769 -0.9123 -0.2035  0.4403
 2497TIP3    H228907   2.094   4.590   0.859 -0.8853  0.9406  1.1028
 2498TIP3   OH228908   5.312   5.185   4.981 -0.4610 -0.3541 -0.0722
 2498TIP3    H128909   5.300   5.091   4.989  1.7423 -0.5868  1.3604
 2498TIP3    H228910   5.350   5.212   5.065 -0.6954  1.7545 -0.5833
 2499TIP3   OH228911   1.258   6.156   0.979 -0.1556 -0.4230  0.0090
 2499TIP3    H128912   1.307   6.090   0.930 -0.8928 -2.2198  1.5626
 2499TIP3    H228913   1.314   6.176   1.054  0.2591  1.1131 -0.6721
 2500TIP3   OH228914   5.072   6.200   3.317  0.4108  0.4570  0.1802
 2500TIP3    H128915   4.998   6.215   3.376  0.4647  0.3294  0.2833
 2500TIP3    H228916   5.033   6.192   3.230  0.1534 -0.9073  0.3914
 2501TIP3   OH228917   2.724   3.628   2.709  0.0186 -0.0205  0.3313
 2501TIP3    H128918   2.810   3.587   2.699 -0.2047 -0.6726  1.0859
 2501TIP3    H228919   2.715   3.644   2.803 -1.9904 -2.8574  0.7500
 2502TIP3   OH228920   3.461   5.894  13.546  0.4617  0.4103 -0.1021
 2502TIP3    H128921   3.399   5.944  13.598  0.7248  0.0081  0.6125
 2502TIP3    H228922   3.426   5.805  13.547  1.0090  0.1915  0.2591
 2503TIP3   OH228923   3.807   3.703   1.927 -0.3858 -0.4526 -0.1834
 2503TIP3    H128924   3.744   3.661   1.869  0.5505 -0.6661 -1.0614
 2503TIP3    H228925   3.785   3.796   1.923  0.5738 -0.2686 -2.0512
 2504TIP3   OH228926   4.897   0.616   3.778 -0.0813 -0.8451  0.0488
 2504TIP3    H128927   4.927   0.679   3.843 -0.5684 -1.5488  0.9728
 2504TIP3    H228928   4.938   0.644   3.696 -1.1472  1.3290  0.1911
 2505TIP3   OH228929   6.169   0.970  11.946  0.6647 -0.4519  0.5292
 2505TIP3    H128930   6.238   0.981  11.881  0.0513  0.9379  0.0921
 2505TIP3    H228931   6.088   0.992  11.900 -0.3020 -3.2534  0.6643
 2506TIP3   OH228932   2.915   1.205  13.139  0.0426 -0.3634 -0.1066
 2506TIP3    H128933   2.920   1.211  13.235  1.2517 -0.5176 -0.1422
 2506TIP3    H228934   2.919   1.111  13.121  0.4414 -0.3066 -0.3277
 2507TIP3   OH228935   4.308   6.507   5.060  0.2381  0.7514  0.7208
 2507TIP3    H128936   4.387   6.526   5.111  1.5652 -2.0828 -0.0455
 2507TIP3    H228937   4.242   6.484   5.124  0.9866  0.1630  1.3031
 2508TIP3   OH228938   4.350   2.341  15.183 -0.2853  0.4607  0.2903
 2508TIP3    H128939   4.342   2.260  15.233  1.8224 -0.5050 -0.8119
 2508TIP3    H228940   4.339   2.411  15.248  1.4616 -0.7417  1.9958
 2509TIP3   OH228941   1.874   5.409  15.629 -0.4322 -0.3729  0.1342
 2509TIP3    H128942   1.887   5.399  15.534 -1.9784  2.7737 -0.5560
 2509TIP3    H228943   1.897   5.501  15.646 -1.1871 -0.5773  2.6447
 2510TIP3   OH228944   0.242   5.834  13.352 -0.0184  0.5560  0.7079
 2510TIP3    H128945   0.253   5.926  13.377 -1.2207  1.0920 -0.6064
 2510TIP3    H228946   0.254   5.786  13.434  3.1852  1.6062  1.0204
 2511TIP3   OH228947   1.588   0.470   1.096 -0.3076  0.2477 -0.6011
 2511TIP3    H128948   1.575   0.475   1.191 -3.4460  0.1926 -0.9245
 2511TIP3    H228949   1.576   0.378   1.075 -0.0360  0.3263 -1.1042
 2512TIP3   OH228950   1.126   1.187   5.761 -0.5311 -0.3016 -0.0191
 2512TIP3    H128951   1.209   1.142   5.744 -1.3780 -1.3361 -1.6864
 2512TIP3    H228952   1.140   1.276   5.730 -0.5895 -0.9644 -2.0656
 2513TIP3   OH228953   5.864   3.205   2.302  0.2325  0.2627  0.3564
 2513TIP3    H128954   5.952   3.187   2.269  0.2518 -2.4519  1.5755
 2513TIP3    H228955   5.878   3.222   2.395 -0.6207 -2.5930  1.1084
 2514TIP3   OH228956   1.227   1.931  13.429 -0.2584 -0.0381  0.1995
 2514TIP3    H128957   1.299   1.938  13.492 -0.1648  2.6586 -0.1032
 2514TIP3    H228958   1.268   1.945  13.344 -0.8821 -0.1968 -0.1336
 2515TIP3   OH228959   3.148   3.147  14.079 -0.0085 -0.2784  0.1926
 2515TIP3    H128960   3.073   3.186  14.034 -1.7102 -0.0507  2.9581
 2515TIP3    H228961   3.224   3.174  14.028 -1.6409  1.1157 -1.6587
 2516TIP3   OH228962   2.957   0.326  16.724  0.0333 -0.1153  0.2035
 2516TIP3    H128963   2.927   0.403  16.773 -1.1463 -1.8011  2.2676
 2516TIP3    H228964   2.944   0.350  16.632 -1.0955  1.8404  0.8137
 2517TIP3   OH228965   1.714   5.569  12.802 -0.3998  0.0489  0.3366
 2517TIP3    H128966   1.646   5.553  12.869 -2.2694 -0.3046 -1.5316
 2517TIP3    H228967   1.672   5.543  12.720  0.2320  4.3418 -1.6063
 2518TIP3   OH228968   2.068   0.974  13.858 -0.5623  0.5936 -0.4470
 2518TIP3    H128969   2.066   0.978  13.762 -1.5677  1.3371 -0.4026
 2518TIP3    H228970   2.129   1.043  13.883  1.2092 -0.8357 -0.5900
 2519TIP3   OH228971   5.237   4.562   1.081  0.3952 -0.3778  0.0802
 2519TIP3    H128972   5.205   4.649   1.103  2.7672  0.7984 -0.7978
 2519TIP3    H228973   5.278   4.573   0.995  1.6049 -2.1456  0.3924
 2520TIP3   OH228974   3.306   1.587  13.890  0.5913 -0.0798  0.4935
 2520TIP3    H128975   3.377   1.571  13.952  0.3439  0.8117  1.0283
 2520TIP3    H228976   3.228   1.596  13.945  0.3689  0.7235  0.0666
 2521TIP3   OH228977   1.208   2.889   2.675  0.2579 -0.0257  0.3599
 2521TIP3    H128978   1.151   2.958   2.639  0.2741  0.4638  1.2343
 2521TIP3    H228979   1.204   2.818   2.611 -0.4516  0.4513 -0.1354
 2522TIP3   OH228980   2.672   3.827   2.069  0.6571  0.7847  0.4641
 2522TIP3    H128981   2.665   3.746   2.017  0.5004  0.2953  1.2400
 2522TIP3    H228982   2.665   3.897   2.004  0.0755  0.1847 -0.1412
 2523TIP3   OH228983   5.207   5.040  16.994  0.2791  0.3561 -0.1292
 2523TIP3    H128984   5.130   5.085  17.029  0.1764 -0.9740  1.4999
 2523TIP3    H228985   5.173   4.958  16.958  0.8627 -0.0712  0.2567
 2524TIP3   OH228986   1.378   4.685   4.530 -0.1374  0.5307 -0.1892
 2524TIP3    H128987   1.314   4.614   4.520  0.8194 -0.4235  0.2715
 2524TIP3    H228988   1.345   4.754   4.473 -1.6174  0.0992  0.0895
 2525TIP3   OH228989   4.310   5.616  13.173 -0.5005 -0.1560 -0.0998
 2525TIP3    H128990   4.331   5.548  13.109 -0.2662 -1.4647  1.2988
 2525TIP3    H228991   4.386   5.617  13.232 -1.8458 -0.9894  1.7675
 2526TIP3   OH228992   1.288   0.432  15.222  0.3107  0.0798  0.9742
 2526TIP3    H128993   1.374   0.449  15.259  0.4032 -0.9487  1.2411
 2526TIP3    H228994   1.228   0.437  15.297 -0.2164  3.0200  0.4848
 2527TIP3   OH228995   5.783   3.076  16.365 -0.1584  0.0191  0.0650
 2527TIP3    H128996   5.823   3.157  16.336  1.3400 -0.5188  0.5341
 2527TIP3    H228997   5.856   3.022  16.396 -1.2188 -1.0977  0.7531
 2528TIP3   OH228998   1.396   0.179  16.413 -0.0585  0.0678  0.3082
 2528TIP3    H128999   1.465   0.242  16.392  1.4979 -1.5123  0.4955
 2528TIP3    H229000   1.343   0.175  16.332  0.7406  0.4438 -0.2481
 2529TIP3   OH229001   5.472   0.505   0.953  0.0847  0.5440 -0.3230
 2529TIP3    H129002   5.479   0.469   1.042 -0.0593  1.1421 -0.0630
 2529TIP3    H229003   5.435   0.434   0.901  0.6021  0.0384 -0.0006
 2530TIP3   OH229004   2.260   2.115   2.817  0.1258  0.1046  0.0667
 2530TIP3    H129005   2.321   2.169   2.767  0.2163 -0.2470 -0.2034
 2530TIP3    H229006   2.176   2.161   2.808 -0.0359 -0.3720 -1.0913
 2531TIP3   OH229007   1.812   1.001   5.171  0.3102  0.7679 -0.2238
 2531TIP3    H129008   1.826   0.978   5.079 -0.1315 -0.0757 -0.0959
 2531TIP3    H229009   1.889   0.966   5.217  0.5740  1.2691 -0.2869
 2532TIP3   OH229010   2.404   1.631  16.677 -0.1170 -0.1370 -0.1857
 2532TIP3    H129011   2.363   1.637  16.591 -0.1522  1.7671 -0.0904
 2532TIP3    H229012   2.498   1.643  16.661 -0.2896  2.0589  0.1475
 2533TIP3   OH229013   0.281   4.940   1.122  0.4638 -0.0583  0.4967
 2533TIP3    H129014   0.268   4.875   1.192  1.0192 -0.2705  0.4069
 2533TIP3    H229015   0.354   4.993   1.152  0.7821 -0.2237  0.0214
 2534TIP3   OH229016   6.304   1.299   1.920  0.8540  0.0640 -0.0480
 2534TIP3    H129017   6.217   1.334   1.898  0.7748  0.6327  1.1095
 2534TIP3    H229018   6.293   1.204   1.914 -0.4518  0.0130  2.0906
 2535TIP3   OH229019   4.616   5.027  11.705  0.1818 -0.2818 -0.1596
 2535TIP3    H129020   4.530   5.061  11.681  0.1847 -0.9367 -1.1370
 2535TIP3    H229021   4.598   4.946  11.752  0.2739 -0.5829 -0.6425
 2536TIP3   OH229022   3.890   6.127   4.750 -0.2351  0.3750  0.0901
 2536TIP3    H129023   3.938   6.051   4.718  0.1557 -0.2395  2.0327
 2536TIP3    H229024   3.957   6.182   4.792 -0.7527  1.0623  0.0390
 2537TIP3   OH229025   6.306   3.123  12.887 -0.4010  0.3543  0.6538
 2537TIP3    H129026   6.385   3.172  12.909 -1.2522  2.4513 -0.6919
 2537TIP3    H229027   6.241   3.190  12.867 -2.2422 -1.3314  0.7239
 2538TIP3   OH229028   1.734   5.948   3.878 -0.3123  0.2112  0.0426
 2538TIP3    H129029   1.682   6.017   3.919 -0.3529  0.2112 -0.0098
 2538TIP3    H229030   1.741   5.880   3.945 -2.7854 -1.0756 -0.8937
 2539TIP3   OH229031   5.126   4.417  13.813 -0.6955 -0.1585 -0.1043
 2539TIP3    H129032   5.217   4.433  13.788 -0.8824  1.3673  0.1305
 2539TIP3    H229033   5.076   4.430  13.732 -0.6627 -1.7131 -0.4067
 2540TIP3   OH229034   0.162   5.176   5.811 -0.5016  0.0875 -0.0946
 2540TIP3    H129035   0.194   5.265   5.824 -1.3278  0.1749  1.5500
 2540TIP3    H229036   0.069   5.187   5.790 -0.6543 -0.4025  0.3259
 2541TIP3   OH229037   4.253   3.372   5.612 -0.4107  0.3991  0.3519
 2541TIP3    H129038   4.294   3.443   5.661  0.9397  0.4094 -0.7261
 2541TIP3    H229039   4.287   3.382   5.523 -0.2546 -1.5279  0.1566
 2542TIP3   OH229040   2.113   1.203  14.133  0.4771  0.2848  0.0072
 2542TIP3    H129041   2.124   1.247  14.217 -1.1075 -1.1207  1.0200
 2542TIP3    H229042   2.181   1.135  14.132 -0.0273 -0.2339  0.5415
 2543TIP3   OH229043   2.495   1.456  11.792 -0.3388  0.2939  0.8467
 2543TIP3    H129044   2.493   1.389  11.860 -1.0015 -0.7657 -0.1799
 2543TIP3    H229045   2.453   1.415  11.717  0.1908  1.5094 -0.1452
 2544TIP3   OH229046   2.675   4.763  13.410 -0.3445  0.3399  0.0877
 2544TIP3    H129047   2.601   4.814  13.377 -0.0818  2.2506  2.2141
 2544TIP3    H229048   2.636   4.702  13.472 -0.6411 -2.1464 -2.3591
 2545TIP3   OH229049   5.054   0.234   3.456 -0.1985  0.8278 -0.0744
 2545TIP3    H129050   5.104   0.198   3.530 -0.8447  0.9522  0.4375
 2545TIP3    H229051   5.084   0.325   3.449 -0.4837  0.9606  0.3592
 2546TIP3   OH229052   2.597   1.198  13.292 -0.3666  0.5594  1.0453
 2546TIP3    H129053   2.616   1.273  13.349 -0.6902  0.7928  0.8511
 2546TIP3    H229054   2.630   1.225  13.206  0.8450 -0.1077  1.2757
 2547TIP3   OH229055   5.343   6.597   2.865 -0.5101 -0.3121 -0.2477
 2547TIP3    H129056   5.375   6.579   2.777  0.5659 -3.4814  0.6583
 2547TIP3    H229057   5.419   6.582   2.921 -0.7958  2.9210  1.2497
 2548TIP3   OH229058   4.094   6.050  12.457 -0.4387 -0.1176  0.1459
 2548TIP3    H129059   4.126   6.006  12.379 -1.1887  0.8712 -0.7477
 2548TIP3    H229060   3.998   6.048  12.448 -0.5069  2.2111 -0.2590
 2549TIP3   OH229061   2.543   2.202   3.682 -0.1099  0.0978  0.3393
 2549TIP3    H129062   2.626   2.165   3.653  0.2649  1.0013  0.2391
 2549TIP3    H229063   2.566   2.255   3.758 -0.7421 -0.3866  0.8811
 2550TIP3   OH229064   6.319   6.495   4.488  0.2187  0.0138  0.2640
 2550TIP3    H129065   6.232   6.510   4.451  0.5842  1.3847 -0.1035
 2550TIP3    H229066   6.313   6.529   4.577  0.6145  0.9160 -0.0480
 2551TIP3   OH229067   2.002   4.253  16.841  0.6054 -0.1204 -0.8228
 2551TIP3    H129068   1.975   4.345  16.832 -2.2892 -0.7955 -0.0521
 2551TIP3    H229069   1.998   4.236  16.935  3.3648 -0.5048 -0.6985
 2552TIP3   OH229070   0.711   6.394  11.748 -0.0948 -0.3863 -0.1175
 2552TIP3    H129071   0.618   6.415  11.746 -0.2129 -0.9556 -0.9760
 2552TIP3    H229072   0.747   6.440  11.672  0.3161 -0.2048  0.1874
 2553TIP3   OH229073   2.284   3.088   3.403  0.1173  0.1388 -0.2516
 2553TIP3    H129074   2.257   3.123   3.318  0.4434  1.0851  0.0252
 2553TIP3    H229075   2.370   3.051   3.388 -0.6648 -1.5510 -0.7931
 2554TIP3   OH229076   5.341   6.189   3.042  0.2920  0.8087 -0.0936
 2554TIP3    H129077   5.345   6.206   2.948 -0.4365 -0.7010 -0.4324
 2554TIP3    H229078   5.408   6.122   3.057 -0.7007 -0.1504  0.1507
 2555TIP3   OH229079   5.433   0.702   0.709  0.0462 -0.0197  0.0225
 2555TIP3    H129080   5.379   0.639   0.662  1.9153 -0.9448 -1.0129
 2555TIP3    H229081   5.452   0.661   0.793  1.1621 -0.8552 -0.6045
 2556TIP3   OH229082   6.397   2.319  16.492  0.7833 -0.3432 -0.4591
 2556TIP3    H129083   6.429   2.281  16.410  1.3960  3.2614 -2.1133
 2556TIP3    H229084   6.345   2.394  16.464 -1.2364 -0.4983  2.4715
 2557TIP3   OH229085   0.880   4.496   4.675 -0.5493 -0.0197 -0.0347
 2557TIP3    H129086   0.917   4.517   4.590  0.9540  0.4983  0.7068
 2557TIP3    H229087   0.906   4.569   4.732  0.4744 -1.4278  1.3987
 2558TIP3   OH229088   4.666   4.486   3.488  0.1678 -0.1586 -0.0866
 2558TIP3    H129089   4.725   4.414   3.467  0.0478 -0.3778  0.3213
 2558TIP3    H229090   4.723   4.561   3.503  0.4373 -0.6265  1.4092
 2559TIP3   OH229091   3.565   3.525   4.273  0.4140 -0.0842  0.2883
 2559TIP3    H129092   3.504   3.533   4.346 -0.1738  0.3503 -0.2346
 2559TIP3    H229093   3.508   3.513   4.196  1.0238 -0.7832 -0.0680
 2560TIP3   OH229094   2.105   3.100   0.176  0.3009  0.0338  0.2308
 2560TIP3    H129095   2.020   3.056   0.183  0.6506 -0.6939 -0.0388
 2560TIP3    H229096   2.166   3.031   0.150  1.0413  0.4881  0.7369
 2561TIP3   OH229097   1.335   6.603  15.072 -0.1386 -0.0322  0.6911
 2561TIP3    H129098   1.332   6.538  15.002  0.9119 -0.4681  1.0386
 2561TIP3    H229099   1.247   6.642  15.072 -0.6470 -1.1312  0.1771
 2562TIP3   OH229100   1.937   2.003  14.830 -0.2686 -0.4627 -0.4526
 2562TIP3    H129101   2.020   2.046  14.810  0.1182 -0.0139  1.8764
 2562TIP3    H229102   1.870   2.058  14.787  0.3402  1.6034  1.0822
 2563TIP3   OH229103   6.597   6.597   3.217  0.3358 -0.6308 -0.4335
 2563TIP3    H129104   6.611   6.689   3.191 -1.6641 -0.3178 -0.5223
 2563TIP3    H229105   6.681   6.571   3.256  1.7466  0.4776 -2.5263
 2564TIP3   OH229106   2.414   1.265  12.716 -0.1061  0.0704 -0.0146
 2564TIP3    H129107   2.353   1.268  12.642 -1.7360  0.9626  1.2982
 2564TIP3    H229108   2.390   1.340  12.769  2.4479  0.6763  0.3817
 2565TIP3   OH229109   2.411   2.394  11.870  0.4361  0.0636 -0.2039
 2565TIP3    H129110   2.380   2.479  11.838  1.9490  0.3728 -0.9756
 2565TIP3    H229111   2.463   2.416  11.948 -1.0686 -0.4191  0.9722
 2566TIP3   OH229112   4.075   5.148  15.746  0.0584 -0.0305 -0.1414
 2566TIP3    H129113   3.990   5.103  15.746  0.8498 -1.6468 -2.0567
 2566TIP3    H229114   4.137   5.081  15.775  1.3818 -0.6096 -3.7799
 2567TIP3   OH229115   0.001   2.847  14.397  0.1033  0.9603 -0.3599
 2567TIP3    H129116   0.067   2.778  14.399  0.3658  1.0567 -2.7759
 2567TIP3    H229117  -0.027   2.856  14.488  3.4566  0.9697  0.8041
 2568TIP3   OH229118   4.318   3.242   1.266  0.0722  0.3697 -0.4586
 2568TIP3    H129119   4.357   3.177   1.325  0.9950  0.2657 -1.1647
 2568TIP3    H229120   4.393   3.289   1.231 -0.5629  1.4918 -0.3436
 2569TIP3   OH229121   4.171   1.789   1.565 -0.3714  0.2484 -0.2114
 2569TIP3    H129122   4.222   1.807   1.644  1.1400  1.7261 -1.4500
 2569TIP3    H229123   4.236   1.760   1.501 -1.6243 -1.3197 -0.8299
 2570TIP3   OH229124   2.108   4.041   3.984 -0.0825  0.2766  0.2775
 2570TIP3    H129125   2.041   3.993   4.033 -0.1030  0.3827  0.3527
 2570TIP3    H229126   2.184   4.041   4.042  0.1994 -0.4260 -0.0764
 2571TIP3   OH229127   4.882   5.220   5.135 -0.0864 -0.5850  0.0145
 2571TIP3    H129128   4.833   5.281   5.080  0.7070  0.1616  0.1219
 2571TIP3    H229129   4.919   5.156   5.073 -2.6080 -2.2273  0.0809
 2572TIP3   OH229130   6.023   4.853   6.639  0.1273 -0.5553  0.2106
 2572TIP3    H129131   6.005   4.768   6.679  0.8584 -0.5331  0.6116
 2572TIP3    H229132   5.960   4.912   6.679  0.5774 -0.6182  1.0508
 2573TIP3   OH229133   2.861   5.622   5.778 -0.5891 -0.3742  0.6787
 2573TIP3    H129134   2.886   5.597   5.689 -0.9394  0.8479  0.2215
 2573TIP3    H229135   2.943   5.654   5.818 -0.9409  1.7694 -0.1730
 2574TIP3   OH229136   4.195   3.999   3.634  0.0227  0.3032 -0.0164
 2574TIP3    H129137   4.212   3.945   3.557 -1.4837 -0.3786  0.0930
 2574TIP3    H229138   4.182   3.936   3.704 -0.3579  0.8692  0.4234
 2575TIP3   OH229139   0.075   2.226  14.281  0.0982  0.0467 -0.8977
 2575TIP3    H129140   0.058   2.306  14.232 -0.8690  0.3636 -0.0864
 2575TIP3    H229141   0.030   2.158  14.232  0.3443  0.1086 -1.2164
 2576TIP3   OH229142   1.470   3.479  16.658  0.2068 -0.6542 -0.0404
 2576TIP3    H129143   1.388   3.496  16.704  0.3493 -0.6681  0.2231
 2576TIP3    H229144   1.449   3.490  16.565  0.4960  1.9638  0.1328
 2577TIP3   OH229145   1.139   5.151   0.392  0.2706 -0.7825  0.0294
 2577TIP3    H129146   1.127   5.203   0.313  2.6259  1.3242  0.8976
 2577TIP3    H229147   1.061   5.170   0.445 -0.5565 -0.9574 -1.0785
 2578TIP3   OH229148   3.009   1.573  15.536  0.0087 -0.1652  0.0943
 2578TIP3    H129149   3.082   1.556  15.476  1.0627 -4.0772  2.1605
 2578TIP3    H229150   3.049   1.621  15.609  0.3898 -1.5602  0.8308
 2579TIP3   OH229151   0.252   4.881   5.907 -0.6382 -0.0113  0.1581
 2579TIP3    H129152   0.276   4.919   5.822  1.5984 -1.6154 -0.0070
 2579TIP3    H229153   0.221   4.793   5.886  1.0476 -0.8535  1.0570
 2580TIP3   OH229154   4.150   5.623   0.367  0.0362 -0.1726  0.8611
 2580TIP3    H129155   4.189   5.695   0.417 -0.5195  0.3557  0.5412
 2580TIP3    H229156   4.187   5.632   0.279 -0.4963  0.0924  0.6610
 2581TIP3   OH229157   3.944   2.860   0.319 -0.4112 -0.0037  0.6060
 2581TIP3    H129158   4.008   2.907   0.372 -0.5665 -0.4351  1.1915
 2581TIP3    H229159   3.883   2.822   0.382 -1.2317  0.3720  0.0571
 2582TIP3   OH229160   1.934   6.433  16.220 -0.7013 -0.0293  0.0910
 2582TIP3    H129161   1.930   6.513  16.168  2.6893 -0.2591 -0.8145
 2582TIP3    H229162   1.989   6.457  16.295 -0.0788 -1.3193  0.0759
 2583TIP3   OH229163   5.787   6.167   4.744  0.0132 -0.4151  0.2837
 2583TIP3    H129164   5.738   6.093   4.709  0.0418  0.1907 -1.1242
 2583TIP3    H229165   5.727   6.209   4.806 -0.0148 -1.5642  1.0636
 2584TIP3   OH229166   3.177   2.731  17.014  0.1399 -0.5514  0.4734
 2584TIP3    H129167   3.187   2.653  17.068 -0.5190 -0.5413  0.6253
 2584TIP3    H229168   3.089   2.722  16.976  1.1400 -1.3195 -1.8148
 2585TIP3   OH229169   5.780   4.838   2.244 -0.0382 -0.6258 -0.0794
 2585TIP3    H129170   5.804   4.915   2.297 -0.8006  0.3841 -1.1679
 2585TIP3    H229171   5.693   4.857   2.211  1.2191 -0.1893 -3.5199
 2586TIP3   OH229172   3.534   2.159   0.604 -0.7470  0.5403 -0.3905
 2586TIP3    H129173   3.536   2.120   0.517 -0.6541  0.2713 -0.2662
 2586TIP3    H229174   3.624   2.154   0.636 -1.0893 -0.9059  0.4090
 2587TIP3   OH229175   5.318   3.644   3.569  0.1259  0.3057 -0.7646
 2587TIP3    H129176   5.280   3.715   3.620  0.4338  0.4032 -0.6691
 2587TIP3    H229177   5.246   3.613   3.513  0.1870  1.2028 -1.3664
 2588TIP3   OH229178   2.167   3.580  11.715 -0.0070  0.0463  0.0846
 2588TIP3    H129179   2.180   3.502  11.768  1.3802  0.1979  0.0043
 2588TIP3    H229180   2.209   3.560  11.632 -1.6788  0.0214 -0.8002
 2589TIP3   OH229181   4.570   3.775  12.044  0.6387 -0.2077 -0.0567
 2589TIP3    H129182   4.580   3.735  12.130 -0.9016  1.5028  0.9884
 2589TIP3    H229183   4.519   3.711  11.994 -1.0693  0.0304  1.3063
 2590TIP3   OH229184   6.678   0.477  13.249  0.1228 -1.0344  0.3390
 2590TIP3    H129185   6.643   0.565  13.235  0.3991 -1.1261 -1.0690
 2590TIP3    H229186   6.607   0.419  13.224  0.0535 -1.2180  0.9536
 2591TIP3   OH229187   3.690   5.589   1.211  0.0440 -0.2366  0.1566
 2591TIP3    H129188   3.749   5.537   1.265  1.1254  0.4957 -0.2949
 2591TIP3    H229189   3.684   5.540   1.129 -0.5239 -0.6460  0.4284
 2592TIP3   OH229190   3.214   1.335   1.591  0.1771 -0.2534  0.7113
 2592TIP3    H129191   3.226   1.427   1.614  0.6670  0.2438 -1.3767
 2592TIP3    H229192   3.272   1.287   1.651  1.8614  1.0119  0.1581
 2593TIP3   OH229193   1.716   3.972   4.378 -1.4261  0.6938 -0.2382
 2593TIP3    H129194   1.735   3.943   4.467 -1.9803 -1.5428 -0.7870
 2593TIP3    H229195   1.620   3.974   4.373 -1.4065  0.1214 -0.9779
 2594TIP3   OH229196   4.624   1.700   5.971 -0.0434  0.6512 -0.2252
 2594TIP3    H129197   4.613   1.634   5.903  1.1035  1.0529 -0.8311
 2594TIP3    H229198   4.692   1.665   6.029  0.8755  1.4550 -0.7836
 2595TIP3   OH229199   1.528   0.940  17.134  0.5509 -0.0483  0.4776
 2595TIP3    H129200   1.559   0.852  17.156 -0.0919 -0.5441 -0.5091
 2595TIP3    H229201   1.508   0.936  17.040 -1.2267  0.6080  0.7862
 2596TIP3   OH229202   1.225   5.583  12.889  0.2950  0.2299  0.5939
 2596TIP3    H129203   1.143   5.553  12.851  0.5687 -2.8094  2.1107
 2596TIP3    H229204   1.228   5.543  12.976  3.7294 -0.5388  0.2800
 2597TIP3   OH229205   3.027   0.723  15.428 -0.3051  0.4882  1.1536
 2597TIP3    H129206   2.984   0.702  15.345  2.4348  0.4945 -0.3564
 2597TIP3    H229207   3.090   0.652  15.442 -1.1586  0.1045  3.6528
 2598TIP3   OH229208   0.500   3.920   4.200 -0.8532 -0.1287  0.3848
 2598TIP3    H129209   0.539   3.989   4.146  0.7385  0.1303  1.7846
 2598TIP3    H229210   0.444   3.871   4.140  0.1157  0.7221 -1.2690
 2599TIP3   OH229211   2.422   2.949   0.832 -0.1040  0.0483 -0.7463
 2599TIP3    H129212   2.430   3.017   0.764  1.0230 -0.1498 -0.8357
 2599TIP3    H229213   2.399   2.870   0.783  0.6106 -0.0729 -0.8945
 2600TIP3   OH229214   2.232   1.298   1.935  0.5801  0.2041  0.8243
 2600TIP3    H129215   2.233   1.386   1.972  1.1109  0.3050  0.5862
 2600TIP3    H229216   2.304   1.252   1.979  0.2374 -0.1477  1.0287
 2601TIP3   OH229217   5.203   1.169  10.769  0.0507 -0.1724  1.0205
 2601TIP3    H129218   5.261   1.143  10.841  0.2894  1.2188  1.3432
 2601TIP3    H229219   5.263   1.197  10.699 -0.2015 -0.8475  0.5195
 2602TIP3   OH229220   5.470   4.264  15.350  0.2463 -0.0341 -0.1531
 2602TIP3    H129221   5.492   4.270  15.257 -0.5412 -2.2085 -0.5310
 2602TIP3    H229222   5.380   4.298  15.355  0.6433  1.0410  0.0191
 2603TIP3   OH229223   5.768   2.780  11.328 -0.0795  0.2713  0.0828
 2603TIP3    H129224   5.718   2.699  11.334 -1.1604  0.9445  0.4048
 2603TIP3    H229225   5.824   2.768  11.251 -0.6790 -0.5316 -0.2476
 2604TIP3   OH229226   5.891   4.849  13.433 -0.1671 -0.0761  0.2387
 2604TIP3    H129227   5.974   4.891  13.455  0.8067 -0.7279 -1.9074
 2604TIP3    H229228   5.854   4.903  13.363 -2.4206  1.1158  2.2102
 2605TIP3   OH229229   1.204   0.427   5.942  0.2242  0.0948 -0.0354
 2605TIP3    H129230   1.138   0.435   6.011  0.9321  2.3376  0.4586
 2605TIP3    H229231   1.162   0.464   5.864  0.8537  1.4871  0.2705
 2606TIP3   OH229232   2.432   2.890   1.104 -0.0480 -0.1231  0.4865
 2606TIP3    H129233   2.431   2.973   1.150  0.7343 -0.7472  1.6950
 2606TIP3    H229234   2.431   2.913   1.011 -1.9309  1.1740  0.7582
 2607TIP3   OH229235   6.744   1.396  15.702  0.1810 -0.9072  0.3262
 2607TIP3    H129236   6.741   1.336  15.628 -0.0961 -0.4893 -0.0051
 2607TIP3    H229237   6.760   1.482  15.663 -0.8396 -0.5438  0.6613
 2608TIP3   OH229238   3.099   6.398  14.571  0.3058 -0.4723  0.4847
 2608TIP3    H129239   3.157   6.327  14.598  1.2816  0.3905  0.7670
 2608TIP3    H229240   3.013   6.372  14.602  1.1215 -0.1604  3.3695
 2609TIP3   OH229241   0.782   2.463   1.746 -0.3276  0.2328 -0.5916
 2609TIP3    H129242   0.834   2.435   1.821 -0.4020  0.3289 -0.5045
 2609TIP3    H229243   0.820   2.547   1.720  0.1023 -0.0934 -1.0510
 2610TIP3   OH229244   0.559   3.870  15.635 -0.0597 -0.0418 -0.3392
 2610TIP3    H129245   0.643   3.889  15.676  1.2367 -0.8499 -2.4667
 2610TIP3    H229246   0.569   3.781  15.600 -1.6708 -0.0074 -0.9590
 2611TIP3   OH229247   1.481   2.483   2.994 -0.0745  0.2126  0.1127
 2611TIP3    H129248   1.540   2.517   3.062 -0.4899  0.0518  0.5636
 2611TIP3    H229249   1.448   2.561   2.950  0.2308  0.3181  0.0652
 2612TIP3   OH229250   1.671   4.031   5.620 -0.4419 -0.1528  0.5837
 2612TIP3    H129251   1.704   3.980   5.694  1.4616 -2.0322 -1.4356
 2612TIP3    H229252   1.625   3.968   5.565 -1.5868  1.1519 -0.0116
 2613TIP3   OH229253   2.311   2.877  11.622  0.2594  0.3358  0.9982
 2613TIP3    H129254   2.223   2.845  11.639 -0.1636  1.0992  0.2787
 2613TIP3    H229255   2.310   2.968  11.651 -0.2582  1.4661 -2.1435
 2614TIP3   OH229256   5.514   0.451  14.486  0.1751 -0.7671 -0.4110
 2614TIP3    H129257   5.479   0.373  14.529  0.8028 -1.8231 -1.7348
 2614TIP3    H229258   5.586   0.480  14.542 -1.0083 -0.2163  0.8782
 2615TIP3   OH229259   5.495   2.365  16.155 -0.5172 -0.2691  0.6584
 2615TIP3    H129260   5.526   2.363  16.065  0.6952  1.0195  1.0075
 2615TIP3    H229261   5.574   2.357  16.208 -1.0460  0.4203  1.5919
 2616TIP3   OH229262   1.036   4.604  13.378 -0.0342 -0.0848  0.0458
 2616TIP3    H129263   1.026   4.511  13.360  2.1219 -0.6347  1.3682
 2616TIP3    H229264   0.984   4.619  13.457 -2.3019  0.4349 -1.4268
 2617TIP3   OH229265   5.661   6.307   6.537 -0.5473 -0.3839  0.1838
 2617TIP3    H129266   5.710   6.363   6.596 -2.6197  0.7289  0.9570
 2617TIP3    H229267   5.692   6.330   6.449  0.0581  0.5202  0.6258
 2618TIP3   OH229268   5.978   1.944  12.871 -0.5716 -0.0293 -0.4718
 2618TIP3    H129269   5.990   1.964  12.964 -0.3516 -0.1402 -0.4744
 2618TIP3    H229270   6.013   2.020  12.825  0.4042 -0.4666 -0.4861
 2619TIP3   OH229271   0.654   5.082  16.414  0.5973  0.6339 -0.0334
 2619TIP3    H129272   0.602   5.162  16.412  0.2701  0.4059 -0.7510
 2619TIP3    H229273   0.699   5.085  16.499 -2.3755 -0.2954  1.7163
 2620TIP3   OH229274   0.198   1.265   4.870  0.5359 -0.6726 -0.3493
 2620TIP3    H129275   0.251   1.319   4.929 -0.2719  0.7558 -0.8807
 2620TIP3    H229276   0.146   1.209   4.928  1.6048 -1.1131  0.2034
 2621TIP3   OH229277   1.638   4.596   4.535 -0.3299  0.1701  0.4512
 2621TIP3    H129278   1.634   4.505   4.507  0.9195 -0.1252  1.1769
 2621TIP3    H229279   1.547   4.626   4.530 -0.5199 -0.5747 -1.5022
 2622TIP3   OH229280   3.523   1.955  16.000 -0.2286 -0.2089 -0.1466
 2622TIP3    H129281   3.569   1.967  16.083  0.6406  1.5908 -0.8463
 2622TIP3    H229282   3.495   1.863  16.002  1.7034 -0.8358  1.1424
 2623TIP3   OH229283   4.327   1.009  11.755 -0.6588 -0.4620  0.4642
 2623TIP3    H129284   4.332   0.985  11.662 -1.1164 -0.3592  0.4139
 2623TIP3    H229285   4.397   1.074  11.766 -0.0385 -1.0952  0.3893
 2624TIP3   OH229286   2.091   0.289  16.085 -0.3702 -0.6156  0.5839
 2624TIP3    H129287   2.110   0.310  16.177 -1.6139  3.1578  0.1244
 2624TIP3    H229288   2.154   0.220  16.064  1.2100 -0.3480  3.7436
 2625TIP3   OH229289   3.894   3.614   5.967 -0.0881  0.1568  0.5722
 2625TIP3    H129290   3.940   3.548   6.020  0.8777 -0.1674 -0.6141
 2625TIP3    H229291   3.927   3.698   5.999  1.3651 -0.0684 -0.2278
 2626TIP3   OH229292   0.308   1.867  16.943 -0.2484 -0.0994 -0.0622
 2626TIP3    H129293   0.272   1.832  16.862  0.0992 -0.1166 -0.2077
 2626TIP3    H229294   0.272   1.956  16.948  0.4390  0.2263 -0.6941
 2627TIP3   OH229295   2.254   2.965   5.809  0.4571  0.2040  0.4213
 2627TIP3    H129296   2.319   2.999   5.747  0.9705 -2.1425 -0.4491
 2627TIP3    H229297   2.186   2.927   5.753 -0.0794 -0.1785  1.3139
 2628TIP3   OH229298   1.408   1.820   2.013 -0.1189 -0.1814 -0.3317
 2628TIP3    H129299   1.317   1.808   2.039 -0.5549  2.1876 -0.5283
 2628TIP3    H229300   1.443   1.884   2.076  0.7759  0.5359 -1.5122
 2629TIP3   OH229301   2.069   6.490   0.708 -0.0311  0.0395 -0.3376
 2629TIP3    H129302   2.093   6.509   0.799  2.1167 -0.6878 -0.6961
 2629TIP3    H229303   2.097   6.567   0.659 -1.9942  0.8172 -0.3264
 2630TIP3   OH229304   0.179   1.875  14.812 -0.1312 -0.3044 -0.5301
 2630TIP3    H129305   0.156   1.785  14.835  0.7330 -0.3099  0.3899
 2630TIP3    H229306   0.173   1.923  14.895  2.2888 -0.1332 -0.3851
 2631TIP3   OH229307   4.925   6.216  15.187 -0.3012  0.1856 -0.2355
 2631TIP3    H129308   4.927   6.194  15.280  0.5209 -0.4500 -0.4039
 2631TIP3    H229309   4.843   6.266  15.177 -0.5401  0.0212  0.7644
 2632TIP3   OH229310   0.490   4.368  13.882 -0.5277  0.3690  0.4243
 2632TIP3    H129311   0.535   4.368  13.797  0.9516  4.0809  1.0396
 2632TIP3    H229312   0.398   4.379  13.860 -0.2759  0.3329 -0.7153
 2633TIP3   OH229313   1.692   6.270   1.505  0.1265  0.5920 -0.4668
 2633TIP3    H129314   1.662   6.360   1.494 -0.1199  0.3752 -1.6672
 2633TIP3    H229315   1.635   6.234   1.573 -0.5662  0.9841 -0.8309
 2634TIP3   OH229316   0.992   5.089  13.916  0.2655 -0.0068 -0.4228
 2634TIP3    H129317   1.060   5.074  13.983 -0.1301  0.3658  0.0747
 2634TIP3    H229318   1.001   5.182  13.894 -0.9923  0.4084  0.6890
 2635TIP3   OH229319   0.437   0.911  13.264  0.9280 -0.2030 -0.2438
 2635TIP3    H129320   0.401   0.939  13.348  0.9358 -0.2894 -0.2119
 2635TIP3    H229321   0.524   0.950  13.261  0.9794 -0.3104 -0.1534
 2636TIP3   OH229322   2.230   4.160   1.014 -0.1171 -0.1670 -0.6728
 2636TIP3    H129323   2.291   4.207   0.958 -1.3929 -1.0771 -2.9418
 2636TIP3    H229324   2.188   4.228   1.067  0.0099  0.9285 -1.9376
 2637TIP3   OH229325   1.165   5.920   0.158  0.0141 -0.1645  0.2406
 2637TIP3    H129326   1.227   5.923   0.085  1.7204  0.1321  1.6408
 2637TIP3    H229327   1.122   6.006   0.156 -2.5754 -1.3402 -2.4755
 2638TIP3   OH229328   1.937   4.546   6.091 -0.0426 -0.5176 -0.0481
 2638TIP3    H129329   1.971   4.559   6.179  0.8164 -0.7052 -0.3494
 2638TIP3    H229330   1.912   4.454   6.087 -0.3771 -0.4351  0.0964
 2639TIP3   OH229331   1.791   5.006   0.466 -0.1071  0.4443  0.0253
 2639TIP3    H129332   1.787   5.097   0.495  0.6242  0.4833  0.0120
 2639TIP3    H229333   1.857   5.006   0.397 -0.2211 -0.0691 -0.0845
 2640TIP3   OH229334   0.141   6.429  11.089 -0.4096 -0.3301 -0.4635
 2640TIP3    H129335   0.081   6.410  11.016 -0.2828  0.9747 -0.9331
 2640TIP3    H229336   0.191   6.505  11.060  1.1448 -1.0912  0.1366
 2641TIP3   OH229337   1.122   6.540   4.433  0.1548 -0.3522  0.4340
 2641TIP3    H129338   1.099   6.539   4.340 -0.4559  0.5412  0.5627
 2641TIP3    H229339   1.040   6.521   4.478  0.4334 -0.7144  0.7981
 2642TIP3   OH229340   1.877   2.480  15.582  0.3432  0.0323  0.0679
 2642TIP3    H129341   1.960   2.494  15.536  0.5080 -0.4543  0.2131
 2642TIP3    H229342   1.852   2.567  15.613  1.9709 -0.1156  2.0147
 2643TIP3   OH229343   0.082   6.029   3.163  0.0248 -0.4371  0.6883
 2643TIP3    H129344   0.001   5.983   3.184  0.1877 -0.3789  1.5053
 2643TIP3    H229345   0.056   6.121   3.152 -0.3248 -0.7275 -1.1047
 2644TIP3   OH229346   3.501   4.230   1.550  0.3513  0.5768  0.3428
 2644TIP3    H129347   3.552   4.310   1.554 -0.9467  1.5032 -0.6508
 2644TIP3    H229348   3.447   4.231   1.630  1.9184 -0.4884  1.4803
 2645TIP3   OH229349   3.096   2.979   1.284  0.5907 -0.1483  0.1430
 2645TIP3    H129350   3.107   3.059   1.233 -0.1649  1.2124  2.0346
 2645TIP3    H229351   3.008   2.949   1.264 -0.6138  1.6771  2.2791
 2646TIP3   OH229352   0.707   3.093   1.832 -0.0222  0.1653 -0.2668
 2646TIP3    H129353   0.631   3.036   1.821 -2.1113  3.1513 -3.4286
 2646TIP3    H229354   0.702   3.124   1.922 -1.4977 -1.0694  0.1078
 2647TIP3   OH229355   4.060   3.114   3.408 -0.1455  0.3932  0.1464
 2647TIP3    H129356   4.133   3.063   3.374 -0.7611 -0.3638 -0.0868
 2647TIP3    H229357   4.099   3.194   3.441  0.8676 -0.2961  0.6578
 2648TIP3   OH229358   4.011   1.992  11.644 -0.9043  0.1367 -0.3498
 2648TIP3    H129359   4.034   2.084  11.647 -0.6884  0.0691  1.3848
 2648TIP3    H229360   3.958   1.982  11.565  1.1750  1.2043 -1.9747
 2649TIP3   OH229361   3.242   6.408   4.872  0.8541  0.3411  0.4440
 2649TIP3    H129362   3.269   6.425   4.781  0.1630  1.5895  0.4578
 2649TIP3    H229363   3.272   6.485   4.920  1.5487 -0.4844  1.3701
 2650TIP3   OH229364   6.164   0.053   0.200 -0.2885 -0.1724  0.4937
 2650TIP3    H129365   6.077   0.018   0.179 -1.2495  2.5622 -0.5220
 2650TIP3    H229366   6.223   0.008   0.140 -1.4848 -0.0158 -0.8625
 2651TIP3   OH229367   0.161   2.931  15.594 -0.0632 -0.4172 -0.4050
 2651TIP3    H129368   0.132   2.855  15.544 -0.4441  0.0512 -0.9138
 2651TIP3    H229369   0.167   2.899  15.684 -0.0029 -1.1030 -0.6428
 2652TIP3   OH229370   3.906   6.278  13.448 -0.2992  0.7197  0.0787
 2652TIP3    H129371   3.862   6.213  13.392  0.9002  0.7764 -0.9743
 2652TIP3    H229372   3.893   6.246  13.537  1.7738 -2.0039 -0.4644
 2653TIP3   OH229373   3.059   0.104  15.023  0.3056  0.5255 -0.0963
 2653TIP3    H129374   2.983   0.047  15.020  0.3492  0.5034 -1.2007
 2653TIP3    H229375   3.134   0.045  15.015  0.3400  0.7230 -1.6236
 2654TIP3   OH229376   2.651   4.621   2.956 -0.3075 -0.2041 -0.3402
 2654TIP3    H129377   2.681   4.554   2.894 -0.7658  0.0627 -0.8572
 2654TIP3    H229378   2.727   4.677   2.969  0.4250 -1.4056  0.9263
 2655TIP3   OH229379   4.299   0.966   2.276  0.0154 -0.5849 -0.1753
 2655TIP3    H129380   4.380   0.916   2.283  0.3316 -0.3509 -1.8162
 2655TIP3    H229381   4.325   1.049   2.237 -0.6661  0.5053  1.5594
 2656TIP3   OH229382   1.918   1.991   5.830  0.1528  0.2234 -0.0873
 2656TIP3    H129383   1.899   1.942   5.910  0.7832  1.1640  0.6570
 2656TIP3    H229384   2.009   1.968   5.809  1.0723  2.3819  1.2736
 2657TIP3   OH229385   1.167   6.280  11.649  0.4400  0.0417  0.0409
 2657TIP3    H129386   1.148   6.335  11.726 -2.5655 -0.7441  0.0206
 2657TIP3    H229387   1.111   6.315  11.580 -0.3845 -2.0119 -0.4182
 2658TIP3   OH229388   2.321   1.443  15.711  0.5629 -0.0181 -0.5155
 2658TIP3    H129389   2.280   1.372  15.662 -1.8495  0.3460  0.8489
 2658TIP3    H229390   2.272   1.521  15.688  2.2506  0.9904 -0.8681
 2659TIP3   OH229391   5.446   2.874   2.824 -0.5302 -0.1980  0.3572
 2659TIP3    H129392   5.440   2.825   2.743 -1.6216  0.4682 -0.0022
 2659TIP3    H229393   5.437   2.809   2.893 -0.7968 -0.6339 -0.0858
 2660TIP3   OH229394   3.181   0.215   0.370 -0.5082 -0.0177 -0.4196
 2660TIP3    H129395   3.243   0.143   0.384 -0.7601  0.0909  1.4145
 2660TIP3    H229396   3.157   0.207   0.277  3.0138  0.5708 -1.5446
 2661TIP3   OH229397   0.029   0.833   4.432  0.3038  0.3598  0.3307
 2661TIP3    H129398   0.079   0.886   4.370  0.0779 -0.6351 -0.7453
 2661TIP3    H229399  -0.055   0.817   4.388 -0.8544  1.6764  1.9391
 2662TIP3   OH229400   1.072   4.674  14.927 -0.1784 -0.0169 -0.8809
 2662TIP3    H129401   0.985   4.635  14.940 -0.1814  0.4444  0.7790
 2662TIP3    H229402   1.127   4.629  14.991  0.9281 -0.5902 -2.2007
 2663TIP3   OH229403   4.855   2.759  14.924  0.2286 -0.0238  0.0581
 2663TIP3    H129404   4.809   2.830  14.969  0.5711 -0.5354  1.2664
 2663TIP3    H229405   4.820   2.679  14.963  1.5084 -0.4487  0.3892
 2664TIP3   OH229406   5.334   2.648   3.516 -0.3253 -0.0818 -0.1173
 2664TIP3    H129407   5.384   2.656   3.597  0.1924 -1.9618 -0.1887
 2664TIP3    H229408   5.400   2.649   3.447 -0.3173 -2.3275 -0.2305
 2665TIP3   OH229409   4.400   1.997  13.586  0.0411  0.2071  0.2734
 2665TIP3    H129410   4.363   1.948  13.514 -0.0573  2.3738 -1.2526
 2665TIP3    H229411   4.325   2.016  13.643 -0.3779  0.6459 -0.4070
 2666TIP3   OH229412   4.686   5.671  16.750 -0.2608 -0.0681  0.5291
 2666TIP3    H129413   4.704   5.591  16.801 -0.4917  0.6719  1.8124
 2666TIP3    H229414   4.737   5.739  16.793  0.0755  0.4632 -0.6658
 2667TIP3   OH229415   4.856   5.026  11.571  0.0401  0.6587  0.4208
 2667TIP3    H129416   4.899   5.111  11.566 -1.1354  1.3363  1.1517
 2667TIP3    H229417   4.776   5.043  11.622 -1.4915 -0.3663 -1.5001
 2668TIP3   OH229418   6.097   5.850  14.695 -0.1395 -0.1164 -0.5128
 2668TIP3    H129419   6.134   5.772  14.654 -0.5173 -0.6053  0.0493
 2668TIP3    H229420   6.132   5.923  14.645  1.4897 -0.5605 -0.0920
 2669TIP3   OH229421   6.011   1.090   1.751  0.1360 -0.4676  0.0480
 2669TIP3    H129422   6.016   1.185   1.762 -0.4670 -0.6489  2.3613
 2669TIP3    H229423   5.987   1.057   1.837  0.6303 -2.7697 -0.6256
 2670TIP3   OH229424   4.831   2.987   2.119 -0.1690  0.5028 -0.2086
 2670TIP3    H129425   4.816   2.900   2.083  1.3434  0.4925 -0.8970
 2670TIP3    H229426   4.795   2.984   2.208 -2.8994  0.1517 -1.2398
 2671TIP3   OH229427   5.444   3.826  15.729  0.1643 -0.8417  0.1092
 2671TIP3    H129428   5.401   3.911  15.720 -1.6663 -1.6040  1.0504
 2671TIP3    H229429   5.507   3.823  15.657  0.8583  1.6135  0.5264
 2672TIP3   OH229430   0.587   3.607   3.007 -0.4726 -0.4600  0.0532
 2672TIP3    H129431   0.659   3.586   2.947  0.2541 -1.1809  1.1251
 2672TIP3    H229432   0.577   3.528   3.060 -0.5359  0.4457  1.4212
 2673TIP3   OH229433   5.535   0.691   5.604  0.2646 -0.3445  0.1482
 2673TIP3    H129434   5.440   0.687   5.593  0.1282 -0.5221  1.2803
 2673TIP3    H229435   5.548   0.731   5.690  1.2402  0.5097 -0.3661
 2674TIP3   OH229436   2.407   1.499  17.057 -0.0256  0.4465  0.5753
 2674TIP3    H129437   2.411   1.406  17.033 -0.4788  0.2345  1.2833
 2674TIP3    H229438   2.411   1.499  17.152  0.1732  1.1723  0.5718
 2675TIP3   OH229439   5.925   1.632  16.814 -0.0195 -0.2259 -0.3475
 2675TIP3    H129440   5.917   1.717  16.770 -0.6979  0.6767  1.4576
 2675TIP3    H229441   5.852   1.581  16.779 -1.0889  0.7846  0.3597
 2676TIP3   OH229442   6.561   3.153  15.655  0.1815 -0.1485 -0.2549
 2676TIP3    H129443   6.600   3.123  15.737 -1.8043 -1.9370  0.1343
 2676TIP3    H229444   6.635   3.182  15.602  1.9475 -2.5754  0.7155
 2677TIP3   OH229445   2.731   5.123  10.995 -0.1554  0.2762  0.1760
 2677TIP3    H129446   2.735   5.087  10.907  1.4572 -1.4754  0.8843
 2677TIP3    H229447   2.640   5.148  11.007 -0.4318  0.4272 -1.9123
 2678TIP3   OH229448   1.318   3.949   5.761  0.5525 -0.5439  0.1288
 2678TIP3    H129449   1.370   3.869   5.754 -1.0697 -1.6074 -0.3076
 2678TIP3    H229450   1.279   3.960   5.674 -0.4100 -0.1064  0.5997
 2679TIP3   OH229451   2.521   1.601  11.359 -0.9918  0.1732  0.2901
 2679TIP3    H129452   2.467   1.546  11.415 -1.0680 -0.7513 -0.6596
 2679TIP3    H229453   2.526   1.553  11.276  0.6174  0.6389  0.0945
 2680TIP3   OH229454   6.766   5.902  11.277 -0.3512  0.1930  0.3341
 2680TIP3    H129455   6.838   5.962  11.258  1.1463 -0.9238  2.1439
 2680TIP3    H229456   6.721   5.941  11.352  0.4968 -0.7777  1.3805
 2681TIP3   OH229457   4.873   4.684   3.492 -0.4004 -0.4630 -0.2108
 2681TIP3    H129458   4.903   4.756   3.437 -1.1001  0.6712  0.8301
 2681TIP3    H229459   4.832   4.727   3.567  2.2912 -1.8519  2.2702
 2682TIP3   OH229460   5.128   4.044   0.542  0.1591  0.0238 -0.1116
 2682TIP3    H129461   5.208   4.052   0.491 -0.9162 -0.1639 -1.9216
 2682TIP3    H229462   5.148   3.978   0.608  1.1726 -0.8415 -1.2358
 2683TIP3   OH229463   3.985   0.261  12.903  0.0729  0.1375 -0.3559
 2683TIP3    H129464   3.982   0.335  12.842 -0.4747  0.3256 -0.1129
 2683TIP3    H229465   3.918   0.282  12.968 -2.7092 -2.2457 -2.1964
 2684TIP3   OH229466   1.259   4.193   2.052  0.4867  0.4255  0.1698
 2684TIP3    H129467   1.251   4.288   2.063  0.5509  0.5002 -0.3910
 2684TIP3    H229468   1.172   4.159   2.073  0.2455  0.6853 -0.3922
 2685TIP3   OH229469   5.708   5.462   2.415  0.2363  0.0987 -0.0343
 2685TIP3    H129470   5.690   5.537   2.471 -2.8486  1.8581 -3.0201
 2685TIP3    H229471   5.803   5.467   2.399  0.7918  0.9522  2.8534
 2686TIP3   OH229472   4.192   0.060   5.106  0.2977  0.0540 -0.6825
 2686TIP3    H129473   4.286   0.077   5.102  0.6837 -1.7722 -0.5393
 2686TIP3    H229474   4.173   0.055   5.200  0.0708  0.3383 -0.7123
 2687TIP3   OH229475   1.602   0.179   2.110 -0.4809 -0.1981  0.4583
 2687TIP3    H129476   1.675   0.235   2.084  0.7012 -1.6088  0.6236
 2687TIP3    H229477   1.627   0.144   2.196  0.2914 -3.2960 -0.8804
 2688TIP3   OH229478   1.188   1.476   2.848 -0.3962 -0.7141 -1.1402
 2688TIP3    H129479   1.248   1.528   2.794 -1.8497 -1.5074 -3.7486
 2688TIP3    H229480   1.183   1.392   2.802 -2.4505 -1.1201 -0.2524
 2689TIP3   OH229481   0.559   1.793   0.356  0.0046 -0.0524  0.0137
 2689TIP3    H129482   0.619   1.760   0.423 -2.7856 -1.5113  2.0133
 2689TIP3    H229483   0.575   1.887   0.353  2.1533 -0.3578  0.6391
 2690TIP3   OH229484   2.852   6.222  13.362  0.0690 -0.1886  0.1192
 2690TIP3    H129485   2.902   6.142  13.348  1.4902  0.9798 -1.9937
 2690TIP3    H229486   2.785   6.221  13.294 -1.4062 -0.6343  1.5172
 2691TIP3   OH229487   5.844   6.178   0.842  0.2025 -0.2146 -0.4460
 2691TIP3    H129488   5.842   6.117   0.769  1.8636 -0.0849 -0.6501
 2691TIP3    H229489   5.796   6.255   0.812  2.1390  0.4625 -2.0655
 2692TIP3   OH229490   3.094   1.493   5.050  0.1534  0.1399  0.3895
 2692TIP3    H129491   3.139   1.426   4.999 -0.6855  0.4742 -0.8465
 2692TIP3    H229492   3.022   1.447   5.093  0.1613  0.0664  0.3234
 2693TIP3   OH229493   1.829   6.257  15.966  0.2829 -0.0338  0.1590
 2693TIP3    H129494   1.879   6.214  15.897 -0.3430 -3.2408  1.5431
 2693TIP3    H229495   1.896   6.291  16.026  0.8060  0.1432 -0.5097
 2694TIP3   OH229496   2.405   0.508   3.910 -0.0299 -0.3369 -0.4882
 2694TIP3    H129497   2.378   0.427   3.955 -2.8285 -0.2899 -1.9008
 2694TIP3    H229498   2.403   0.485   3.817  2.9806  0.3554 -0.8416
 2695TIP3   OH229499   5.467   6.113   6.487 -0.6630 -0.4538  0.4172
 2695TIP3    H129500   5.515   6.034   6.465 -0.0527  0.1344 -0.4097
 2695TIP3    H229501   5.533   6.172   6.523 -1.1755 -0.4275  1.3613
 2696TIP3   OH229502   2.535   3.378   5.630 -0.0900  0.4615  0.0513
 2696TIP3    H129503   2.574   3.342   5.551  0.6266  4.2144 -1.5277
 2696TIP3    H229504   2.575   3.328   5.701  3.4190  0.3784 -1.7531
 2697TIP3   OH229505   2.573   1.479   3.675 -0.0887 -0.5295  0.0829
 2697TIP3    H129506   2.606   1.502   3.588  1.3386 -1.2034  0.4248
 2697TIP3    H229507   2.479   1.463   3.661 -0.1742  0.7639 -1.0425
 2698TIP3   OH229508   6.221   0.514  14.197 -0.5525 -0.2522 -0.2666
 2698TIP3    H129509   6.172   0.455  14.140 -0.5773 -0.5540  0.0640
 2698TIP3    H229510   6.310   0.514  14.162 -0.5515 -0.4956 -0.2620
 2699TIP3   OH229511   4.561   3.430  15.684  0.1618  0.2266 -0.1289
 2699TIP3    H129512   4.574   3.518  15.650 -1.1711  0.8798  0.9414
 2699TIP3    H229513   4.511   3.443  15.765 -1.3130 -1.5823 -0.6719
 2700TIP3   OH229514   3.070   5.397   0.503 -0.2028  0.4799 -0.3123
 2700TIP3    H129515   3.159   5.362   0.502  0.0861  1.2118 -0.6296
 2700TIP3    H229516   3.045   5.403   0.411  0.9209  3.9450 -0.5335
 2701TIP3   OH229517   3.119   6.375   4.584 -0.3701 -0.3246 -0.2204
 2701TIP3    H129518   3.089   6.286   4.564  1.6055 -0.9978 -0.4020
 2701TIP3    H229519   3.144   6.412   4.499  1.8862 -0.8293  0.1506
 2702TIP3   OH229520   5.001   2.372   2.172  0.4108  0.1259  0.0449
 2702TIP3    H129521   5.026   2.284   2.200 -1.3645 -0.1049  1.0406
 2702TIP3    H229522   4.994   2.422   2.253 -1.3882  0.3939 -0.2373
 2703TIP3   OH229523   5.011   3.974  15.763  0.6456  0.2394  0.3988
 2703TIP3    H129524   4.980   3.888  15.736 -0.9973  0.5942  1.0442
 2703TIP3    H229525   4.936   4.032  15.749  0.9061  1.0942  2.2894
 2704TIP3   OH229526   1.673   2.363  16.923  0.6630 -0.1853  0.2075
 2704TIP3    H129527   1.621   2.443  16.927 -0.2103 -0.6983 -0.4045
 2704TIP3    H229528   1.657   2.320  17.007  1.6161  0.5604  0.7813
 2705TIP3   OH229529   5.593   0.574  11.901  0.3158  0.4182 -0.1643
 2705TIP3    H129530   5.524   0.558  11.965  2.3091  0.4602  2.1506
 2705TIP3    H229531   5.651   0.499  11.910  0.5815  0.3685 -2.0697
 2706TIP3   OH229532   0.847   3.512  14.296 -0.7429  1.1148  0.0773
 2706TIP3    H129533   0.803   3.552  14.371 -0.1422  0.6127  0.7029
 2706TIP3    H229534   0.878   3.586  14.244 -1.8429  1.4726 -0.0924
 2707TIP3   OH229535   6.385   4.385   4.426  0.6280  0.1731  0.3316
 2707TIP3    H129536   6.415   4.338   4.348  0.7372  0.3239  0.2829
 2707TIP3    H229537   6.348   4.466   4.392  1.0122  0.4045  0.4670
 2708TIP3   OH229538   5.449   3.928  11.998 -0.5804  0.3318  0.1219
 2708TIP3    H129539   5.482   3.838  11.998 -2.8068 -0.5602  0.8036
 2708TIP3    H229540   5.425   3.945  12.089  0.6482  1.9843  0.1757
 2709TIP3   OH229541   4.237   1.318   1.693 -0.4675 -0.7525  0.4203
 2709TIP3    H129542   4.236   1.332   1.598 -3.1381 -2.5269  0.0732
 2709TIP3    H229543   4.283   1.395   1.728  0.6647 -0.0875 -2.2764
 2710TIP3   OH229544   6.194   3.704  11.150 -0.8293  0.7293  0.0773
 2710TIP3    H129545   6.267   3.743  11.102 -0.1851  0.8078  1.0772
 2710TIP3    H229546   6.160   3.637  11.091  1.6534 -1.0436  0.4916
 2711TIP3   OH229547   4.196   2.914  14.916  0.3915  0.2799  0.4832
 2711TIP3    H129548   4.174   2.852  14.986  0.9720 -1.1126 -0.5275
 2711TIP3    H229549   4.291   2.922  14.919  0.4030  0.3635 -0.0165
 2712TIP3   OH229550   5.261   3.879   5.468 -0.0219  0.6402 -0.1511
 2712TIP3    H129551   5.267   3.793   5.428  0.3054  0.2996  0.6138
 2712TIP3    H229552   5.351   3.902   5.489 -0.0299  1.4694 -0.9452
 2713TIP3   OH229553   6.245   5.430  15.404 -0.0768 -0.3789 -0.3504
 2713TIP3    H129554   6.271   5.493  15.337 -1.8953 -0.3968 -1.1155
 2713TIP3    H229555   6.307   5.358  15.395  0.3189  0.0710 -1.3231
 2714TIP3   OH229556   2.877   4.719  15.941 -0.3174  0.1454  0.9076
 2714TIP3    H129557   2.959   4.765  15.957 -0.0391 -0.3053  0.7829
 2714TIP3    H229558   2.823   4.740  16.017 -0.2478  0.7910  0.7827
 2715TIP3   OH229559   6.701   4.311   2.034 -0.8410  0.0637  0.3886
 2715TIP3    H129560   6.789   4.288   2.004 -0.8262 -1.5143  1.5381
 2715TIP3    H229561   6.706   4.306   2.129 -2.3657 -0.8934  0.4490
 2716TIP3   OH229562   2.496   4.116   4.609  0.0773  0.1945  0.6991
 2716TIP3    H129563   2.460   4.182   4.668 -0.4766  1.2617 -0.7660
 2716TIP3    H229564   2.543   4.166   4.543 -1.2389 -0.7493 -1.0600
 2717TIP3   OH229565   1.183   3.967  13.116 -0.1016 -0.3239 -0.0878
 2717TIP3    H129566   1.253   3.904  13.133  0.5055  0.1483 -0.7769
 2717TIP3    H229567   1.145   3.940  13.033 -2.1395 -1.7980  1.2237
 2718TIP3   OH229568   3.613   3.066   2.356 -0.0812 -0.4689 -0.0548
 2718TIP3    H129569   3.542   3.130   2.361 -0.2671 -0.5844 -1.1018
 2718TIP3    H229570   3.642   3.056   2.447 -1.2103 -0.1988  0.3556
 2719TIP3   OH229571   6.124   4.309  12.986  0.6190  0.0935 -0.3980
 2719TIP3    H129572   6.094   4.258  12.911  0.7792 -0.8191  0.1409
 2719TIP3    H229573   6.179   4.249  13.035 -0.0024  0.4714  0.8049
 2720TIP3   OH229574   1.271   0.435  12.199 -0.5117  0.4246 -0.1495
 2720TIP3    H129575   1.261   0.514  12.252 -1.1367  1.6755 -2.0338
 2720TIP3    H229576   1.358   0.444  12.160 -1.2136  1.0377 -1.6374
 2721TIP3   OH229577   4.679   2.581  13.503  0.7220 -0.6352 -0.9244
 2721TIP3    H129578   4.624   2.509  13.534 -1.3187  1.2735  0.2512
 2721TIP3    H229579   4.638   2.609  13.422  1.8034 -1.0570 -1.6426
 2722TIP3   OH229580   0.749   1.519  11.659  0.2635 -0.7459  0.1554
 2722TIP3    H129581   0.803   1.452  11.619  0.6865  0.0565 -0.6569
 2722TIP3    H229582   0.811   1.579  11.701  0.0099 -0.0305 -0.4503
 2723TIP3   OH229583   6.675   5.569   3.067  0.2527  0.4500 -0.2963
 2723TIP3    H129584   6.654   5.586   3.159  0.2428  0.9123 -0.3803
 2723TIP3    H229585   6.617   5.628   3.019  1.5707  1.5733 -0.5386
 2724TIP3   OH229586   2.866   2.424   0.186  0.1644  0.3232  0.1342
 2724TIP3    H129587   2.848   2.390   0.274 -0.4257 -0.5715 -0.3097
 2724TIP3    H229588   2.842   2.352   0.127  1.6838  0.4603 -0.7149
 2725TIP3   OH229589   2.406   6.705   1.717 -0.1351 -0.5134  0.8644
 2725TIP3    H129590   2.437   6.736   1.632  0.8515 -0.0663  1.3747
 2725TIP3    H229591   2.485   6.686   1.767 -0.6633  0.1039  1.9972
 2726TIP3   OH229592   1.210   0.099  14.218  0.1814  0.4169 -0.1631
 2726TIP3    H129593   1.153   0.098  14.294 -1.8827 -0.7555 -1.6168
 2726TIP3    H229594   1.287   0.150  14.245 -0.6189  0.3021  2.5326
 2727TIP3   OH229595   2.896   3.551  15.170  0.5242  0.0432 -0.6702
 2727TIP3    H129596   2.809   3.548  15.210  0.7504 -1.0624 -0.2185
 2727TIP3    H229597   2.925   3.460  15.170  1.4726  0.3331 -1.2949
 2728TIP3   OH229598   1.005   3.169  16.501  0.6115  0.7231 -0.7018
 2728TIP3    H129599   1.087   3.218  16.493  1.4252 -0.2191  1.3072
 2728TIP3    H229600   0.944   3.232  16.541  0.5232  1.2012 -1.5486
 2729TIP3   OH229601   2.155   0.191   3.498 -0.0673 -0.3754 -0.7732
 2729TIP3    H129602   2.145   0.188   3.593 -1.5252 -5.3889 -0.7756
 2729TIP3    H229603   2.239   0.146   3.481  0.0398  0.1943 -1.8748
 2730TIP3   OH229604   6.238   3.824  13.047 -0.0242  0.3687  0.0748
 2730TIP3    H129605   6.301   3.892  13.021  0.3587  0.7246  1.7929
 2730TIP3    H229606   6.159   3.872  13.069 -0.2016  0.1178 -0.0107
 2731TIP3   OH229607   1.677   2.227   3.901 -0.2149  0.0456 -0.1770
 2731TIP3    H129608   1.614   2.194   3.838  0.7965 -4.1877  0.7086
 2731TIP3    H229609   1.750   2.259   3.848 -0.9116 -0.0033 -1.1771
 2732TIP3   OH229610   4.237   4.847  12.886  0.5877 -0.2453 -0.1655
 2732TIP3    H129611   4.322   4.832  12.927  0.8510  2.3536  0.3941
 2732TIP3    H229612   4.175   4.799  12.940  1.4049 -0.0433  0.9781
 2733TIP3   OH229613   3.419   5.266  12.397  0.3067 -0.3695 -0.1412
 2733TIP3    H129614   3.361   5.233  12.328 -1.0743  0.3330  0.6415
 2733TIP3    H229615   3.449   5.351  12.364  0.0198 -0.2431 -0.0753
 2734TIP3   OH229616   5.737   4.371  14.514 -0.4348  0.0329  0.1607
 2734TIP3    H129617   5.800   4.433  14.478  0.5063 -0.7026  0.4974
 2734TIP3    H229618   5.651   4.403  14.484  0.2226 -0.0731 -1.9859
 2735TIP3   OH229619   4.888   1.087   2.673 -0.0109 -0.2206  0.3151
 2735TIP3    H129620   4.860   1.069   2.763  1.0696  1.2933  0.9899
 2735TIP3    H229621   4.978   1.053   2.669 -0.2988 -0.9317 -0.4382
 2736TIP3   OH229622   5.970   6.633  12.980 -0.0549 -0.3620 -0.0083
 2736TIP3    H129623   6.048   6.581  12.959  0.3274  0.3366 -0.3896
 2736TIP3    H229624   5.903   6.602  12.919 -0.2803 -1.4097  0.7512
 2737TIP3   OH229625   2.886   4.344   4.941 -0.2740  0.1364 -0.4851
 2737TIP3    H129626   2.856   4.353   5.031  1.7833 -2.3031  0.5881
 2737TIP3    H229627   2.807   4.353   4.888 -1.6024  1.3042  1.5480
 2738TIP3   OH229628   4.341   5.164  11.732  0.5927  0.1465  0.3892
 2738TIP3    H129629   4.355   5.154  11.826 -0.2715 -1.6113  0.3797
 2738TIP3    H229630   4.257   5.120  11.716 -0.1694  1.9652 -0.9425
 2739TIP3   OH229631   5.364   0.626  13.281  0.1102 -0.4509  0.4642
 2739TIP3    H129632   5.372   0.531  13.288 -1.1905 -0.6564 -0.3215
 2739TIP3    H229633   5.444   0.661  13.321  1.0803 -1.9006 -0.1345
 2740TIP3   OH229634   3.479   4.440   3.916  0.7775 -0.6908 -0.0721
 2740TIP3    H129635   3.485   4.370   3.980 -2.7723 -1.0168  0.0981
 2740TIP3    H229636   3.386   4.443   3.891  1.0836  2.7200 -1.4701
 2741TIP3   OH229637   4.249   2.843  13.536 -0.3143 -0.6932  0.5963
 2741TIP3    H129638   4.262   2.935  13.561 -1.4386 -0.0839 -0.9052
 2741TIP3    H229639   4.154   2.831  13.539 -0.1056 -2.4436  2.7653
 2742TIP3   OH229640   5.253   3.644  12.353 -0.5302  0.7887  0.3748
 2742TIP3    H129641   5.211   3.563  12.324  0.0438  0.8991 -0.8282
 2742TIP3    H229642   5.344   3.620  12.371  0.0623  1.4072 -1.4747
 2743TIP3   OH229643   2.276   3.271  12.198  0.0978 -0.4839 -0.1664
 2743TIP3    H129644   2.240   3.183  12.191  0.1225 -0.6006  0.9541
 2743TIP3    H229645   2.348   3.263  12.260 -0.1051  0.3845  0.2029
 2744TIP3   OH229646   6.010   2.932  16.914 -0.2454  0.4287  0.2596
 2744TIP3    H129647   6.067   3.005  16.888 -1.2486  1.3361  0.5524
 2744TIP3    H229648   5.934   2.939  16.856 -0.4995 -0.1943  0.5042
 2745TIP3   OH229649   3.279   5.090  15.772 -0.4663 -0.2560  0.3954
 2745TIP3    H129650   3.210   5.033  15.806 -0.9728  0.0556 -0.1010
 2745TIP3    H229651   3.355   5.032  15.764 -1.2506 -1.1571 -1.1099
 2746TIP3   OH229652   3.944   6.186  12.113  0.2393 -1.2540  1.0196
 2746TIP3    H129653   3.988   6.187  12.028  0.3300 -0.1911  1.0579
 2746TIP3    H229654   4.013   6.204  12.176 -0.2111  0.4295  1.0812
 2747TIP3   OH229655   1.793   4.892   2.106 -0.1936  0.1128  0.2521
 2747TIP3    H129656   1.879   4.850   2.114 -0.4307 -0.2475  0.9905
 2747TIP3    H229657   1.735   4.840   2.161 -0.9693  0.1634 -0.4910
 2748TIP3   OH229658   3.173   2.451   3.398  0.2614  0.5455  0.0108
 2748TIP3    H129659   3.259   2.493   3.406  0.0310  0.9791  0.2171
 2748TIP3    H229660   3.175   2.381   3.463  0.1265  1.1280  0.6515
 2749TIP3   OH229661   3.496   4.728   0.245 -0.3868  0.3931 -0.3811
 2749TIP3    H129662   3.497   4.817   0.209 -0.9618 -0.1009 -1.7122
 2749TIP3    H229663   3.474   4.673   0.170  0.5326 -0.9416  0.2914
 2750TIP3   OH229664   4.945   2.584  15.688  0.2869  0.1547  0.5495
 2750TIP3    H129665   5.036   2.565  15.712 -0.3037 -0.7248  2.2571
 2750TIP3    H229666   4.894   2.551  15.762 -1.6532 -1.9860 -1.5797
 2751TIP3   OH229667   2.143   2.835   3.501  0.2376  0.1596  0.3845
 2751TIP3    H129668   2.201   2.888   3.446 -0.2084 -0.4699 -0.7190
 2751TIP3    H229669   2.188   2.830   3.586  1.5638  0.0813 -0.3019
 2752TIP3   OH229670   0.362   2.749  12.635 -0.1681  0.0551 -0.2689
 2752TIP3    H129671   0.285   2.693  12.623  0.4906 -0.8826 -0.2537
 2752TIP3    H229672   0.435   2.688  12.644  0.7917  0.9338 -1.6430
 2753TIP3   OH229673   0.764   2.237   6.549 -0.2164  0.4937  0.1675
 2753TIP3    H129674   0.791   2.314   6.598  2.1776 -0.2964  0.2585
 2753TIP3    H229675   0.797   2.252   6.460 -1.3571  0.3597 -0.2955
 2754TIP3   OH229676   1.001   6.589   4.817 -0.6564  0.2163  0.4249
 2754TIP3    H129677   0.938   6.593   4.889 -1.9471  0.4456 -0.6666
 2754TIP3    H229678   1.001   6.497   4.791 -1.2857  0.3751 -0.1793
 2755TIP3   OH229679   5.755   6.193  15.795  0.3678 -0.0618  0.0868
 2755TIP3    H129680   5.721   6.260  15.855 -1.7675 -1.2766  0.3561
 2755TIP3    H229681   5.817   6.143  15.848 -1.5195 -1.1410  1.4219
 2756TIP3   OH229682   2.483   5.597  16.173 -0.6384 -0.0976 -0.1279
 2756TIP3    H129683   2.403   5.544  16.173 -0.0705 -0.9828  0.5854
 2756TIP3    H229684   2.458   5.679  16.217 -1.5928  0.3696 -1.4633
 2757TIP3   OH229685   3.170   1.633  12.443  0.7183 -0.5363  0.7371
 2757TIP3    H129686   3.193   1.675  12.525  0.3421  1.2646 -0.0301
 2757TIP3    H229687   3.229   1.672  12.378 -0.3525 -0.3637 -0.1846
 2758TIP3   OH229688   1.796   2.144   5.262  0.9083 -0.0478  0.2123
 2758TIP3    H129689   1.805   2.049   5.251 -0.2816 -0.0198 -1.3998
 2758TIP3    H229690   1.849   2.182   5.192 -0.0944  0.4189 -0.3132
 2759TIP3   OH229691   4.993   3.690   2.102  0.7296 -0.0346  0.4971
 2759TIP3    H129692   4.954   3.635   2.170  1.3953 -1.5638 -0.3029
 2759TIP3    H229693   5.016   3.771   2.147 -0.1432 -0.4514  1.7587
 2760TIP3   OH229694   0.284   0.646   0.101 -0.5782  0.5700 -0.6170
 2760TIP3    H129695   0.336   0.656   0.181 -0.2805  0.1545 -0.7490
 2760TIP3    H229696   0.338   0.589   0.045 -0.5748  1.2270 -1.2936
 2761TIP3   OH229697   3.947   2.810   2.354 -0.4674  0.3886 -0.2143
 2761TIP3    H129698   4.004   2.862   2.298  0.3439 -0.0198  0.2133
 2761TIP3    H229699   3.879   2.777   2.294  0.3605 -0.0140 -0.9670
 2762TIP3   OH229700   1.594   2.828   4.077 -0.3415  0.2142 -0.5347
 2762TIP3    H129701   1.676   2.786   4.103 -0.2870  0.2599 -0.6310
 2762TIP3    H229702   1.560   2.772   4.007  0.6643  1.3175 -1.9747
 2763TIP3   OH229703   2.099   6.491  16.791 -0.5335 -0.2527  0.4540
 2763TIP3    H129704   2.097   6.587  16.782  0.9806 -0.2363  0.1037
 2763TIP3    H229705   2.038   6.473  16.863 -0.9072  0.9566  0.4719
 2764TIP3   OH229706   5.996   5.755  12.956  0.0353  0.4027 -0.0173
 2764TIP3    H129707   5.928   5.742  12.890 -0.3894  0.3744  0.4170
 2764TIP3    H229708   6.063   5.808  12.912 -0.6169  1.0684 -0.2205
 2765TIP3   OH229709   4.154   5.961  16.121  0.3107 -0.7270  0.0835
 2765TIP3    H129710   4.079   6.010  16.155  0.1681 -0.6597 -0.3236
 2765TIP3    H229711   4.221   5.970  16.189 -0.3017 -1.4247  0.7919
 2766TIP3   OH229712   6.000   6.188   1.105 -0.0015  0.5909  0.4325
 2766TIP3    H129713   5.960   6.206   1.020  1.3501  0.5810 -0.2355
 2766TIP3    H229714   6.092   6.170   1.085  0.4431  1.0189  1.9530
 2767TIP3   OH229715   0.544   5.291   0.281 -0.1548 -0.0911 -0.1116
 2767TIP3    H129716   0.498   5.208   0.271 -0.4596 -0.1014  1.2332
 2767TIP3    H229717   0.625   5.268   0.327 -0.3994  0.3807  0.5805
 2768TIP3   OH229718   0.587   4.743   5.495 -0.0514  0.2227 -0.4328
 2768TIP3    H129719   0.677   4.725   5.520  0.3300  1.5163 -0.8277
 2768TIP3    H229720   0.557   4.808   5.558 -0.6980 -0.1406 -0.3523
 2769TIP3   OH229721   5.143   6.719  15.026 -0.7318 -0.1609  0.3394
 2769TIP3    H129722   5.103   6.711  14.940 -1.5931  1.7739  0.5185
 2769TIP3    H229723   5.237   6.731  15.008 -0.5037 -2.3203 -0.1699
 2770TIP3   OH229724   2.750   2.170   0.908 -0.3150 -0.1631 -0.1242
 2770TIP3    H129725   2.833   2.163   0.861  0.5718  1.4548  1.1167
 2770TIP3    H229726   2.691   2.212   0.846  0.4979  0.8562 -0.2233
 2771TIP3   OH229727   0.764   6.243   6.823 -0.1540  0.6375 -0.1676
 2771TIP3    H129728   0.738   6.151   6.829  0.8737  0.3659  0.3642
 2771TIP3    H229729   0.719   6.276   6.745  0.6233 -0.7177 -1.2333
 2772TIP3   OH229730   1.277   3.754  13.550  0.2634 -0.0281 -0.7332
 2772TIP3    H129731   1.342   3.781  13.485  0.3047 -1.0866 -1.1479
 2772TIP3    H229732   1.194   3.786  13.514  0.3130 -0.4165 -1.2091
 2773TIP3   OH229733   4.647   2.003   0.184  0.0869 -0.2533 -0.2424
 2773TIP3    H129734   4.731   1.994   0.140 -0.2677 -1.0028 -0.7872
 2773TIP3    H229735   4.669   2.018   0.276  0.8282  0.7974 -0.5761
 2774TIP3   OH229736   0.139   3.241   2.090  0.8021  0.0222  0.2606
 2774TIP3    H129737   0.142   3.226   2.184 -3.2866 -1.8233  0.3079
 2774TIP3    H229738   0.204   3.181   2.054  2.3524  0.6743  1.7995
 2775TIP3   OH229739   2.975   2.586   2.402 -0.0845 -0.0559 -0.4968
 2775TIP3    H129740   2.983   2.491   2.393  0.0164 -0.0293 -0.6920
 2775TIP3    H229741   3.048   2.621   2.350  1.3406  0.0711  1.4415
 2776TIP3   OH229742   4.035   5.944  12.892 -0.2058  0.7413 -0.3591
 2776TIP3    H129743   4.092   5.871  12.870  0.0009  0.8988 -0.3582
 2776TIP3    H229744   4.049   5.958  12.986 -1.2801 -0.0942 -0.0637
 2777TIP3   OH229745   2.716   5.817   4.032 -0.1294 -0.2108 -0.4795
 2777TIP3    H129746   2.759   5.732   4.021  0.1104 -0.0905 -0.4947
 2777TIP3    H229747   2.633   5.797   4.076  0.2863 -0.3645  0.2502
 2778TIP3   OH229748   0.657   2.095  16.998 -0.4294  0.4008  0.2737
 2778TIP3    H129749   0.573   2.133  16.972  0.7666  2.9409 -0.1599
 2778TIP3    H229750   0.722   2.161  16.974  1.5835 -0.8441  1.9353
 2779TIP3   OH229751   1.165   3.545  11.907 -0.9384 -0.0969 -0.3402
 2779TIP3    H129752   1.079   3.509  11.925 -1.6358 -0.1751 -3.3139
 2779TIP3    H229753   1.205   3.484  11.845  1.7327 -0.5893  1.6811
 2780TIP3   OH229754   6.735   2.528  12.292 -0.0923  0.5029 -0.3947
 2780TIP3    H129755   6.812   2.584  12.301  0.4384 -0.0061 -1.6109
 2780TIP3    H229756   6.683   2.570  12.224 -0.4248  0.3144 -0.2575
 2781TIP3   OH229757   4.657   5.175  12.920  0.7850  1.0985  0.0153
 2781TIP3    H129758   4.630   5.152  13.009 -1.0550 -2.3883 -1.2324
 2781TIP3    H229759   4.752   5.163  12.920  0.8117  1.0955  1.4791
 2782TIP3   OH229760   1.657   3.018  12.318 -0.9846  0.3854  0.3499
 2782TIP3    H129761   1.631   3.082  12.384  1.6371  1.9396 -0.0234
 2782TIP3    H229762   1.691   3.070  12.245  1.2631 -1.3944  0.0310
 2783TIP3   OH229763   3.849   6.568  13.807 -0.1303 -0.6877  0.2627
 2783TIP3    H129764   3.912   6.515  13.758 -1.2050 -1.4397 -0.3537
 2783TIP3    H229765   3.818   6.633  13.744  1.7326  1.2275  1.2223
 2784TIP3   OH229766   6.733   3.036  16.443 -0.2753 -0.1138  0.5384
 2784TIP3    H129767   6.733   3.112  16.385  0.4766 -0.9477 -0.5997
 2784TIP3    H229768   6.683   3.064  16.519 -0.2799  1.4136  0.0092
 2785TIP3   OH229769   0.825   5.089   5.223  0.0698 -0.2189  0.0925
 2785TIP3    H129770   0.814   5.062   5.132  0.7802  0.8787 -0.3461
 2785TIP3    H229771   0.767   5.165   5.232 -1.5096 -1.4867  1.1467
 2786TIP3   OH229772   6.289   3.805  16.395  0.0807 -0.0264  0.0315
 2786TIP3    H129773   6.199   3.802  16.365 -0.3364  0.4196  1.1917
 2786TIP3    H229774   6.328   3.879  16.348 -0.0691 -0.3958 -0.6813
 2787TIP3   OH229775   4.190   3.582  11.722  0.0297 -0.5025 -0.1801
 2787TIP3    H129776   4.136   3.543  11.654  1.0830  1.0996 -2.0318
 2787TIP3    H229777   4.243   3.509  11.755 -0.3189 -1.2787 -1.2727
 2788TIP3   OH229778   3.526   6.036   2.534  0.1440 -0.0612  0.3075
 2788TIP3    H129779   3.518   6.106   2.599  2.0189 -0.9636  1.5828
 2788TIP3    H229780   3.607   6.056   2.487 -0.8533  0.2254 -1.3699
 2789TIP3   OH229781   3.297   4.686   5.570 -0.3935 -0.0659 -0.1671
 2789TIP3    H129782   3.238   4.693   5.645  1.8572  0.1965  1.6550
 2789TIP3    H229783   3.301   4.592   5.552 -2.1506 -0.0250 -1.0539
 2790TIP3   OH229784   2.622   5.817   2.751  0.0894 -0.6660 -0.7434
 2790TIP3    H129785   2.675   5.896   2.752  0.0346 -0.6322  0.1453
 2790TIP3    H229786   2.584   5.812   2.839  1.8284 -2.8224 -0.0208
 2791TIP3   OH229787   5.831   4.953  11.917 -0.7296 -0.7458 -0.6638
 2791TIP3    H129788   5.778   5.006  11.977  0.7353  0.5849 -0.4708
 2791TIP3    H229789   5.793   4.971  11.831  0.3637  1.5639 -0.7533
 2792TIP3   OH229790   6.505   1.065  12.357  0.5139  0.1163 -0.3884
 2792TIP3    H129791   6.455   1.024  12.286  1.1346 -0.6549 -0.3789
 2792TIP3    H229792   6.479   1.157  12.353  0.7600  0.1519 -1.8217
 2793TIP3   OH229793   6.340   4.018  17.139 -0.4285  0.1383  0.4071
 2793TIP3    H129794   6.434   4.020  17.120 -0.8306  0.3521 -1.7395
 2793TIP3    H229795   6.330   3.944  17.200  1.1202  0.1509  0.7341
 2794TIP3   OH229796   4.482   4.024   0.910 -0.1254 -0.2686  0.3164
 2794TIP3    H129797   4.479   4.058   0.820  0.7938  0.0732  0.4027
 2794TIP3    H229798   4.501   3.931   0.899 -0.2913 -0.2822  0.1428
 2795TIP3   OH229799   2.084   1.420  12.278  0.3267 -0.1883  0.3946
 2795TIP3    H129800   2.132   1.503  12.272 -0.8021  0.4881  0.4228
 2795TIP3    H229801   2.120   1.366  12.207 -0.0003  0.8989 -0.6268
 2796TIP3   OH229802   5.658   4.079   6.189  0.6350 -0.2854  0.6714
 2796TIP3    H129803   5.709   4.150   6.150  1.7735  0.3560  3.1249
 2796TIP3    H229804   5.645   4.017   6.118  0.7042  1.7561 -1.2520
 2797TIP3   OH229805   2.406   1.120  11.632  0.1718  0.2011 -0.0337
 2797TIP3    H129806   2.351   1.185  11.588  1.5377  0.0909 -2.0316
 2797TIP3    H229807   2.475   1.172  11.673 -0.2227  0.1816  0.6703
 2798TIP3   OH229808   5.758   2.603   4.677 -0.0091  0.2772  0.3299
 2798TIP3    H129809   5.764   2.661   4.752 -0.2845 -1.6316  1.9179
 2798TIP3    H229810   5.849   2.581   4.656  0.0171 -0.3537  1.0849
 2799TIP3   OH229811   5.690   4.819  14.203  0.4092 -0.1819 -0.1699
 2799TIP3    H129812   5.730   4.848  14.285 -0.0659  0.0973 -0.0343
 2799TIP3    H229813   5.692   4.724  14.207  0.3226 -0.1681  0.2013
 2800TIP3   OH229814   3.216   3.506   3.565  0.2430 -0.1367 -0.2403
 2800TIP3    H129815   3.280   3.576   3.581  0.0014 -0.2695  1.4614
 2800TIP3    H229816   3.132   3.546   3.588  0.1252 -1.0254  0.9485
 2801TIP3   OH229817   6.788   3.074   2.530 -0.4596 -0.0361 -0.7138
 2801TIP3    H129818   6.711   3.022   2.552 -0.5062  0.0044 -0.7832
 2801TIP3    H229819   6.757   3.165   2.531 -0.5771 -0.0641 -1.4427
 2802TIP3   OH229820   5.289   5.839   2.494  0.2971  0.1723  0.0662
 2802TIP3    H129821   5.205   5.883   2.479  0.2117  0.3307  0.9658
 2802TIP3    H229822   5.340   5.859   2.416 -0.1020  1.0296  0.0092
 2803TIP3   OH229823   4.285   4.966   0.573  0.0163  0.2831 -0.3137
 2803TIP3    H129824   4.230   4.894   0.542 -1.3846  1.5021 -0.7833
 2803TIP3    H229825   4.231   5.012   0.637  0.9970  0.7664  0.1941
 2804TIP3   OH229826   2.806   0.256  11.629 -0.2843  0.1461  0.1930
 2804TIP3    H129827   2.743   0.229  11.696 -0.7730  0.5361 -0.1020
 2804TIP3    H229828   2.856   0.176  11.610 -0.8539 -0.2335  0.2559
 2805TIP3   OH229829   5.258   4.174   1.042  0.0104  0.2815  0.4425
 2805TIP3    H129830   5.166   4.173   1.016 -0.0017 -0.5247  0.4976
 2805TIP3    H229831   5.263   4.243   1.108 -1.0933 -1.3414  2.3322
 2806TIP3   OH229832   2.567   5.317   4.088  0.0911  0.3797 -0.0776
 2806TIP3    H129833   2.640   5.379   4.094  0.0682  0.3614  0.4992
 2806TIP3    H229834   2.574   5.264   4.168 -1.0780  0.9676  0.4435
 2807TIP3   OH229835   1.437   5.250   2.181 -0.1335  0.3644  0.2697
 2807TIP3    H129836   1.476   5.325   2.137 -1.3414  0.3322 -0.9327
 2807TIP3    H229837   1.449   5.267   2.274  1.2533  1.1287 -0.0292
 2808TIP3   OH229838   0.557   5.327   3.210 -0.1958 -0.1452  0.5449
 2808TIP3    H129839   0.635   5.356   3.257  0.9433  1.4783 -2.0812
 2808TIP3    H229840   0.524   5.407   3.168 -0.7205 -1.4938 -1.8152
 2809TIP3   OH229841   6.681   6.031   3.599 -0.9706  0.4025 -0.7858
 2809TIP3    H129842   6.697   5.941   3.572 -1.8462 -0.4451  1.3243
 2809TIP3    H229843   6.768   6.064   3.624 -1.1280 -1.4833  2.8762
 2810TIP3   OH229844   2.206   4.689  13.705  0.4858 -0.1049  0.2944
 2810TIP3    H129845   2.205   4.692  13.610 -1.9442 -0.3677  0.2504
 2810TIP3    H229846   2.226   4.779  13.732  1.6407 -0.1233 -0.4126
 2811TIP3   OH229847   1.186   2.933   4.138  0.0144 -0.5077  0.4574
 2811TIP3    H129848   1.269   2.976   4.159  0.2421  0.2028 -1.6321
 2811TIP3    H229849   1.198   2.842   4.165  1.8746 -0.6634 -0.7091
 2812TIP3   OH229850   1.194   0.424   0.280 -0.5922 -0.0050  0.2716
 2812TIP3    H129851   1.237   0.509   0.275  0.6239 -0.6612 -1.6981
 2812TIP3    H229852   1.102   0.444   0.298 -0.1294  1.6175  1.0514
 2813TIP3   OH229853   2.443   3.057  13.430  0.8178 -0.3191 -0.5141
 2813TIP3    H129854   2.511   3.013  13.480  0.5093  0.8654  1.0189
 2813TIP3    H229855   2.360   3.029  13.470  0.4699 -0.5520 -1.3662
 2814TIP3   OH229856   6.458   0.838   0.669  0.0157  0.1617 -0.5236
 2814TIP3    H129857   6.519   0.912   0.666  0.2868 -0.0825 -1.1300
 2814TIP3    H229858   6.513   0.762   0.686 -0.4097  0.2513  1.4659
 2815TIP3   OH229859   4.828   3.363   1.379  0.3334  0.0951  0.1829
 2815TIP3    H129860   4.876   3.281   1.365  1.6714  0.9644 -0.5481
 2815TIP3    H229861   4.876   3.428   1.327 -2.2316  0.8358 -1.4715
 2816TIP3   OH229862   0.546   2.255  15.151 -0.1930  0.6610 -0.2298
 2816TIP3    H129863   0.501   2.332  15.117 -1.5832 -1.4678 -3.7553
 2816TIP3    H229864   0.629   2.253  15.103  0.1241  0.3080  0.3277
 2817TIP3   OH229865   1.447   4.085   3.681 -0.2583  0.4885 -0.1440
 2817TIP3    H129866   1.487   4.169   3.659 -2.0499  1.6997  0.8819
 2817TIP3    H229867   1.458   4.078   3.776 -2.7388  1.1148  0.2698
 2818TIP3   OH229868   4.425   6.758  10.651  1.1443 -0.8005  0.2866
 2818TIP3    H129869   4.463   6.673  10.629  1.7523 -0.3001 -0.6672
 2818TIP3    H229870   4.331   6.747  10.637  1.3926 -0.8388 -1.5270
 2819TIP3   OH229871   5.974   6.132  12.072 -0.0694  0.5255  0.5500
 2819TIP3    H129872   5.959   6.165  11.983  0.1764 -0.1246  0.2646
 2819TIP3    H229873   6.061   6.165  12.096  0.3851 -0.3056  0.0778
 2820TIP3   OH229874   4.205   5.398  15.671 -0.0756 -0.8118 -0.1798
 2820TIP3    H129875   4.147   5.349  15.729  1.3256 -2.3889 -0.0313
 2820TIP3    H229876   4.292   5.385  15.707  0.4202  1.7099 -0.2442
 2821TIP3   OH229877   3.418   5.806  12.459 -0.2564  0.4448  0.1945
 2821TIP3    H129878   3.384   5.819  12.548 -0.9924  0.5335 -0.0970
 2821TIP3    H229879   3.341   5.812  12.403  0.3807  1.7290 -0.5828
 2822TIP3   OH229880   3.893   4.528  13.803  0.0677  0.1900 -0.0553
 2822TIP3    H129881   3.803   4.558  13.788 -0.2296  0.0727  1.3437
 2822TIP3    H229882   3.947   4.602  13.774 -0.6604  2.5938  3.9332
 2823TIP3   OH229883   6.773   6.231   6.219  0.0017  0.4422 -0.5450
 2823TIP3    H129884   6.699   6.210   6.276 -0.9339  1.4491 -1.3463
 2823TIP3    H229885   6.800   6.147   6.182 -0.7108  0.0616 -0.2107
 2824TIP3   OH229886   4.597   0.314  15.267  0.0765  0.6585  1.3727
 2824TIP3    H129887   4.607   0.351  15.355 -0.6677 -0.2704  1.8733
 2824TIP3    H229888   4.614   0.221  15.278 -0.2608  0.4892  0.5811
 2825TIP3   OH229889   3.871   2.772   5.873  0.3441 -0.0325 -0.0884
 2825TIP3    H129890   3.786   2.817   5.876  0.8197  0.9919 -1.0626
 2825TIP3    H229891   3.876   2.736   5.785  0.9111 -0.1002 -0.0332
 2826TIP3   OH229892   6.222   2.405   0.466 -0.0218  0.3198 -0.0498
 2826TIP3    H129893   6.189   2.377   0.551 -0.5612 -3.8064 -1.4022
 2826TIP3    H229894   6.145   2.401   0.408 -0.0201  4.4440 -0.6561
 2827TIP3   OH229895   0.442   4.428  11.507  0.4400 -0.2268 -0.2224
 2827TIP3    H129896   0.389   4.502  11.476  0.9396 -0.2922 -1.2892
 2827TIP3    H229897   0.388   4.351  11.490  0.1344 -0.1493  0.3949
 2828TIP3   OH229898   0.372   1.582   0.318 -0.1441  0.3362 -0.6271
 2828TIP3    H129899   0.442   1.647   0.328 -1.9964  2.1886  1.9877
 2828TIP3    H229900   0.302   1.629   0.273 -1.0478 -0.2497  0.1264
 2829TIP3   OH229901   4.425   5.660  12.871 -0.0214 -0.3679  0.1368
 2829TIP3    H129902   4.457   5.591  12.930  1.0323  0.9115  1.1216
 2829TIP3    H229903   4.500   5.718  12.859 -1.1229  1.1067  0.0902
 2830TIP3   OH229904   2.736   2.107   5.438 -0.3512 -0.5272 -0.0645
 2830TIP3    H129905   2.815   2.098   5.491 -0.1048  0.6299 -0.2123
 2830TIP3    H229906   2.680   2.167   5.488 -0.3962  0.0446 -0.7895
 2831TIP3   OH229907   4.129   1.292   2.424 -0.4216 -0.2642  0.4111
 2831TIP3    H129908   4.050   1.334   2.389 -0.0704 -0.6947 -0.9387
 2831TIP3    H229909   4.194   1.300   2.355  0.0727 -1.7955  0.6591
 2832TIP3   OH229910   3.015   6.042   1.908 -0.1099 -0.8674 -0.6997
 2832TIP3    H129911   3.014   6.027   2.002 -0.7730 -0.6158 -0.6690
 2832TIP3    H229912   2.995   6.135   1.897  1.6135 -0.5009 -1.0184
 2833TIP3   OH229913   4.562   0.783   2.529 -0.2901 -0.4397 -0.0669
 2833TIP3    H129914   4.633   0.726   2.499  0.6353  1.0196 -0.7753
 2833TIP3    H229915   4.501   0.784   2.455  0.4437  0.6530 -0.6898
 2834TIP3   OH229916   3.519   0.772  15.386  0.2830  0.3806  0.0466
 2834TIP3    H129917   3.506   0.797  15.294  0.3844  0.0868 -0.0502
 2834TIP3    H229918   3.574   0.694  15.381  1.1350  0.9450  0.3991
 2835TIP3   OH229919   4.022   3.444   4.850  0.3394 -0.2914  0.4317
 2835TIP3    H129920   4.025   3.539   4.841 -0.9662 -0.0552  1.9845
 2835TIP3    H229921   4.081   3.426   4.924 -0.1590 -0.5758  0.7617
 2836TIP3   OH229922   4.762   6.585   5.760  0.0776  0.0314  0.0008
 2836TIP3    H129923   4.760   6.604   5.854 -2.5399 -0.3351  0.1207
 2836TIP3    H229924   4.734   6.667   5.719  0.8742  0.0873 -0.4315
 2837TIP3   OH229925   5.844   5.569   3.184 -0.0508 -0.0152 -0.5007
 2837TIP3    H129926   5.924   5.605   3.221  0.5923  0.3656 -2.1982
 2837TIP3    H229927   5.841   5.479   3.216 -1.2391  1.1182  3.1115
 2838TIP3   OH229928   3.073   0.913   2.160 -0.3272  0.8732  0.2822
 2838TIP3    H129929   3.164   0.893   2.179  0.0155  0.5586 -1.4872
 2838TIP3    H229930   3.074   0.943   2.069 -2.1438 -0.3308 -0.1918
 2839TIP3   OH229931   1.032   4.169   1.381 -0.3071 -0.0880  0.1603
 2839TIP3    H129932   1.115   4.171   1.428  0.8326 -0.8022 -1.7125
 2839TIP3    H229933   1.002   4.079   1.388 -2.8047  0.8019  3.7382
 2840TIP3   OH229934   1.095   5.524   0.973 -0.1877 -0.1668 -0.0301
 2840TIP3    H129935   1.116   5.501   0.882 -1.6293 -0.0698 -0.4193
 2840TIP3    H229936   1.096   5.620   0.974 -2.9633 -0.0281 -0.7411
 2841TIP3   OH229937   1.604   6.405  12.868  0.0454 -0.8362 -0.0874
 2841TIP3    H129938   1.615   6.451  12.785  0.2615  0.2248  0.5089
 2841TIP3    H229939   1.692   6.376  12.892  0.1299 -0.3503  0.2056
 2842TIP3   OH229940   0.877   2.079  13.335 -0.1778 -0.0315  0.7393
 2842TIP3    H129941   0.889   1.986  13.317  0.6910 -0.1958  2.0204
 2842TIP3    H229942   0.901   2.089  13.428 -0.6332  1.3992  0.7342
 2843TIP3   OH229943   2.012   3.428   1.897  0.0899 -0.3270  0.1389
 2843TIP3    H129944   1.999   3.349   1.950 -1.5322 -0.4046 -0.3290
 2843TIP3    H229945   2.033   3.395   1.810  0.2793 -0.2204  0.1429
 2844TIP3   OH229946   5.882   0.078   0.157  0.3808  0.2675 -0.2748
 2844TIP3    H129947   5.868   0.081   0.062 -1.1685  2.1883 -0.0506
 2844TIP3    H229948   5.911   0.167   0.179 -2.7576  1.0195  1.4414
 2845TIP3   OH229949   1.378   2.481  14.483 -0.4438 -0.3307 -0.2747
 2845TIP3    H129950   1.294   2.475  14.437  0.7790 -1.9447 -2.4721
 2845TIP3    H229951   1.433   2.535  14.426  0.6542 -1.0892  0.0240
 2846TIP3   OH229952   3.783   1.627  11.349 -0.1544  0.6027  0.0666
 2846TIP3    H129953   3.872   1.603  11.375 -0.0185  1.8378  0.8086
 2846TIP3    H229954   3.776   1.600  11.258  0.6964 -0.2587  0.2515
 2847TIP3   OH229955   0.513   6.447  13.376  0.2778 -0.0687  0.5625
 2847TIP3    H129956   0.568   6.433  13.453 -1.2245 -0.1841  1.6474
 2847TIP3    H229957   0.505   6.542  13.369  0.4366 -0.0578  0.5333
 2848TIP3   OH229958   6.402   0.146   0.340 -0.0636 -0.1090 -0.0858
 2848TIP3    H129959   6.384   0.106   0.425 -1.4339 -1.9064 -1.1426
 2848TIP3    H229960   6.326   0.123   0.286  0.1169  2.1346 -1.4371
 2849TIP3   OH229961   5.352   1.524  14.046  0.5855  0.1859  0.0114
 2849TIP3    H129962   5.324   1.478  13.967  0.1743 -0.4126  0.4970
 2849TIP3    H229963   5.285   1.591  14.060 -0.1483 -0.6604  0.6657
 2850TIP3   OH229964   6.641   6.180  14.557  0.0137 -0.5599 -0.2783
 2850TIP3    H129965   6.654   6.274  14.546  0.4638 -0.3248  1.8420
 2850TIP3    H229966   6.596   6.172  14.641  2.6789 -2.3408  1.1327
 2851TIP3   OH229967   6.298   5.585  14.971 -0.0509 -0.2717  0.6536
 2851TIP3    H129968   6.250   5.665  14.994  0.9679  0.5314  0.0225
 2851TIP3    H229969   6.378   5.589  15.023  2.0780  1.3319 -2.4114
 2852TIP3   OH229970   1.088   2.870  11.411 -0.1277 -0.3118  0.2048
 2852TIP3    H129971   1.162   2.822  11.375  1.3626  0.7892  1.6259
 2852TIP3    H229972   1.076   2.834  11.499  0.3376  1.1418  0.8983
 2853TIP3   OH229973   5.958   1.199  11.003  0.3624  0.8625  0.1419
 2853TIP3    H129974   5.965   1.219  11.096  0.0861  1.1730  0.1013
 2853TIP3    H229975   6.028   1.137  10.985  1.0305  1.5466  0.3558
 2854TIP3   OH229976   4.192   3.798  11.910  0.7809  0.0198  0.7639
 2854TIP3    H129977   4.287   3.800  11.896  0.6219 -0.5550 -0.5690
 2854TIP3    H229978   4.160   3.731  11.849 -0.6307  1.0846  0.2652
 2855TIP3   OH229979   0.184   2.653  12.292  0.0437 -0.0286 -0.5204
 2855TIP3    H129980   0.176   2.659  12.197 -2.3947  1.2047 -0.3357
 2855TIP3    H229981   0.276   2.671  12.310  0.4642  0.1807 -2.6006
 2856TIP3   OH229982   6.527   5.019  12.522 -0.2641 -0.2178 -0.1064
 2856TIP3    H129983   6.561   5.020  12.433 -2.2854  0.6726 -0.9394
 2856TIP3    H229984   6.462   4.949  12.522 -0.8799  0.3419  0.4113
 2857TIP3   OH229985   4.643   3.180  16.348  0.2069 -0.3623  0.2400
 2857TIP3    H129986   4.647   3.244  16.419 -1.4412 -0.6171  0.5957
 2857TIP3    H229987   4.693   3.105  16.380  0.9678  0.1990  0.3893
 2858TIP3   OH229988   4.275   5.958  15.728  0.4950 -0.8531 -0.2313
 2858TIP3    H129989   4.328   6.015  15.784  0.4850 -1.4521  0.3992
 2858TIP3    H229990   4.205   6.015  15.696 -0.0019 -0.6953  1.0678
 2859TIP3   OH229991   6.644   4.996   0.770  0.1229 -0.3082  0.0022
 2859TIP3    H129992   6.631   5.077   0.719 -0.4146  0.2648  1.0227
 2859TIP3    H229993   6.734   4.970   0.750 -0.3261 -0.5781 -1.8912
 2860TIP3   OH229994   0.491   1.234   1.781  0.2063 -0.2481  0.4556
 2860TIP3    H129995   0.517   1.162   1.724 -1.5452 -0.1163 -0.5582
 2860TIP3    H229996   0.397   1.222   1.795  0.5072 -0.0991  3.1084
 2861TIP3   OH229997   3.473   2.513   3.780 -0.4693  0.3051  0.0284
 2861TIP3    H129998   3.554   2.490   3.826 -0.7770 -1.1179 -0.0946
 2861TIP3    H229999   3.470   2.453   3.705 -2.4078 -0.7874  0.9038
 2862TIP3   OH230000   6.352   2.584  16.379  0.1484  0.5264  0.0622
 2862TIP3    H130001   6.385   2.609  16.293 -2.1839  0.7142 -0.8519
 2862TIP3    H230002   6.395   2.645  16.440  1.7790  0.4289 -0.9367
 2863TIP3   OH230003   2.910   2.594  15.139  0.6763  0.0177 -1.0347
 2863TIP3    H130004   2.925   2.560  15.227  0.4962 -0.7707 -1.2967
 2863TIP3    H230005   2.823   2.635  15.144  0.7320  0.1079 -0.8079
 2864TIP3   OH230006   2.707   3.582   0.699  0.3091 -0.4725 -0.8594
 2864TIP3    H130007   2.782   3.578   0.641  0.8219  1.1692 -0.3454
 2864TIP3    H230008   2.631   3.588   0.641  0.6871 -0.4716 -1.3519
 2865TIP3   OH230009   4.551   5.199  15.462 -0.0321 -0.4095  0.2699
 2865TIP3    H130010   4.646   5.207  15.456  0.0566 -0.9319  0.8320
 2865TIP3    H230011   4.533   5.106  15.450 -0.3331 -0.5555  1.6357
 2866TIP3   OH230012   0.393   0.672   4.262  0.2695 -0.0277 -1.1762
 2866TIP3    H130013   0.412   0.601   4.201  1.4244 -1.4111  0.7000
 2866TIP3    H230014   0.317   0.716   4.224  1.7135  0.0584 -4.2907
 2867TIP3   OH230015   1.486   0.804  12.146 -0.0773 -0.2997  0.0018
 2867TIP3    H130016   1.491   0.897  12.123  0.4949 -0.2241  0.4090
 2867TIP3    H230017   1.417   0.769  12.090 -0.5828  0.4569  0.1315
 2868TIP3   OH230018   2.907   1.555  16.231  0.2340 -0.4862  0.1985
 2868TIP3    H130019   2.836   1.578  16.171 -0.4744 -0.6943  0.9348
 2868TIP3    H230020   2.932   1.638  16.271 -0.8772 -0.6523  1.2985
 2869TIP3   OH230021   5.945   2.300   1.019  0.4755  0.6201  0.1275
 2869TIP3    H130022   6.015   2.284   1.082  0.4933  0.3300  0.0381
 2869TIP3    H230023   5.981   2.365   0.959  1.3584 -0.8133 -0.9783
 2870TIP3   OH230024   5.464   5.048   5.915  0.3420 -0.9506  0.2187
 2870TIP3    H130025   5.501   5.044   5.826  1.8056  0.1835  0.7289
 2870TIP3    H230026   5.414   5.130   5.916  1.8916  0.0341  0.9573
 2871TIP3   OH230027   1.684   4.342   4.945 -0.3781 -0.8047  0.0301
 2871TIP3    H130028   1.710   4.377   5.030  1.4599  1.3560 -1.3489
 2871TIP3    H230029   1.690   4.247   4.956 -0.9036 -0.6246  2.4877
 2872TIP3   OH230030   2.450   6.126  12.307 -0.3607  0.6315 -0.1690
 2872TIP3    H130031   2.522   6.162  12.358 -1.1476  1.7238  0.1957
 2872TIP3    H230032   2.471   6.033  12.299  1.2038  0.9710 -0.2791
 2873TIP3   OH230033   3.308   3.163  15.116  0.4127 -0.7685  0.4051
 2873TIP3    H130034   3.214   3.179  15.119  0.4974  0.2764 -1.3352
 2873TIP3    H230035   3.332   3.143  15.207 -1.3060 -0.0414  1.0546
 2874TIP3   OH230036   5.524   1.321  13.290 -0.0184 -0.0691  0.0033
 2874TIP3    H130037   5.552   1.241  13.245  2.5260  0.0282  1.2459
 2874TIP3    H230038   5.523   1.388  13.222  0.6147 -0.5658 -0.5078
 2875TIP3   OH230039   6.623   5.620  14.918  0.1881  0.5137  0.5961
 2875TIP3    H130040   6.659   5.571  14.992  1.0860  0.0191 -0.1418
 2875TIP3    H230041   6.695   5.623  14.855 -1.7000 -2.5633 -1.9669
 2876TIP3   OH230042   5.099   0.078  14.058  0.0928  0.1491  0.2601
 2876TIP3    H130043   5.151   0.126  13.993  0.2264  0.7179  0.7783
 2876TIP3    H230044   5.108  -0.014  14.032  1.0692  0.2672  0.1373
 2877TIP3   OH230045   3.645   6.383  13.496 -0.0700 -0.2084 -0.1937
 2877TIP3    H130046   3.624   6.339  13.579  0.5880 -0.2272 -0.0293
 2877TIP3    H230047   3.733   6.352  13.475  0.0110  0.2806 -0.5791
 2878TIP3   OH230048   4.646   1.868  13.143 -0.4101  0.1116 -0.0142
 2878TIP3    H130049   4.725   1.919  13.162  0.2745 -1.3548  1.3457
 2878TIP3    H230050   4.658   1.839  13.052  0.4088  0.2741  0.0333
 2879TIP3   OH230051   6.548   5.285   5.523 -0.4102  0.3242  0.3942
 2879TIP3    H130052   6.510   5.198   5.530 -0.7717  0.3058 -1.3633
 2879TIP3    H230053   6.526   5.314   5.435  1.2703  1.4527  0.2946
 2880TIP3   OH230054   0.432   4.124  15.831  0.4695  1.1899  0.3714
 2880TIP3    H130055   0.397   4.043  15.868  0.8147  0.6333 -0.5018
 2880TIP3    H230056   0.355   4.178  15.815  0.1403  0.6051 -0.0455
 2881TIP3   OH230057   3.584   5.911  12.292 -0.3360  0.4566  0.5724
 2881TIP3    H130058   3.538   5.868  12.365  0.9891  2.6795  2.8821
 2881TIP3    H230059   3.563   6.004  12.303  1.0202  0.9872 -1.0935
 2882TIP3   OH230060   3.492   4.713   2.555 -0.4369 -0.5020  0.6272
 2882TIP3    H130061   3.424   4.755   2.608  1.5238  0.0417  2.9199
 2882TIP3    H230062   3.511   4.631   2.601  0.2941 -0.7519 -0.0980
 2883TIP3   OH230063   0.216   2.373  12.959  0.1597 -0.6134 -0.0935
 2883TIP3    H130064   0.300   2.375  12.913 -0.2077 -0.0897 -0.7656
 2883TIP3    H230065   0.234   2.414  13.044  0.9659 -2.0735  0.4770
 2884TIP3   OH230066   1.455   4.212   0.423  0.2912  0.0729  0.1463
 2884TIP3    H130067   1.451   4.119   0.404  0.6604  0.5219 -2.4516
 2884TIP3    H230068   1.543   4.225   0.459  0.6482 -0.4226 -0.5265
 2885TIP3   OH230069   5.069   0.634  15.891 -0.4695  0.1574  0.1974
 2885TIP3    H130070   5.018   0.684  15.955 -2.7015 -0.5347 -0.9395
 2885TIP3    H230071   5.096   0.699  15.827  0.4850  0.6005  1.0216
 2886TIP3   OH230072   0.518   0.130  13.198  0.3573 -0.1934  0.2789
 2886TIP3    H130073   0.485   0.063  13.139  0.7421 -1.0009  0.9573
 2886TIP3    H230074   0.613   0.115  13.201  0.1619 -1.3823  2.5091
 2887TIP3   OH230075   6.659   2.908   3.443 -0.5987  0.0344 -0.4245
 2887TIP3    H130076   6.572   2.949   3.444 -0.9010 -0.5634 -1.3508
 2887TIP3    H230077   6.688   2.912   3.534 -0.6788  2.1549 -0.4525
 2888TIP3   OH230078   6.712   6.510   1.885 -0.4370 -0.3391 -0.2140
 2888TIP3    H130079   6.650   6.504   1.812  0.5245 -1.1939 -1.0021
 2888TIP3    H230080   6.788   6.459   1.856  0.7116  0.8107  0.6423
 2889TIP3   OH230081   5.103   6.325   2.533  0.1894 -0.1392  1.0272
 2889TIP3    H130082   5.193   6.308   2.504  0.3336 -0.3060  1.5537
 2889TIP3    H230083   5.050   6.261   2.486  0.5054 -0.8655  1.6222
 2890TIP3   OH230084   5.431   2.950  15.636  0.8488  0.5887 -0.2771
 2890TIP3    H130085   5.487   2.945  15.714  1.6859  0.5570 -0.8722
 2890TIP3    H230086   5.456   2.873  15.584  0.5662  0.8149 -0.7530
 2891TIP3   OH230087   5.255   3.413  14.708  0.0491  0.2030 -0.0935
 2891TIP3    H130088   5.329   3.388  14.763  0.4617  0.5647 -0.4696
 2891TIP3    H230089   5.208   3.331  14.692  2.3305 -0.7760 -2.7159
 2892TIP3   OH230090   0.908   3.897  13.219 -0.1492  0.2704  0.0224
 2892TIP3    H130091   0.883   3.914  13.129 -0.9603  1.1439  0.3975
 2892TIP3    H230092   0.948   3.978  13.249 -1.7074  0.7011  1.0415
 2893TIP3   OH230093   6.407   2.510  11.216 -0.3564 -0.0062  0.0152
 2893TIP3    H130094   6.487   2.457  11.209 -0.3774 -0.0571  0.1574
 2893TIP3    H230095   6.397   2.549  11.129  0.0057  0.2671  0.0964
 2894TIP3   OH230096   4.807   2.629   3.250 -0.5998 -0.6148  0.2926
 2894TIP3    H130097   4.818   2.558   3.314 -0.0414 -2.1051 -1.3648
 2894TIP3    H230098   4.748   2.592   3.184 -0.7495  0.6905 -0.3363
 2895TIP3   OH230099   1.203   0.668   5.337 -0.4525  0.8107  0.5517
 2895TIP3    H130100   1.222   0.626   5.253 -1.4271  3.7502 -1.2893
 2895TIP3    H230101   1.108   0.677   5.340 -0.4265  0.9608  1.8722
 2896TIP3   OH230102   3.217   2.560  13.404  0.2494  0.7325  0.0566
 2896TIP3    H130103   3.272   2.558  13.326  1.5987  2.4474  0.8780
 2896TIP3    H230104   3.225   2.650  13.436  0.9995 -0.2592  2.9782
 2897TIP3   OH230105   4.833   1.801  14.800  0.8320  0.1157 -0.1776
 2897TIP3    H130106   4.912   1.847  14.829  0.1404  1.1934  0.0343
 2897TIP3    H230107   4.778   1.869  14.761 -1.0811 -0.1157  1.9209
 2898TIP3   OH230108   4.231   6.290  16.250 -0.2765  0.8840  0.4470
 2898TIP3    H130109   4.140   6.307  16.275 -0.2847  1.7007 -0.0946
 2898TIP3    H230110   4.280   6.362  16.289 -0.0105  1.0263 -0.1440
 2899TIP3   OH230111   1.169   0.171   5.093  0.4139  0.1156  0.6585
 2899TIP3    H130112   1.213   0.233   5.151  1.5561  0.9722 -1.0353
 2899TIP3    H230113   1.238   0.139   5.035 -0.8558  0.1456 -0.9468
 2900TIP3   OH230114   3.725   2.461   5.780  0.5361 -0.0696  0.6201
 2900TIP3    H130115   3.728   2.468   5.875 -0.3342 -1.5732  0.7786
 2900TIP3    H230116   3.642   2.501   5.755 -0.0399 -1.1959  0.6711
 2901TIP3   OH230117   4.374   2.794   0.384 -0.8769  0.0172  0.2440
 2901TIP3    H130118   4.306   2.767   0.323  0.3511 -0.4950 -0.9604
 2901TIP3    H230119   4.393   2.885   0.361 -0.1064 -0.3116 -0.4583
 2902TIP3   OH230120   5.561   0.277  15.811  0.4796 -0.2613  0.5253
 2902TIP3    H130121   5.570   0.301  15.719 -1.5703 -1.2232  0.0185
 2902TIP3    H230122   5.587   0.355  15.859  1.1973  0.3903 -0.8601
 2903TIP3   OH230123   0.715   4.018  15.347  1.1839 -0.2918 -0.2665
 2903TIP3    H130124   0.713   3.988  15.438  3.6567  0.6265  0.1695
 2903TIP3    H230125   0.646   3.968  15.304 -0.8197 -0.0022  2.2917
 2904TIP3   OH230126   0.980   4.072   1.884  0.2063 -0.3086 -0.1944
 2904TIP3    H130127   0.919   4.099   1.953  2.0659 -0.3298  1.5652
 2904TIP3    H230128   0.997   3.979   1.902 -0.0386 -0.5791 -1.3083
 2905TIP3   OH230129   6.166   2.622   3.143 -0.9577  0.0682  0.8151
 2905TIP3    H130130   6.149   2.642   3.051 -1.6011 -0.1233  0.8835
 2905TIP3    H230131   6.107   2.549   3.163  0.5597 -1.2003  0.8718
 2906TIP3   OH230132   5.255   5.942  12.153  0.0514 -0.5299  0.2871
 2906TIP3    H130133   5.199   5.866  12.164 -2.4306  1.3333  1.8441
 2906TIP3    H230134   5.303   5.949  12.236 -1.1828  0.6064  0.9403
 2907TIP3   OH230135   1.195   0.911  15.143 -0.2827 -0.1416 -0.0506
 2907TIP3    H130136   1.173   0.960  15.222 -2.5008  0.0520 -0.7139
 2907TIP3    H230137   1.155   0.961  15.072  3.0004  0.5875 -1.5835
 2908TIP3   OH230138   4.808   0.870  17.165  0.1201 -0.1242  0.1778
 2908TIP3    H130139   4.821   0.815  17.089  2.1043 -0.7644  0.9160
 2908TIP3    H230140   4.781   0.810  17.235 -0.3180  0.2464  0.3375
 2909TIP3   OH230141   1.697   3.566  13.826 -0.2702 -0.6273 -0.8088
 2909TIP3    H130142   1.766   3.574  13.760 -0.1223 -0.5160 -0.6382
 2909TIP3    H230143   1.744   3.555  13.908 -0.4566 -0.7886 -0.7244
 2910TIP3   OH230144   3.575   2.659   2.715  0.0403 -0.1731 -0.2625
 2910TIP3    H130145   3.632   2.590   2.749 -0.3522 -0.8029 -0.8514
 2910TIP3    H230146   3.552   2.712   2.792 -0.7110 -1.4812  0.4469
 2911TIP3   OH230147   2.721   1.130  14.346  0.1822  0.7057 -0.0080
 2911TIP3    H130148   2.717   1.216  14.388  0.3082 -0.3994  2.4088
 2911TIP3    H230149   2.815   1.116  14.330  0.1866  0.8672 -0.1348
 2912TIP3   OH230150   6.389   1.826   0.595 -0.4684 -0.3664 -0.2202
 2912TIP3    H130151   6.397   1.898   0.532 -0.0241  0.9631  1.2769
 2912TIP3    H230152   6.447   1.758   0.560  0.5868  0.7371 -0.7334
 2913TIP3   OH230153   4.883   5.393  12.421  0.0403  0.2733 -0.0085
 2913TIP3    H130154   4.799   5.436  12.434  0.5376  1.0931  0.5554
 2913TIP3    H230155   4.901   5.350  12.504 -1.1958 -2.4574 -1.0168
 2914TIP3   OH230156   2.886   6.123   2.532 -0.3648 -0.0618 -0.0362
 2914TIP3    H130157   2.872   6.194   2.469 -1.4739  0.2544  0.5479
 2914TIP3    H230158   2.921   6.166   2.610 -0.0050 -0.3110 -0.0562
 2915TIP3   OH230159   4.074   2.239   2.370 -0.1599 -0.4906 -0.0988
 2915TIP3    H130160   4.021   2.203   2.299 -1.0158  1.8519 -0.7651
 2915TIP3    H230161   4.013   2.247   2.444 -0.3015  0.5594 -0.3114
 2916TIP3   OH230162   2.809   3.856  10.569 -0.0855 -0.7979  0.2701
 2916TIP3    H130163   2.863   3.839  10.492 -1.5597 -2.2085 -0.5068
 2916TIP3    H230164   2.721   3.873  10.534 -0.4653  0.1158  1.5685
 2917TIP3   OH230165   2.732   3.488   2.324 -0.2065 -0.0770 -0.7537
 2917TIP3    H130166   2.661   3.459   2.267 -0.4596 -0.0092 -0.4704
 2917TIP3    H230167   2.724   3.584   2.325  1.5655  0.1905 -2.9422
 2918TIP3   OH230168   2.008   5.380  15.950  0.0780 -0.5065  0.3045
 2918TIP3    H130169   2.102   5.387  15.936 -0.2660  1.0645 -1.6367
 2918TIP3    H230170   1.979   5.313  15.888 -0.1811 -0.4359  0.3478
 2919TIP3   OH230171   3.385   0.281  14.864 -0.6483  0.1768 -0.5288
 2919TIP3    H130172   3.441   0.214  14.904 -0.1348  0.2455 -1.1212
 2919TIP3    H230173   3.335   0.234  14.798  0.5547  0.5704 -1.7564
 2920TIP3   OH230174   1.984   4.226  17.147 -0.8941  0.2867 -0.1392
 2920TIP3    H130175   1.949   4.303  17.191  1.5808  0.6635  1.3969
 2920TIP3    H230176   1.963   4.153  17.205  0.2945  0.4421  0.5244
 2921TIP3   OH230177   3.660   3.273  11.858  0.2948 -0.5668  0.6816
 2921TIP3    H130178   3.722   3.262  11.930 -1.6613  0.2798  2.5814
 2921TIP3    H230179   3.576   3.289  11.900 -0.8093  0.7219 -1.7901
 2922TIP3   OH230180   0.149   0.164   5.178 -0.2641  0.1950 -0.6285
 2922TIP3    H130181   0.109   0.244   5.212  2.1433  1.0965  0.3221
 2922TIP3    H230182   0.076   0.105   5.162 -1.8397  0.9050  3.0430
 2923TIP3   OH230183   4.494   4.263   0.240  0.2238  0.0090  0.5625
 2923TIP3    H130184   4.563   4.330   0.241  0.5605 -0.3295  0.5790
 2923TIP3    H230185   4.529   4.195   0.182 -1.1747  0.9307 -1.4703
 2924TIP3   OH230186   0.950   5.016   1.044 -0.0705 -0.1367 -0.1063
 2924TIP3    H130187   0.877   4.958   1.067  0.3364 -0.6570 -0.1328
 2924TIP3    H230188   0.986   4.980   0.964 -1.6391  1.8162 -1.8313
 2925TIP3   OH230189   2.857   3.233  14.934 -0.5295 -0.1501 -0.0821
 2925TIP3    H130190   2.929   3.219  14.996 -0.7390 -3.1129 -0.3313
 2925TIP3    H230191   2.789   3.276  14.986  0.1436 -0.4917  1.1242
 2926TIP3   OH230192   2.078   4.423  12.238  0.0440 -0.1843 -0.6653
 2926TIP3    H130193   2.164   4.444  12.273  0.3472  0.2784 -1.6564
 2926TIP3    H230194   2.045   4.353  12.295  0.2347  0.9655  0.9247
 2927TIP3   OH230195   1.263   5.725   1.383 -0.2826 -0.4598 -0.2263
 2927TIP3    H130196   1.220   5.722   1.469 -2.3969 -0.3981 -1.2381
 2927TIP3    H230197   1.312   5.643   1.378  0.1604 -0.3124  1.1557
 2928TIP3   OH230198   6.660   0.868  16.376 -0.3204 -0.3906  0.1471
 2928TIP3    H130199   6.611   0.788  16.391 -1.0721  0.1197  0.4580
 2928TIP3    H230200   6.597   0.929  16.337  0.3639 -0.1046 -0.5422
 2929TIP3   OH230201   2.892   0.616  16.578  0.2471  0.2757  0.3899
 2929TIP3    H130202   2.893   0.616  16.674 -0.1585  0.9128  0.4033
 2929TIP3    H230203   2.805   0.650  16.555  0.2065 -0.2151 -0.2097
 2930TIP3   OH230204   1.677   1.114  14.955  0.0153  0.0785  0.1420
 2930TIP3    H130205   1.662   1.207  14.943  0.1084  0.1250  0.3849
 2930TIP3    H230206   1.591   1.074  14.944  0.0194  0.1649 -0.2231
 2931TIP3   OH230207   3.360   5.557  15.295 -0.3055  0.0125  0.2648
 2931TIP3    H130208   3.308   5.620  15.245  0.2853  0.1519 -0.1907
 2931TIP3    H230209   3.389   5.493  15.230 -0.3416 -0.3549  0.6074
 2932TIP3   OH230210   2.925   5.823  13.367  0.1509 -0.2063  0.5627
 2932TIP3    H130211   3.018   5.842  13.383 -0.5300  3.3578  1.2474
 2932TIP3    H230212   2.885   5.824  13.454 -0.9516  1.5606  0.0883
 2933TIP3   OH230213   4.608   1.840  14.390  0.1531  0.2666  0.0152
 2933TIP3    H130214   4.551   1.820  14.316  1.6341 -2.0229 -0.6003
 2933TIP3    H230215   4.549   1.879  14.455 -2.2320 -2.2376 -0.4329
 2934TIP3   OH230216   3.939   3.446  14.840 -0.0743 -0.4531 -0.3665
 2934TIP3    H130217   3.871   3.511  14.854 -0.1168 -0.3828 -0.8687
 2934TIP3    H230218   3.945   3.438  14.744  0.7846 -0.2790 -0.3367
 2935TIP3   OH230219   0.463   6.775  14.431  0.0264 -0.1617 -0.3984
 2935TIP3    H130220   0.441   6.696  14.480 -1.5084 -0.0458 -0.8739
 2935TIP3    H230221   0.419   6.845  14.478  0.5011  0.2744 -0.5976
 2936TIP3   OH230222   2.088   5.142  16.083  0.2061  0.3811  0.6251
 2936TIP3    H130223   2.178   5.161  16.109  0.4439  1.2413 -0.7093
 2936TIP3    H230224   2.045   5.227  16.081 -0.8701 -0.0927  1.9380
 2937TIP3   OH230225   2.851   3.497   5.501  0.2491 -0.0957  0.2615
 2937TIP3    H130226   2.911   3.514   5.428 -1.6377  2.1495 -0.9045
 2937TIP3    H230227   2.765   3.488   5.460 -0.6035 -0.6335  2.0677
 2938TIP3   OH230228   6.333   3.806  11.972 -0.0480 -0.0566  0.5139
 2938TIP3    H130229   6.244   3.782  11.944 -0.0794  0.1361  0.4521
 2938TIP3    H230230   6.346   3.894  11.939  1.0741 -0.9428 -1.6210
 2939TIP3   OH230231   1.150   4.989  16.032  0.4599  0.2022 -0.2886
 2939TIP3    H130232   1.101   4.980  16.114  2.5389 -1.8180  0.8396
 2939TIP3    H230233   1.083   5.008  15.967 -1.3205  1.5553  1.7862
 2940TIP3   OH230234   2.728   4.051  13.306  0.5977 -0.0662 -0.0091
 2940TIP3    H130235   2.816   4.013  13.310  1.9329  2.7022 -0.9059
 2940TIP3    H230236   2.739   4.140  13.338 -2.1742 -0.0293  1.0498
 2941TIP3   OH230237   3.805   6.736   3.615 -0.2935 -0.5967 -0.3724
 2941TIP3    H130238   3.901   6.728   3.612 -0.2395 -0.5869  1.0045
 2941TIP3    H230239   3.786   6.814   3.563  0.5952  0.3985  0.7620
 2942TIP3   OH230240   0.257   0.318   2.428  0.3241 -0.9491 -0.2405
 2942TIP3    H130241   0.347   0.291   2.447  0.0191 -0.0928  2.9610
 2942TIP3    H230242   0.205   0.238   2.435  0.5005 -0.9875  0.7319
 2943TIP3   OH230243   3.562   5.693   5.933 -0.5608  0.0082 -0.9120
 2943TIP3    H130244   3.505   5.631   5.889 -0.8727 -0.3638 -0.0043
 2943TIP3    H230245   3.584   5.651   6.017 -0.9177  1.1860 -0.2085
 2944TIP3   OH230246   5.809   2.479  15.089 -0.5458 -0.1999 -0.4006
 2944TIP3    H130247   5.774   2.408  15.035  0.1801 -1.5231  0.7908
 2944TIP3    H230248   5.891   2.503  15.047  1.3830 -3.0324  1.3666
 2945TIP3   OH230249   6.326   0.777   4.881  0.2179  0.3758 -0.6613
 2945TIP3    H130250   6.387   0.851   4.887 -1.6389  1.9947 -0.8367
 2945TIP3    H230251   6.306   0.755   4.972  1.1996 -0.3402 -0.5946
 2946TIP3   OH230252   6.563   2.754  15.751  0.4102 -0.8615 -0.2644
 2946TIP3    H130253   6.622   2.682  15.729 -0.5578 -1.6343 -0.3664
 2946TIP3    H230254   6.529   2.784  15.666  1.6766  0.4997 -0.3370
 2947TIP3   OH230255   5.617   5.772  15.811 -0.5808  0.2578  0.4514
 2947TIP3    H130256   5.625   5.678  15.798 -2.9383 -0.2202  1.7865
 2947TIP3    H230257   5.658   5.811  15.734 -0.7551 -1.9065 -0.8059
 2948TIP3   OH230258   3.626   2.339   4.285  0.0640 -0.6155  0.4020
 2948TIP3    H130259   3.687   2.336   4.359  0.5145  0.4261  0.0980
 2948TIP3    H230260   3.540   2.326   4.325  0.2392  0.5563  1.2299
 2949TIP3   OH230261   4.520   1.199   2.274 -0.7284  0.2120  0.1082
 2949TIP3    H130262   4.584   1.199   2.203 -0.7527 -2.1863  0.0084
 2949TIP3    H230263   4.561   1.146   2.342 -1.2992  1.3341  1.3695
 2950TIP3   OH230264   1.965   4.716  14.738 -0.2528 -0.1411  0.0940
 2950TIP3    H130265   1.883   4.701  14.690 -1.0287  0.9474  0.9941
 2950TIP3    H230266   1.990   4.806  14.714  0.7403 -0.4902 -0.2333
 2951TIP3   OH230267   2.933   2.232  13.561 -0.4669 -0.6535  0.2477
 2951TIP3    H130268   2.984   2.167  13.512 -0.6717 -1.4494  1.0805
 2951TIP3    H230269   2.949   2.211  13.653  0.4557  1.2484  0.5750
 2952TIP3   OH230270   5.153   3.316   1.096 -0.0143 -0.0246 -0.0405
 2952TIP3    H130271   5.185   3.387   1.039  3.7482 -0.1083  1.6869
 2952TIP3    H230272   5.156   3.354   1.184 -1.7223 -1.1811  0.5510
 2953TIP3   OH230273   1.098   6.296  16.846  0.1032  0.7109 -0.0818
 2953TIP3    H130274   1.011   6.257  16.851 -0.0441  1.1115  0.4517
 2953TIP3    H230275   1.097   6.369  16.907  0.8013  0.7518 -0.1009
 2954TIP3   OH230276   0.148   3.023   2.312 -0.0716 -0.0630 -0.3348
 2954TIP3    H130277   0.114   2.945   2.267  0.4452 -1.6621  1.8782
 2954TIP3    H230278   0.092   3.032   2.389 -0.3572  2.0371 -0.7245
 2955TIP3   OH230279   4.574   5.265  12.063 -0.5966 -0.6279 -0.2729
 2955TIP3    H130280   4.651   5.241  12.011 -0.4872 -0.6703 -0.0916
 2955TIP3    H230281   4.509   5.198  12.043 -1.3701  0.5967 -2.1277
 2956TIP3   OH230282   1.410   1.019  14.865 -0.4158 -0.1609 -0.3632
 2956TIP3    H130283   1.450   0.953  14.809 -0.9487  0.0804 -1.0296
 2956TIP3    H230284   1.317   0.997  14.868 -0.2814 -0.6601  1.1047
 2957TIP3   OH230285   4.938   0.409  11.859  0.3185 -0.1446  0.6656
 2957TIP3    H130286   4.949   0.476  11.926  1.6997  0.3074  0.0336
 2957TIP3    H230287   5.005   0.429  11.794 -1.2634 -0.2995 -1.1005
 2958TIP3   OH230288   5.265   3.521  17.000  0.0343 -1.0091  0.0578
 2958TIP3    H130289   5.350   3.556  17.025  0.3204 -0.6175 -1.4226
 2958TIP3    H230290   5.230   3.483  17.082  1.5076 -0.9777  0.7299
 2959TIP3   OH230291   1.773   2.782   0.552 -0.2603  0.0397  0.2339
 2959TIP3    H130292   1.788   2.736   0.469  0.2662 -0.9555  0.8587
 2959TIP3    H230293   1.855   2.827   0.571 -0.3425  0.1724  0.2791
 2960TIP3   OH230294   0.292   0.922  15.780 -0.1813  0.6045  0.5997
 2960TIP3    H130295   0.251   1.005  15.755  1.8485  1.6264  0.4309
 2960TIP3    H230296   0.254   0.858  15.721 -1.3875  1.5054  0.3559
 2961TIP3   OH230297   3.119   4.176  13.440  0.4330  0.0436 -0.0382
 2961TIP3    H130298   3.083   4.104  13.492 -2.7681  0.3488 -1.5909
 2961TIP3    H230299   3.139   4.245  13.504  0.6243 -1.0824  1.1510
 2962TIP3   OH230300   0.823   3.478   1.312  0.6705  0.3624  0.3988
 2962TIP3    H130301   0.763   3.535   1.359 -1.1829  0.0159 -1.4066
 2962TIP3    H230302   0.861   3.533   1.244 -1.8533 -0.6033 -1.9747
 2963TIP3   OH230303   0.782   5.641  16.353 -0.0161  0.5052  0.0923
 2963TIP3    H130304   0.739   5.669  16.272  0.7194  0.4319 -0.3240
 2963TIP3    H230305   0.710   5.633  16.416 -0.2695  3.7374  0.3816
 2964TIP3   OH230306   0.660   3.584   0.462  0.5134 -0.5176 -0.2644
 2964TIP3    H130307   0.637   3.491   0.464 -0.5344 -0.4050 -2.8167
 2964TIP3    H230308   0.756   3.585   0.462  0.7067 -1.3070  3.9040
 2965TIP3   OH230309   4.598   1.650   3.826  0.3293  0.3326  0.4197
 2965TIP3    H130310   4.603   1.608   3.912 -0.5315 -0.4456  0.1013
 2965TIP3    H230311   4.626   1.741   3.843 -0.9435  0.5165  1.7446
 2966TIP3   OH230312   5.560   6.114   6.227 -0.0742 -0.0738  0.4911
 2966TIP3    H130313   5.647   6.089   6.196 -0.6090  0.3467 -1.5043
 2966TIP3    H230314   5.541   6.052   6.297  1.9849  0.0889  1.2670
 2967TIP3   OH230315   3.621   6.123   1.887 -0.2500 -0.4351 -0.3215
 2967TIP3    H130316   3.586   6.037   1.863  1.4933 -1.2147 -0.2430
 2967TIP3    H230317   3.655   6.112   1.976 -0.9473  0.6497  0.0987
 2968TIP3   OH230318   5.064   4.303   1.456  0.2132  0.2600 -0.4566
 2968TIP3    H130319   5.058   4.395   1.482  0.2778  0.1299  0.0297
 2968TIP3    H230320   5.118   4.304   1.377  1.0176  0.5459  0.0820
 2969TIP3   OH230321   2.600   2.822  13.439  0.5024  0.4465 -0.4953
 2969TIP3    H130322   2.634   2.762  13.373 -1.9997 -0.3747 -1.1193
 2969TIP3    H230323   2.622   2.781  13.523  0.4977 -0.3551 -0.8781
 2970TIP3   OH230324   1.413   3.905   0.336  0.0103 -0.5415 -0.1178
 2970TIP3    H130325   1.337   3.948   0.296  0.7995 -0.2710 -1.3611
 2970TIP3    H230326   1.404   3.813   0.313  0.0841 -0.5037 -0.2943
 2971TIP3   OH230327   1.614   6.272   3.158  0.0714 -0.4507 -0.2898
 2971TIP3    H130328   1.702   6.273   3.120  0.4989 -1.8137  0.6230
 2971TIP3    H230329   1.626   6.301   3.248 -0.3510 -1.0125 -0.0464
 2972TIP3   OH230330   1.171   2.269   1.149 -0.7418 -0.4060  0.5090
 2972TIP3    H130331   1.112   2.245   1.078 -0.6315 -0.4389  0.4288
 2972TIP3    H230332   1.195   2.185   1.189 -0.3152 -0.4345  0.1965
 2973TIP3   OH230333   1.882   3.486  14.835  0.3880 -0.0052  0.0529
 2973TIP3    H130334   1.829   3.537  14.896 -1.2431 -0.8608 -0.5709
 2973TIP3    H230335   1.905   3.547  14.766  0.0102  0.3394  0.2255
 2974TIP3   OH230336   5.205   2.509   5.394  0.0389 -0.0632 -0.1762
 2974TIP3    H130337   5.126   2.553   5.426 -0.0808 -0.3716 -0.0450
 2974TIP3    H230338   5.252   2.577   5.346 -0.7727 -0.1204 -1.0769
 2975TIP3   OH230339   2.515   2.714  12.403  0.2141  0.2266 -0.3632
 2975TIP3    H130340   2.467   2.791  12.433 -1.1700 -0.8501  0.3434
 2975TIP3    H230341   2.491   2.645  12.466 -0.3325 -1.3323 -2.1813
 2976TIP3   OH230342   6.772   3.661  10.641  0.0970 -0.4361  0.0700
 2976TIP3    H130343   6.850   3.608  10.622  0.5971 -0.3768  1.7880
 2976TIP3    H230344   6.703   3.597  10.656  0.6093 -0.6373  1.7546
 2977TIP3   OH230345   3.563   3.110  10.807  0.6474  0.2963  0.2552
 2977TIP3    H130346   3.480   3.145  10.775  1.7105  1.2144 -1.6708
 2977TIP3    H230347   3.543   3.079  10.896 -2.4287 -2.2516 -1.1392
 2978TIP3   OH230348   3.308   0.166   1.820 -0.3518 -0.0330 -0.0793
 2978TIP3    H130349   3.327   0.116   1.900 -0.9669  3.0619  2.2037
 2978TIP3    H230350   3.389   0.216   1.804 -1.6920  2.9624  1.6247
 2979TIP3   OH230351   2.690   6.390   1.754  0.2894 -0.9493 -0.1034
 2979TIP3    H130352   2.608   6.381   1.706  0.8655 -2.6720 -0.8415
 2979TIP3    H230353   2.745   6.443   1.696 -0.2552  0.1683  0.3717
 2980TIP3   OH230354   0.076   4.830  15.741  0.1226 -0.5854  0.4476
 2980TIP3    H130355   0.103   4.789  15.658  1.1061  0.0260  0.4535
 2980TIP3    H230356   0.027   4.762  15.786 -1.2311 -0.6489 -1.0303
 2981TIP3   OH230357   4.596   5.088   2.221 -0.1588  0.0500 -0.5426
 2981TIP3    H130358   4.631   5.134   2.144  0.0545  0.1726 -0.3718
 2981TIP3    H230359   4.670   5.080   2.280 -0.7693  1.6849  0.4839
 2982TIP3   OH230360   1.529   6.095   4.022  0.3169 -0.3906  0.3149
 2982TIP3    H130361   1.497   6.078   4.111  1.9224 -1.1566  0.7885
 2982TIP3    H230362   1.482   6.174   3.995 -0.8515 -0.6325  1.4994
 2983TIP3   OH230363   4.697   1.731  14.072 -0.1813 -0.6208 -0.0534
 2983TIP3    H130364   4.747   1.807  14.042  0.0175 -0.4873  0.5883
 2983TIP3    H230365   4.608   1.764  14.084  0.1085 -0.2176  1.1743
 2984TIP3   OH230366   0.332   1.284  13.556 -0.1776  0.0955 -0.1710
 2984TIP3    H130367   0.276   1.267  13.632 -0.9517 -0.6835 -0.8897
 2984TIP3    H230368   0.418   1.253  13.583 -0.6774 -1.1894  0.0290
 2985TIP3   OH230369   6.523   5.617   5.641 -0.0265 -0.2404  0.0848
 2985TIP3    H130370   6.541   5.709   5.625 -0.2478 -0.2525 -0.2384
 2985TIP3    H230371   6.527   5.608   5.737 -1.0365  0.3113  0.1869
 2986TIP3   OH230372   5.424   1.102   3.493  0.0122 -0.7301  0.1571
 2986TIP3    H130373   5.335   1.124   3.521  0.4089  1.2505 -0.0453
 2986TIP3    H230374   5.412   1.031   3.430 -1.4140 -0.5588  0.2042
 2987TIP3   OH230375   4.531   3.006  14.856 -0.1813  0.2624  0.2916
 2987TIP3    H130376   4.572   3.082  14.898 -0.0242 -0.9295  2.4642
 2987TIP3    H230377   4.565   2.931  14.904 -1.2173 -1.1158 -1.0343
 2988TIP3   OH230378   4.081   5.941  14.280  0.3932  0.4792  0.3319
 2988TIP3    H130379   4.071   5.914  14.188 -1.3055  4.1700 -0.7559
 2988TIP3    H230380   4.169   5.981  14.283 -0.5974  2.9422 -0.6041
 2989TIP3   OH230381   5.274   5.363   0.809 -0.1075 -0.8176  0.0300
 2989TIP3    H130382   5.214   5.336   0.739 -1.2018 -1.1822  1.0690
 2989TIP3    H230383   5.258   5.456   0.821 -0.1153 -0.8120 -0.0253
 2990TIP3   OH230384   3.350   1.549   2.468  0.1895  0.5068 -0.3976
 2990TIP3    H130385   3.323   1.598   2.391 -1.1168  1.0480  0.3749
 2990TIP3    H230386   3.416   1.605   2.510 -1.6056  1.9188  0.7205
 2991TIP3   OH230387   2.553   4.800  14.260  0.1090  0.7072 -0.1242
 2991TIP3    H130388   2.617   4.834  14.323 -1.2058  3.4387 -0.1567
 2991TIP3    H230389   2.469   4.803  14.305 -0.3448 -1.0417 -0.7335
 2992TIP3   OH230390   2.337   2.681   0.119  0.0008 -0.0297 -0.2168
 2992TIP3    H130391   2.296   2.603   0.082 -0.5547 -0.2513  0.8525
 2992TIP3    H230392   2.381   2.651   0.198 -1.0398  0.9060  0.7375
 2993TIP3   OH230393   0.595   2.014  12.865  0.5931 -0.6712 -0.4068
 2993TIP3    H130394   0.672   2.067  12.843  0.0487  0.0708 -0.5480
 2993TIP3    H230395   0.555   1.993  12.781 -0.9228  1.3163 -0.2460
 2994TIP3   OH230396   2.336   2.843  16.301  0.0719  0.9005  0.0664
 2994TIP3    H130397   2.361   2.771  16.360 -1.2218  0.2296 -0.1759
 2994TIP3    H230398   2.321   2.801  16.217 -0.4904  1.4956 -0.1362
 2995TIP3   OH230399   6.485   0.453  11.443 -0.2981  0.3402  0.3015
 2995TIP3    H130400   6.401   0.497  11.455 -0.0004  0.6267  1.3730
 2995TIP3    H230401   6.518   0.439  11.532  0.5553 -0.2247 -0.0933
 2996TIP3   OH230402   6.511   5.777   4.301  0.1589 -0.2461 -0.4233
 2996TIP3    H130403   6.475   5.723   4.230 -0.2654  0.5024 -0.7794
 2996TIP3    H230404   6.606   5.772   4.289  0.1687 -1.5646  0.0321
 2997TIP3   OH230405   3.780   0.828  15.988 -0.3856  0.1705 -0.0600
 2997TIP3    H130406   3.860   0.817  15.935 -0.3956 -1.1640  0.1675
 2997TIP3    H230407   3.718   0.869  15.928  0.3121  0.7839 -0.3881
 2998TIP3   OH230408   0.790   6.660  16.824 -0.1873 -0.2742 -0.5903
 2998TIP3    H130409   0.817   6.710  16.747 -0.4414 -0.9126 -1.0940
 2998TIP3    H230410   0.758   6.727  16.885 -0.4967  0.1874 -1.2468
 2999TIP3   OH230411   1.490   0.397   1.372 -0.4410  0.5406 -0.0546
 2999TIP3    H130412   1.425   0.328   1.383 -0.1103  0.3549  0.9010
 2999TIP3    H230413   1.574   0.350   1.375 -0.2632  0.6816 -2.0195
 3000TIP3   OH230414   6.515   0.004   2.170 -0.1140 -0.5331  0.1774
 3000TIP3    H130415   6.471  -0.073   2.135  0.7387 -0.7426 -0.4495
 3000TIP3    H230416   6.601   0.005   2.128  0.4837 -0.1172  1.3575
 3001TIP3   OH230417   5.230   3.242  13.860  0.0697 -0.5229  0.2807
 3001TIP3    H130418   5.308   3.276  13.816 -0.2053  0.6668  0.6614
 3001TIP3    H230419   5.260   3.221  13.949 -0.0053 -0.1829  0.3892
 3002TIP3   OH230420   3.794   2.729   2.110 -0.0221  0.5642  0.8920
 3002TIP3    H130421   3.781   2.636   2.093  0.9187  0.4344  0.8247
 3002TIP3    H230422   3.830   2.763   2.028  1.2758  0.6246  1.4553
 3003TIP3   OH230423   5.224   6.129  16.319 -0.3097  0.0779 -0.5103
 3003TIP3    H130424   5.130   6.131  16.304 -0.5024  0.1549  0.6006
 3003TIP3    H230425   5.239   6.049  16.369  0.0952  0.4481 -0.0194
 3004TIP3   OH230426   6.217   3.632  11.411 -0.2768 -0.1230 -0.1946
 3004TIP3    H130427   6.310   3.607  11.414 -0.8021 -2.3688 -0.7443
 3004TIP3    H230428   6.202   3.657  11.320  0.0013  1.3420  0.1314
 3005TIP3   OH230429   0.620   5.743  13.730 -0.2559  0.4736 -0.1012
 3005TIP3    H130430   0.709   5.732  13.764 -0.0396 -1.8218 -1.2680
 3005TIP3    H230431   0.588   5.822  13.775  2.0541  0.9176  0.9460
 3006TIP3   OH230432   3.234   6.439  13.308 -0.1652  0.3702 -0.0977
 3006TIP3    H130433   3.247   6.494  13.231  3.1659  0.2696  0.2600
 3006TIP3    H230434   3.292   6.475  13.374 -1.2343 -0.9318  1.6481
 3007TIP3   OH230435   0.171   2.035   1.505  0.5733  0.4027  0.5074
 3007TIP3    H130436   0.144   2.048   1.596 -0.2165 -0.7833  0.4679
 3007TIP3    H230437   0.127   1.954   1.478 -1.4956  2.1667 -1.8173
 3008TIP3   OH230438   4.534   6.404  11.628  0.5283  0.2091 -0.6750
 3008TIP3    H130439   4.478   6.404  11.551 -0.4352  0.1700  0.0115
 3008TIP3    H230440   4.549   6.497  11.647 -0.4276  0.2474 -0.0683
 3009TIP3   OH230441   4.893   1.657   3.024  0.3608 -0.0234  0.7618
 3009TIP3    H130442   4.806   1.694   3.038  0.4433  1.2266 -1.4851
 3009TIP3    H230443   4.953   1.718   3.067  0.2036 -0.1232  1.1181
 3010TIP3   OH230444   6.117   4.874   5.375  0.5481 -0.0026  0.1305
 3010TIP3    H130445   6.123   4.938   5.304 -0.2930 -0.0466  0.0158
 3010TIP3    H230446   6.206   4.841   5.384  0.3515 -1.4094 -2.2258
 3011TIP3   OH230447   5.110   3.261  10.874 -0.0776 -0.0959 -0.2186
 3011TIP3    H130448   5.117   3.229  10.964 -0.9015 -0.8400 -0.4137
 3011TIP3    H230449   5.017   3.279  10.862  0.2823  2.0766 -0.2354
 3012TIP3   OH230450   4.896   1.688   3.352 -0.1084 -0.5022  0.1373
 3012TIP3    H130451   4.886   1.671   3.446  3.5779  0.3544  0.8509
 3012TIP3    H230452   4.826   1.749   3.331  0.0237  0.7323  2.8338
 3013TIP3   OH230453   0.341   1.708  14.093 -0.8197 -0.1267  0.9183
 3013TIP3    H130454   0.262   1.748  14.129 -1.2721  1.3607 -1.5179
 3013TIP3    H230455   0.309   1.641  14.032 -0.3915  1.7689 -1.5470
 3014TIP3   OH230456   1.328   2.996  15.714  0.3990 -0.5378  0.4564
 3014TIP3    H130457   1.264   3.061  15.743 -0.1806 -0.8366 -0.1213
 3014TIP3    H230458   1.327   3.001  15.618  0.2337 -1.4809  0.3932
 3015TIP3   OH230459   5.443   5.658  12.092  0.5087  0.7479 -0.6353
 3015TIP3    H130460   5.358   5.698  12.075  1.3465  2.9318 -0.0369
 3015TIP3    H230461   5.472   5.626  12.007 -0.6875  0.4147 -0.9282
 3016TIP3   OH230462   4.696   3.503   0.847 -0.4333  0.0384 -0.2525
 3016TIP3    H130463   4.669   3.566   0.779 -0.5552  1.7813  1.3168
 3016TIP3    H230464   4.790   3.515   0.855 -0.6102  0.9440  0.8513
 3017TIP3   OH230465   0.517   1.242   0.574 -0.7336  0.1767 -0.5709
 3017TIP3    H130466   0.488   1.271   0.488 -0.0947 -0.7446 -1.1200
 3017TIP3    H230467   0.534   1.322   0.623 -0.5929  0.7088 -1.4807
 3018TIP3   OH230468   4.861   2.739   2.358 -0.1005  0.0944  0.8015
 3018TIP3    H130469   4.839   2.832   2.354  0.8497  0.2912 -1.7651
 3018TIP3    H230470   4.782   2.695   2.327  0.5064  0.3286 -1.2427
 3019TIP3   OH230471   2.452   5.234   0.364  0.6124 -0.1200  0.5159
 3019TIP3    H130472   2.480   5.144   0.374 -1.7710 -0.8745  1.1307
 3019TIP3    H230473   2.459   5.272   0.451  0.1621 -0.2000  0.5917
 3020TIP3   OH230474   0.535   4.523  14.193 -0.8784 -0.2122  0.3248
 3020TIP3    H130475   0.475   4.512  14.267 -0.1874  1.8853  1.2921
 3020TIP3    H230476   0.605   4.460  14.209 -0.1185  1.0083  2.2021
 3021TIP3   OH230477   6.507   0.807  14.069  0.5397  0.0694 -0.0549
 3021TIP3    H130478   6.544   0.852  14.146  1.5694  0.4342 -0.7428
 3021TIP3    H230479   6.415   0.834  14.068 -0.2457 -2.0704  2.5800
 3022TIP3   OH230480   4.632   2.883  11.776 -0.2924  0.0980  0.1272
 3022TIP3    H130481   4.574   2.958  11.785 -0.4136  0.0087  0.0903
 3022TIP3    H230482   4.644   2.873  11.682  0.7431  0.8538  0.1682
 3023TIP3   OH230483   3.923   2.923  14.215  0.3000  0.3958  0.4358
 3023TIP3    H130484   3.880   2.897  14.133 -2.1868 -0.2597  1.8314
 3023TIP3    H230485   3.881   3.005  14.240  0.4528  0.1923  1.4280
 3024TIP3   OH230486   3.814   2.123   2.130  0.5997 -0.1283  0.3321
 3024TIP3    H130487   3.791   2.215   2.138  1.1071  0.0258  0.0490
 3024TIP3    H230488   3.754   2.078   2.190 -0.4848  0.2377 -0.4429
 3025TIP3   OH230489   3.498   4.832  11.750  0.2395  0.7146  0.4959
 3025TIP3    H130490   3.443   4.778  11.694  3.6123 -0.9682 -1.4997
 3025TIP3    H230491   3.506   4.915  11.703  0.9212  0.2673 -0.1895
 3026TIP3   OH230492   3.851   1.528   1.117  0.2706 -0.0076 -0.4994
 3026TIP3    H130493   3.846   1.601   1.179  0.6826 -1.3903  1.2512
 3026TIP3    H230494   3.760   1.506   1.098  0.1032 -0.3005  0.5628
 3027TIP3   OH230495   2.430   1.150  10.701  0.2950 -0.2833 -0.4556
 3027TIP3    H130496   2.492   1.224  10.699  1.0981 -0.9539 -1.6901
 3027TIP3    H230497   2.486   1.074  10.715 -0.4448 -0.7524 -0.0109
 3028TIP3   OH230498   0.342   0.320   4.738  0.1559  0.1140 -0.6075
 3028TIP3    H130499   0.332   0.272   4.820  1.1282  0.0758 -0.4912
 3028TIP3    H230500   0.433   0.350   4.740 -0.1903  1.2251 -1.0769
 3029TIP3   OH230501   0.132   1.597   0.476  0.1350  0.5067 -0.4839
 3029TIP3    H130502   0.052   1.556   0.443  0.4954 -3.7727  3.0482
 3029TIP3    H230503   0.203   1.543   0.441  0.9907  0.5121  1.1620
 3030TIP3   OH230504   2.078   1.074  12.548 -0.4404  0.1027 -0.1821
 3030TIP3    H130505   2.010   1.085  12.615  2.7899 -1.4210  3.7219
 3030TIP3    H230506   2.063   0.987  12.512 -0.1944 -0.5541  1.2340
 3031TIP3   OH230507   3.111   2.637   0.954  0.3187 -0.0617  0.1108
 3031TIP3    H130508   3.144   2.639   1.044  0.7621 -0.9689 -0.0257
 3031TIP3    H230509   3.059   2.557   0.949 -0.4844  0.4705 -0.1767
 3032TIP3   OH230510   0.527   4.578  12.606  0.3674 -0.0642  0.1085
 3032TIP3    H130511   0.541   4.495  12.560 -1.2045 -0.2318 -0.1340
 3032TIP3    H230512   0.443   4.610  12.573  1.3159  2.0675 -0.4040
 3033TIP3   OH230513   2.805   0.550  13.165 -0.0670  0.7439  0.1055
 3033TIP3    H130514   2.709   0.552  13.158 -0.2440  0.7839  2.1415
 3033TIP3    H230515   2.823   0.528  13.256  1.8876  0.1039 -0.3796
 3034TIP3   OH230516   0.739   3.837   5.774  0.0077  0.4331  0.0623
 3034TIP3    H130517   0.770   3.877   5.855  0.4912 -0.5407  0.3697
 3034TIP3    H230518   0.733   3.744   5.794  2.2034 -0.1515 -1.6099
 3035TIP3   OH230519   2.472   6.707   2.222  0.4955  0.5947  0.3007
 3035TIP3    H130520   2.448   6.787   2.175 -1.2245 -0.1002 -0.0848
 3035TIP3    H230521   2.525   6.658   2.159 -0.3754  0.4270 -0.3308
 3036TIP3   OH230522   2.719   2.780   3.939 -0.0818  0.1207 -0.3550
 3036TIP3    H130523   2.700   2.836   4.014 -0.2774 -1.0602  0.5160
 3036TIP3    H230524   2.808   2.749   3.955 -0.4094 -0.7593 -0.1723
 3037TIP3   OH230525   1.781   3.692  14.989  0.0687 -0.3402 -0.0597
 3037TIP3    H130526   1.784   3.665  15.081 -1.3074 -0.2294  0.0397
 3037TIP3    H230527   1.786   3.788  14.991 -1.9065 -0.2021  0.0612
 3038TIP3   OH230528   0.607   0.355  12.685 -0.0404 -0.2733  0.2641
 3038TIP3    H130529   0.576   0.282  12.632 -1.6364  1.2047 -0.9580
 3038TIP3    H230530   0.551   0.429  12.660 -0.8764  0.5470  3.9863
 3039TIP3   OH230531   2.237   3.498   3.345  0.4079 -0.2634 -0.4296
 3039TIP3    H130532   2.295   3.517   3.419  0.0944 -0.8971 -0.0153
 3039TIP3    H230533   2.282   3.537   3.270  0.3710  1.0535  0.1880
 3040TIP3   OH230534   0.047   6.505   3.309  0.1890 -0.2188  0.2586
 3040TIP3    H130535   0.127   6.458   3.331  1.0108  0.6446 -0.8032
 3040TIP3    H230536   0.044   6.577   3.371 -0.9564 -1.4746  1.7428
 3041TIP3   OH230537   3.225   2.785  12.540 -0.7012  0.3316  0.0171
 3041TIP3    H130538   3.246   2.813  12.451 -0.8185 -1.0216 -0.4664
 3041TIP3    H230539   3.138   2.746  12.532 -1.1583  1.1506  0.9423
 3042TIP3   OH230540   1.162   0.182  16.084  0.2792  0.0457  0.3400
 3042TIP3    H130541   1.087   0.150  16.034 -0.0497 -0.8208  1.3461
 3042TIP3    H230542   1.237   0.134  16.048  0.0300 -0.6531  0.7371
 3043TIP3   OH230543   1.747   5.353  13.675 -0.2581  0.0251  0.3136
 3043TIP3    H130544   1.812   5.421  13.690  0.8163 -1.0460  0.7139
 3043TIP3    H230545   1.794   5.285  13.626  0.3151 -2.7016  4.1659
 3044TIP3   OH230546   1.844   4.063  14.329  0.4380  0.0312  0.0265
 3044TIP3    H130547   1.799   4.141  14.361  1.5518  0.6045  0.2475
 3044TIP3    H230548   1.781   4.021  14.270 -1.1663 -0.3488  1.9036
 3045TIP3   OH230549   2.387   6.073   3.329  0.1608 -0.6567  0.0422
 3045TIP3    H130550   2.318   6.055   3.393  1.0506 -2.3650  0.5701
 3045TIP3    H230551   2.468   6.056   3.376  0.9133  0.0208 -0.9650
 3046TIP3   OH230552   2.371   3.482  12.515  0.2356  0.4620 -0.4506
 3046TIP3    H130553   2.313   3.558  12.527 -2.2973 -1.2699 -0.8490
 3046TIP3    H230554   2.384   3.477  12.420  0.0281  0.1740 -0.4659
 3047TIP3   OH230555   1.195   2.719   4.909 -0.1647 -0.6624  0.1960
 3047TIP3    H130556   1.272   2.769   4.882  0.9952 -1.3348  2.0524
 3047TIP3    H230557   1.145   2.706   4.828  0.7681  1.2918 -0.7453
 3048TIP3   OH230558   4.461   4.373   4.684 -0.5000 -0.2701  0.1425
 3048TIP3    H130559   4.517   4.430   4.738 -1.8167  0.7256  0.4925
 3048TIP3    H230560   4.523   4.319   4.635  0.7768  0.8508  0.4596
 3049TIP3   OH230561   3.298   4.298   4.644 -0.1561  0.0929 -0.5046
 3049TIP3    H130562   3.295   4.316   4.738 -0.3765 -0.4519 -0.4103
 3049TIP3    H230563   3.362   4.362   4.611  0.9839 -0.6201  0.2258
 3050TIP3   OH230564   2.474   3.966   1.344 -0.4002 -0.2472  0.0475
 3050TIP3    H130565   2.390   3.997   1.309  0.5768  2.2053 -0.3199
 3050TIP3    H230566   2.539   3.995   1.279  0.9380 -0.1171  1.3904
 3051TIP3   OH230567   0.541   5.166   1.902  0.5159 -0.4140 -0.4162
 3051TIP3    H130568   0.609   5.118   1.950  1.9449  2.0690  0.2508
 3051TIP3    H230569   0.524   5.113   1.824  1.9620 -1.9680  0.2533
 3052TIP3   OH230570   3.709   0.868  15.571 -0.2714  0.0350 -0.0405
 3052TIP3    H130571   3.649   0.850  15.498 -0.5642 -0.9817  0.4301
 3052TIP3    H230572   3.653   0.874  15.648 -0.0451  1.9116  0.0055
 3053TIP3   OH230573   1.266   1.560  16.073  0.4695 -0.2137  0.4207
 3053TIP3    H130574   1.294   1.469  16.066 -0.4228 -0.4774  0.1033
 3053TIP3    H230575   1.296   1.600  15.991  0.7160 -0.2604  0.4875
 3054TIP3   OH230576   4.106   5.301   3.298  0.1942  0.0688 -0.0272
 3054TIP3    H130577   4.033   5.336   3.350  0.6996  1.0424  0.0496
 3054TIP3    H230578   4.104   5.352   3.217  0.4869 -0.2522 -0.2356
 3055TIP3   OH230579   5.833   0.582  13.078 -0.0459  0.5308  0.3171
 3055TIP3    H130580   5.790   0.662  13.109 -0.2097 -0.1410  1.9293
 3055TIP3    H230581   5.794   0.565  12.993 -1.4966  1.0615  0.8505
 3056TIP3   OH230582   1.784   1.310   0.245 -0.2454 -0.0918 -0.1904
 3056TIP3    H130583   1.719   1.240   0.237 -0.5432  0.2460 -0.8153
 3056TIP3    H230584   1.733   1.391   0.236  0.0793  0.2135  0.6242
 3057TIP3   OH230585   4.683   6.730  16.570  0.0672 -0.3108 -0.8702
 3057TIP3    H130586   4.625   6.672  16.620  0.8928 -0.4301 -0.0225
 3057TIP3    H230587   4.625   6.774  16.507 -1.2407  0.8690  1.0765
 3058TIP3   OH230588   5.875   0.538  15.894  0.2124 -0.0538 -0.5500
 3058TIP3    H130589   5.903   0.628  15.880 -1.1735  0.4217 -0.4839
 3058TIP3    H230590   5.790   0.547  15.938 -0.1628 -1.3814 -0.9665
 3059TIP3   OH230591   4.322   4.593  14.562 -0.2730 -0.3475 -0.1509
 3059TIP3    H130592   4.283   4.508  14.541 -0.5415  0.0603 -1.3624
 3059TIP3    H230593   4.269   4.656  14.513  1.2886  0.3150 -1.0439
 3060TIP3   OH230594   3.464   3.191   3.101  0.2415 -0.4127  0.3624
 3060TIP3    H130595   3.512   3.234   3.172 -1.2817 -1.1147  1.9265
 3060TIP3    H230596   3.502   3.103   3.096  2.2719  0.5075 -1.7279
 3061TIP3   OH230597   3.800   2.373   4.518 -0.0133 -0.1949 -0.2208
 3061TIP3    H130598   3.732   2.348   4.580  1.6151 -0.7169  1.4550
 3061TIP3    H230599   3.822   2.463   4.542  0.5522 -0.3624 -0.0918
 3062TIP3   OH230600   3.481   6.299   5.555 -0.4782 -0.3258 -0.2654
 3062TIP3    H130601   3.471   6.224   5.498 -1.4138 -0.3624 -0.0597
 3062TIP3    H230602   3.574   6.322   5.549 -0.2106 -1.4308 -0.3966
 3063TIP3   OH230603   6.127   3.923   5.576  0.1967  0.5146  0.4471
 3063TIP3    H130604   6.185   3.996   5.598  3.7138 -1.7686 -0.2559
 3063TIP3    H230605   6.099   3.940   5.486  0.8545  1.0987  0.3470
 3064TIP3   OH230606   6.493   1.574  16.303 -0.0257 -0.0692  0.2173
 3064TIP3    H130607   6.460   1.663  16.292 -2.9813 -1.2467 -1.6961
 3064TIP3    H230608   6.549   1.559  16.227  0.5216  0.1300  0.5719
 3065TIP3   OH230609   2.145   1.965  16.919  0.1059 -0.0730 -0.4424
 3065TIP3    H130610   2.062   1.969  16.872 -1.1110  1.2875  1.6516
 3065TIP3    H230611   2.119   1.959  17.012  2.3624 -0.7955  0.2077
 3066TIP3   OH230612   0.886   6.009  16.786  0.1261  0.1053  0.0078
 3066TIP3    H130613   0.791   6.023  16.789 -0.1653 -1.3743 -0.9673
 3066TIP3    H230614   0.902   5.976  16.698  1.5468  0.2290  0.2021
 3067TIP3   OH230615   0.497   1.500   1.865 -0.3018  0.1570  0.3673
 3067TIP3    H130616   0.467   1.424   1.816 -0.3809  0.5581 -0.2148
 3067TIP3    H230617   0.423   1.561   1.863  0.2447  0.8129 -0.3721
 3068TIP3   OH230618   0.973   2.782  14.696  0.0300  0.6751  0.0399
 3068TIP3    H130619   0.935   2.847  14.637  0.6218  1.5973  0.6486
 3068TIP3    H230620   1.065   2.777  14.670  0.4201  1.4733  1.1907
 3069TIP3   OH230621   4.912   5.585  17.112 -0.0797 -0.8329  0.0851
 3069TIP3    H130622   4.925   5.517  17.046  1.2912  0.6360 -1.2620
 3069TIP3    H230623   5.001   5.610  17.138 -0.4318  1.7613 -0.9117
 3070TIP3   OH230624   3.617   3.595  15.330 -0.3105  0.3789  0.0488
 3070TIP3    H130625   3.563   3.674  15.336 -1.4276 -0.4300  0.7728
 3070TIP3    H230626   3.557   3.526  15.303  0.2816 -0.6004  1.1599
 3071TIP3   OH230627   2.309   6.197   4.067  0.1330 -0.0727  0.0340
 3071TIP3    H130628   2.264   6.113   4.078  0.3083 -0.2965 -0.9036
 3071TIP3    H230629   2.254   6.259   4.115 -0.7780 -0.4833 -0.4408
 3072TIP3   OH230630   6.540   3.342   3.074  0.2609 -0.3222  0.4511
 3072TIP3    H130631   6.570   3.308   3.158 -0.5992  0.6098  1.1736
 3072TIP3    H230632   6.447   3.320   3.071  0.0298  0.6406  0.2676
 3073TIP3   OH230633   1.503   1.587  15.569 -0.1794  0.0271 -0.2308
 3073TIP3    H130634   1.410   1.610  15.564 -0.1244  0.2956 -0.0280
 3073TIP3    H230635   1.506   1.505  15.618 -0.2425  0.4401  0.4659
 3074TIP3   OH230636   5.814   3.711   4.626  0.2603 -0.3946 -0.0324
 3074TIP3    H130637   5.753   3.778   4.595  0.7310 -0.9316 -2.3098
 3074TIP3    H230638   5.759   3.636   4.648  0.0270 -0.9539 -2.2739
 3075TIP3   OH230639   3.406   4.083  14.585 -0.0791 -0.2457 -0.1705
 3075TIP3    H130640   3.477   4.026  14.616 -2.4127 -1.7257  2.9317
 3075TIP3    H230641   3.384   4.137  14.661 -0.7171  2.0056 -1.8251
 3076TIP3   OH230642   4.690   3.180   4.681 -0.2981 -0.2370 -0.1875
 3076TIP3    H130643   4.607   3.137   4.660 -0.1307 -0.6011 -0.1109
 3076TIP3    H230644   4.678   3.212   4.771 -0.1226 -0.8695  0.0654
 3077TIP3   OH230645   2.418   0.223  11.631 -0.6805  0.2906  0.4701
 3077TIP3    H130646   2.445   0.259  11.547  1.6611  1.4260  1.6244
 3077TIP3    H230647   2.356   0.287  11.667  0.9217  1.5795  1.0463
 3078TIP3   OH230648   4.233   6.185  11.591  0.0431  0.0999  0.7088
 3078TIP3    H130649   4.272   6.098  11.588 -1.1999 -0.4640 -1.5814
 3078TIP3    H230650   4.289   6.239  11.536 -1.0230 -0.1524 -0.6911
 3079TIP3   OH230651   2.172   3.688  14.547 -0.5781  0.2772 -0.4678
 3079TIP3    H130652   2.088   3.727  14.571 -0.1448  0.2917  1.1427
 3079TIP3    H230653   2.199   3.735  14.469 -1.1432  1.6177  0.1163
 3080TIP3   OH230654   1.552   5.276  14.046 -0.2090  0.3915  0.0689
 3080TIP3    H130655   1.459   5.253  14.035 -0.0161  0.0344 -0.8690
 3080TIP3    H230656   1.599   5.214  13.992  0.4533  1.7411 -0.9637
 3081TIP3   OH230657   3.766   1.237  14.032  0.3418  0.1745  0.1880
 3081TIP3    H130658   3.839   1.231  14.093 -0.3335  0.7442  1.0992
 3081TIP3    H230659   3.711   1.308  14.068 -0.4178  0.0677 -0.7137
 3082TIP3   OH230660   4.265   6.542   5.760 -0.0903  0.3576  0.3641
 3082TIP3    H130661   4.234   6.632   5.764 -1.0276  0.0900 -0.5205
 3082TIP3    H230662   4.300   6.525   5.848 -0.6867  1.2983  0.8050
 3083TIP3   OH230663   3.495   4.970   2.412 -0.7705  0.4070 -0.2436
 3083TIP3    H130664   3.496   4.909   2.486  2.5546  0.3061 -0.2056
 3083TIP3    H230665   3.457   5.051   2.448 -1.6683 -0.4423  0.7822
 3084TIP3   OH230666   4.963   6.554  14.510  0.0267  0.3007  0.1877
 3084TIP3    H130667   4.989   6.562  14.418 -3.2526  0.8723 -0.8148
 3084TIP3    H230668   4.922   6.638  14.531  0.4920  0.0892  2.1547
 3085TIP3   OH230669   4.121   3.500   2.421 -0.0508  0.1423 -0.4516
 3085TIP3    H130670   4.099   3.511   2.513  1.3466 -2.3830  0.2695
 3085TIP3    H230671   4.209   3.536   2.412 -0.1044  0.2003 -0.7664
 3086TIP3   OH230672   2.822   4.286  13.390 -0.5303  0.5495 -0.3316
 3086TIP3    H130673   2.813   4.332  13.307  1.1331 -1.1880 -1.5863
 3086TIP3    H230674   2.916   4.286  13.407 -0.6896 -0.5457  0.6812
 3087TIP3   OH230675   3.814   3.988   1.788 -0.1799  0.0431 -0.2161
 3087TIP3    H130676   3.879   4.040   1.836  1.0500 -0.5846 -1.1303
 3087TIP3    H230677   3.828   4.011   1.696 -1.7388  0.3974 -0.3949
 3088TIP3   OH230678   3.810   2.072  17.082  0.0958  0.1794  0.4146
 3088TIP3    H130679   3.715   2.082  17.073  0.1908  0.2097 -0.6778
 3088TIP3    H230680   3.824   2.059  17.176 -1.0267 -0.2606  0.5333
 3089TIP3   OH230681   4.263   0.904  15.794  0.4394 -0.4343 -0.2616
 3089TIP3    H130682   4.311   0.858  15.725  0.0379  0.0493 -0.8719
 3089TIP3    H230683   4.286   0.997  15.781  0.1440 -0.3085  0.0876
 3090TIP3   OH230684   4.947   3.214  11.137  0.0170  0.0746  0.1968
 3090TIP3    H130685   4.904   3.228  11.052 -0.9474 -0.0127  0.6485
 3090TIP3    H230686   4.893   3.146  11.179  0.1266  0.5391  1.1165
 3091TIP3   OH230687   5.912   6.452  16.462  0.1242  0.1400  0.1297
 3091TIP3    H130688   5.862   6.523  16.422  1.4684  1.6618  1.0813
 3091TIP3    H230689   5.844   6.391  16.493 -1.0816  1.2457 -0.2312
 3092TIP3   OH230690   3.169   2.807  15.422 -0.1794 -0.7524 -0.1824
 3092TIP3    H130691   3.205   2.894  15.406  0.0482 -0.7736  0.2191
 3092TIP3    H230692   3.139   2.809  15.513  2.2156 -1.9121  0.7134
 3093TIP3   OH230693   0.995   3.408  11.041 -0.1177  0.3343  0.4647
 3093TIP3    H130694   1.009   3.325  10.995 -0.2206  0.1072  0.8445
 3093TIP3    H230695   1.036   3.474  10.984  0.7391 -0.0799  0.5905
 3094TIP3   OH230696   1.998   3.483  15.114  0.6497  0.3993 -0.4773
 3094TIP3    H130697   1.926   3.513  15.169  0.4258  1.8877 -1.4882
 3094TIP3    H230698   2.072   3.472  15.174  0.2307  1.2989  0.2351
 3095TIP3   OH230699   0.783   4.289  13.978  0.0963  0.0207 -0.3314
 3095TIP3    H130700   0.695   4.326  13.968 -1.1761 -3.3139 -4.3010
 3095TIP3    H230701   0.768   4.196  13.994  2.8979 -0.5740 -0.6686
 3096TIP3   OH230702   0.297   4.306  12.652 -0.1894  0.2885  0.5506
 3096TIP3    H130703   0.234   4.341  12.589  0.7774  0.4972 -0.3241
 3096TIP3    H230704   0.269   4.215  12.666 -1.4219  0.7440  1.1589
 3097TIP3   OH230705   5.898   1.775   3.313  0.5043  0.2317 -0.0410
 3097TIP3    H130706   5.842   1.793   3.389  0.4233 -0.8551  0.1730
 3097TIP3    H230707   5.837   1.771   3.240  0.0838 -1.9901  0.3380
 3098TIP3   OH230708   3.265   1.486   1.905  0.7077 -0.1381 -0.5460
 3098TIP3    H130709   3.311   1.526   1.831 -1.3029  1.6025 -0.9396
 3098TIP3    H230710   3.177   1.523   1.902  0.4121 -0.3512  2.4590
 3099TIP3   OH230711   1.388   4.728  11.533 -0.5275  0.3559 -0.1014
 3099TIP3    H130712   1.409   4.808  11.485  1.3070  0.0446  0.1110
 3099TIP3    H230713   1.375   4.757  11.623 -1.9425  0.6649 -0.3826
 3100TIP3   OH230714   2.642   6.700  15.571  0.1426 -0.3469 -0.0667
 3100TIP3    H130715   2.727   6.734  15.597 -0.1166  2.4744 -2.3873
 3100TIP3    H230716   2.581   6.730  15.639  0.2564  2.3699 -1.0443
 3101TIP3   OH230717   5.049   3.493  16.658  0.0149 -0.3069  1.0897
 3101TIP3    H130718   5.029   3.456  16.572 -0.1921  0.4089  0.8220
 3101TIP3    H230719   5.092   3.422  16.705 -0.7074 -1.0050  0.7193
 3102TIP3   OH230720   3.222   1.482  16.676  0.4484  0.4415  0.1001
 3102TIP3    H130721   3.309   1.502  16.710  0.7450  0.3652 -0.6044
 3102TIP3    H230722   3.238   1.437  16.593 -0.2110 -1.9247  1.1628
 3103TIP3   OH230723   5.831   0.934   4.220 -0.3483  0.0694 -0.3437
 3103TIP3    H130724   5.824   0.938   4.125  1.9737 -1.3266 -0.6473
 3103TIP3    H230725   5.912   0.980   4.240 -0.6193  0.0293  0.9484
 3104TIP3   OH230726   6.399   3.247   2.362  0.3420 -0.0461 -0.0031
 3104TIP3    H130727   6.454   3.207   2.429  1.1779 -0.4582 -0.9057
 3104TIP3    H230728   6.433   3.212   2.279  0.4462  1.7468 -0.7675
 3105TIP3   OH230729   4.874   0.803   3.278 -0.4914 -0.1814  0.2116
 3105TIP3    H130730   4.870   0.729   3.218 -0.1516 -0.3810  0.4297
 3105TIP3    H230731   4.790   0.802   3.324 -1.2319  0.6573 -1.0508
 3106TIP3   OH230732   3.650   1.333  11.442  0.6830 -0.3032 -0.1332
 3106TIP3    H130733   3.697   1.332  11.525  2.5538 -1.8880 -1.1110
 3106TIP3    H230734   3.666   1.420  11.406 -1.9753  1.2205  2.0219
 3107TIP3   OH230735   4.728   6.779   2.910  0.4444  0.0396 -0.1625
 3107TIP3    H130736   4.647   6.730   2.925  0.5794 -0.2938 -0.5189
 3107TIP3    H230737   4.779   6.765   2.990  0.6337 -0.7056 -0.4040
 3108TIP3   OH230738   2.490   0.484  11.528 -0.2401  0.4124 -0.5913
 3108TIP3    H130739   2.433   0.502  11.453  2.8354  1.4510 -2.8898
 3108TIP3    H230740   2.467   0.551  11.592 -3.5942 -1.0707 -0.0619
 3109TIP3   OH230741   1.750   1.179   3.751  0.6099  0.1057 -0.1094
 3109TIP3    H130742   1.682   1.246   3.752  0.2236 -0.2816  0.1035
 3109TIP3    H230743   1.823   1.219   3.706 -0.2340  0.0683 -1.5845
 3110TIP3   OH230744   6.220   0.921  16.247  1.0489 -0.3804 -0.6861
 3110TIP3    H130745   6.262   0.901  16.331  0.4079 -0.7636 -0.4422
 3110TIP3    H230746   6.220   0.837  16.200  0.0681 -0.5303 -0.4492
 3111TIP3   OH230747   5.114   4.774   0.306 -0.1267  0.3746  0.1045
 3111TIP3    H130748   5.147   4.800   0.220  1.8692 -0.5486  0.5220
 3111TIP3    H230749   5.125   4.853   0.360  2.2379 -0.0990  0.4106
 3112TIP3   OH230750   3.457   5.525   1.574 -0.4971 -0.2176 -0.4945
 3112TIP3    H130751   3.387   5.582   1.607 -0.1150 -0.2056  0.3005
 3112TIP3    H230752   3.538   5.570   1.597 -0.1417 -1.6787  1.3190
 3113TIP3   OH230753   5.570   2.913   5.493 -0.3040 -0.0959  0.2372
 3113TIP3    H130754   5.657   2.911   5.453  0.6434 -0.2936  2.1611
 3113TIP3    H230755   5.510   2.928   5.420  1.3260 -0.0650 -1.1647
 3114TIP3   OH230756   3.676   0.330  11.226 -0.7799 -0.3621  0.3410
 3114TIP3    H130757   3.695   0.371  11.142 -1.6419  0.4660  0.5283
 3114TIP3    H230758   3.761   0.306  11.261 -0.3991 -0.5677 -0.6886
 3115TIP3   OH230759   4.031   5.393   3.823  0.2467 -0.2074  0.5437
 3115TIP3    H130760   4.013   5.319   3.765 -2.0709 -0.3286  1.3268
 3115TIP3    H230761   4.007   5.362   3.910  1.5709  0.7079  1.2733
 3116TIP3   OH230762   4.652   0.709  14.904 -0.8899  0.2806 -0.3944
 3116TIP3    H130763   4.743   0.682  14.921  0.1890  4.2823  1.5881
 3116TIP3    H230764   4.599   0.643  14.948  0.7234 -3.3741 -3.3367
 3117TIP3   OH230765   6.121   2.399   3.753 -0.2605 -0.4493 -0.2913
 3117TIP3    H130766   6.027   2.409   3.735 -0.2649  0.0830 -0.0016
 3117TIP3    H230767   6.154   2.349   3.679 -0.5855  0.2723 -0.9424
 3118TIP3   OH230768   3.676   6.073   5.638 -0.0786 -0.2185  0.3834
 3118TIP3    H130769   3.763   6.097   5.671 -1.2317  1.5504  2.4431
 3118TIP3    H230770   3.637   6.022   5.710 -1.8712  1.8023  0.9383
 3119TIP3   OH230771   4.014   6.616   5.918  0.5178  0.6064  0.1084
 3119TIP3    H130772   3.933   6.617   5.865 -0.0702  1.5476  0.9749
 3119TIP3    H230773   4.057   6.699   5.896 -0.4124  1.6782  2.0520
 3120TIP3   OH230774   6.419   3.084   4.446 -0.2062  0.0228  0.1897
 3120TIP3    H130775   6.390   2.993   4.451 -1.6377  0.4520  0.2979
 3120TIP3    H230776   6.434   3.100   4.353 -0.6165 -0.1409  0.0933
 3121TIP3   OH230777   1.696   5.230  16.055  0.3381  0.1927 -0.1551
 3121TIP3    H130778   1.760   5.213  16.124 -0.4970  0.7534  0.7882
 3121TIP3    H230779   1.661   5.143  16.033  0.6885 -0.0003  0.0543
 3122TIP3   OH230780   5.092   5.852  13.892  0.4529  0.1364  0.0694
 3122TIP3    H130781   5.044   5.788  13.839 -2.3188  0.3683  2.0770
 3122TIP3    H230782   5.104   5.809  13.977 -1.0176  1.9984  1.2951
 3123TIP3   OH230783   4.023   2.823  16.513 -0.5871 -0.0097  0.2694
 3123TIP3    H130784   3.931   2.798  16.516 -0.5300 -0.1783  0.8646
 3123TIP3    H230785   4.027   2.908  16.558 -0.3502 -0.3527  0.9107
 3124TIP3   OH230786   5.193   0.653   4.987 -0.1453 -0.6258 -0.2920
 3124TIP3    H130787   5.238   0.587   5.040  0.6416 -0.8336 -1.1920
 3124TIP3    H230788   5.145   0.603   4.921 -2.7857 -0.4926  1.3806
 3125TIP3   OH230789   0.299   1.185   5.489 -0.2226  0.0292 -0.7474
 3125TIP3    H130790   0.354   1.177   5.410 -1.0160  1.2479 -1.4590
 3125TIP3    H230791   0.354   1.232   5.552 -0.1460  0.4855 -1.1491
 3126TIP3   OH230792   5.691   4.793   1.640 -0.3867 -0.7213 -0.6321
 3126TIP3    H130793   5.614   4.815   1.587  0.1978 -1.0479 -1.6496
 3126TIP3    H230794   5.663   4.809   1.730 -1.8330 -1.3743 -0.9258
 3127TIP3   OH230795   5.902   0.059   0.418 -0.7606  0.2198  0.2480
 3127TIP3    H130796   5.993   0.075   0.444 -0.4583  0.0932 -0.7045
 3127TIP3    H230797   5.907   0.039   0.325 -2.0299  2.6141 -0.4069
 3128TIP3   OH230798   2.388   1.134  12.262 -0.5828  0.4012 -0.5739
 3128TIP3    H130799   2.484   1.141  12.256 -0.4671 -1.0416 -0.7430
 3128TIP3    H230800   2.367   1.170  12.348 -0.0340  1.8798 -1.0245
 3129TIP3   OH230801   4.958   2.033  16.335  0.3860 -0.4784  0.1297
 3129TIP3    H130802   4.949   1.937  16.330  0.8178 -0.4917 -3.6456
 3129TIP3    H230803   4.890   2.060  16.397  0.7476 -3.2322  1.8957
 3130TIP3   OH230804   4.854   0.488  11.103  0.3156  0.0982  0.4560
 3130TIP3    H130805   4.887   0.398  11.101 -0.7939 -0.3405 -2.2217
 3130TIP3    H230806   4.763   0.481  11.077 -0.0759  1.9485  1.1783
 3131TIP3   OH230807   2.506   5.884   1.582  0.0828  0.1817  0.1878
 3131TIP3    H130808   2.504   5.795   1.545 -0.8945 -0.6005  1.9608
 3131TIP3    H230809   2.478   5.872   1.673 -0.5058  2.3916  0.3475
 3132TIP3   OH230810   4.040   0.993  12.695  0.1461  0.6148 -0.4571
 3132TIP3    H130811   4.048   0.999  12.600  0.1649 -0.3040 -0.5227
 3132TIP3    H230812   4.114   1.044  12.728  0.9383 -0.1602 -0.9658
 3133TIP3   OH230813   2.113   3.845  15.589 -0.1441  0.6269  0.4530
 3133TIP3    H130814   2.066   3.896  15.654 -0.5801  1.1942 -0.2953
 3133TIP3    H230815   2.193   3.895  15.572  0.0398  0.4041  0.6640
 3134TIP3   OH230816   0.848   5.363  12.913  0.0016  0.7688  0.2378
 3134TIP3    H130817   0.881   5.381  13.001  0.7412 -0.1813  0.1724
 3134TIP3    H230818   0.920   5.389  12.855 -0.1129  0.4929 -0.0288
 3135TIP3   OH230819   0.517   3.666  13.814  0.0381  0.2633  0.2346
 3135TIP3    H130820   0.609   3.651  13.836 -0.1109 -1.6537 -0.3096
 3135TIP3    H230821   0.511   3.643  13.721 -0.8166  1.3210  0.0088
 3136TIP3   OH230822   3.605   1.332   4.858 -0.2067 -0.3758  0.4621
 3136TIP3    H130823   3.510   1.331   4.848 -0.4317  0.3218  2.1664
 3136TIP3    H230824   3.622   1.402   4.920  1.2704 -1.6156  1.5520
 3137TIP3   OH230825   1.766   4.293   5.507 -0.3067  0.0584  0.2879
 3137TIP3    H130826   1.861   4.280   5.517 -0.0606  1.3136 -0.3104
 3137TIP3    H230827   1.727   4.224   5.561  0.9175 -2.7192 -2.0964
 3138TIP3   OH230828   0.333   3.667   4.303 -0.2781  0.6673  0.1891
 3138TIP3    H130829   0.325   3.711   4.218 -2.1128  2.3988  1.1814
 3138TIP3    H230830   0.259   3.700   4.354 -1.2471 -2.8910  1.3727
 3139TIP3   OH230831   0.564   0.371   2.230 -0.0458  0.0018  0.1256
 3139TIP3    H130832   0.624   0.393   2.158 -0.6559  0.2186 -0.3265
 3139TIP3    H230833   0.599   0.290   2.266 -0.2524 -0.6259 -1.0320
 3140TIP3   OH230834   5.878   5.625   3.954 -0.6187  0.0500 -0.7097
 3140TIP3    H130835   5.823   5.699   3.979 -1.4524 -0.2684 -1.5534
 3140TIP3    H230836   5.935   5.658   3.885 -0.2445  0.1839 -0.3416
 3141TIP3   OH230837   1.239   0.028  16.579  0.0984 -0.3245  0.0850
 3141TIP3    H130838   1.298   0.018  16.653  0.0533  2.5328  0.6232
 3141TIP3    H230839   1.287   0.083  16.517 -1.1046  0.1001 -0.5076
 3142TIP3   OH230840   0.114   3.376  12.954 -0.0118 -0.1414 -0.1131
 3142TIP3    H130841   0.039   3.339  12.907  1.8513 -2.3345 -1.5334
 3142TIP3    H230842   0.111   3.333  13.040 -0.1603 -0.5525 -0.3177
 3143TIP3   OH230843   3.113   3.300  16.338 -1.1240  0.3078 -0.2709
 3143TIP3    H130844   3.206   3.278  16.334 -1.1735  0.0038  0.2949
 3143TIP3    H230845   3.071   3.238  16.278 -1.2527 -1.1253  1.2423
 3144TIP3   OH230846   2.362   5.885   2.496 -0.1782 -0.0387  0.2643
 3144TIP3    H130847   2.348   5.893   2.590  2.3904  1.6820  0.6071
 3144TIP3    H230848   2.379   5.792   2.482 -1.6436 -0.4973  1.2844
 3145TIP3   OH230849   3.558   2.346   4.634 -0.0304  0.4584  0.0285
 3145TIP3    H130850   3.487   2.296   4.676  1.4735 -0.9893  1.0162
 3145TIP3    H230851   3.515   2.420   4.592 -2.0945 -0.2936  0.7136
 3146TIP3   OH230852   5.330   5.148  15.246 -0.3398  0.5807  0.6290
 3146TIP3    H130853   5.357   5.239  15.254  1.3017  0.1627  0.1299
 3146TIP3    H230854   5.384   5.112  15.176 -0.4681 -0.9486  1.2639
 3147TIP3   OH230855   2.367   0.675   5.061 -0.4152 -0.2536 -0.2137
 3147TIP3    H130856   2.318   0.756   5.072  1.4240  0.7623  1.0482
 3147TIP3    H230857   2.377   0.666   4.966 -2.0475  0.0841 -0.4385
 3148TIP3   OH230858   1.026   2.168  10.967 -0.4074  0.7281  0.0907
 3148TIP3    H130859   0.988   2.249  11.000 -0.4300  0.5355  0.5495
 3148TIP3    H230860   0.998   2.163  10.875 -2.1079  0.2266  0.6007
 3149TIP3   OH230861   1.212   2.440  10.364  0.1174 -0.9363  0.6498
 3149TIP3    H130862   1.145   2.372  10.362 -0.4567 -0.3626 -0.5664
 3149TIP3    H230863   1.294   2.393  10.372 -0.2199 -1.8268 -0.7954
 3150TIP3   OH230864   3.239   2.455  12.578 -0.4981 -0.0059 -0.1358
 3150TIP3    H130865   3.200   2.542  12.570 -2.3451 -0.6324  1.2791
 3150TIP3    H230866   3.227   2.432  12.670  2.3308 -0.7305  0.1428
 3151TIP3   OH230867   0.304   1.609   3.358 -0.0329 -0.3111 -0.2502
 3151TIP3    H130868   0.396   1.612   3.333  0.3371  0.2411  1.0702
 3151TIP3    H230869   0.298   1.533   3.416  0.0080  0.6419  1.0652
 3152TIP3   OH230870   4.666   5.930  14.623  0.4304  0.4109  0.0940
 3152TIP3    H130871   4.717   5.864  14.669 -1.0341 -0.1489  0.9957
 3152TIP3    H230872   4.722   5.957  14.550  0.5908 -2.8525 -1.1849
 3153TIP3   OH230873   2.621   0.582  15.186  0.1438 -0.2709  0.0239
 3153TIP3    H130874   2.641   0.518  15.117 -2.6470 -0.8370 -0.3997
 3153TIP3    H230875   2.658   0.664  15.154 -1.7331 -0.3299 -2.6276
 3154TIP3   OH230876   5.232   0.584   3.942 -1.0214 -0.8482 -0.3884
 3154TIP3    H130877   5.151   0.614   3.985 -1.5249 -0.7666 -1.3818
 3154TIP3    H230878   5.257   0.657   3.885  0.7820 -0.1059  1.2290
 3155TIP3   OH230879   0.342   0.058   2.376 -0.0865 -0.1379 -0.5034
 3155TIP3    H130880   0.411   0.027   2.317  0.9916 -0.9053  1.0938
 3155TIP3    H230881   0.261   0.050   2.325  0.7781 -1.0518 -1.7728
 3156TIP3   OH230882   4.237   1.568  12.069 -0.1968  0.2102  0.1002
 3156TIP3    H130883   4.208   1.657  12.051  2.6488  1.6057  1.7485
 3156TIP3    H230884   4.265   1.535  11.983 -2.7170  0.2135 -0.8105
 3157TIP3   OH230885   6.080   5.884  12.463  0.5323  0.0657  0.8352
 3157TIP3    H130886   6.063   5.819  12.395 -1.1656  0.2879  1.0144
 3157TIP3    H230887   6.015   5.866  12.530  1.5268  0.5084  1.9490
 3158TIP3   OH230888   0.213   1.187  14.552  0.3341 -0.1190 -0.8969
 3158TIP3    H130889   0.305   1.186  14.524  0.3715  0.2202 -0.7966
 3158TIP3    H230890   0.163   1.193  14.471  0.4495  1.1403 -0.9029
 3159TIP3   OH230891   6.265   5.642  14.174 -0.0644  0.1699  0.2654
 3159TIP3    H130892   6.223   5.721  14.139  1.3052  0.4007 -0.9352
 3159TIP3    H230893   6.312   5.672  14.252  0.4556  0.5427 -0.1896
 3160TIP3   OH230894   3.389   4.217  11.722  0.6457  0.6653  0.5086
 3160TIP3    H130895   3.427   4.134  11.695  0.0306 -0.0725  1.8005
 3160TIP3    H230896   3.464   4.271  11.746  0.9764 -0.2443  1.5978
 3161TIP3   OH230897   1.829   1.946   1.029  0.2776 -0.4964  0.1097
 3161TIP3    H130898   1.825   1.855   1.000  0.7935 -0.1972 -0.9612
 3161TIP3    H230899   1.888   1.945   1.104  1.6200 -0.8299 -0.9148
 3162TIP3   OH230900   2.530   6.237   4.352  0.7493 -0.1850 -0.3465
 3162TIP3    H130901   2.505   6.144   4.349  1.2292 -0.3454  0.4264
 3162TIP3    H230902   2.529   6.259   4.445 -3.6706  1.8045 -0.6248
 3163TIP3   OH230903   4.528   5.437   0.425 -0.2229  0.2506 -0.3020
 3163TIP3    H130904   4.538   5.412   0.334  1.2391  0.4063 -0.2082
 3163TIP3    H230905   4.487   5.361   0.467  1.1612 -0.7264 -0.6574
 3164TIP3   OH230906   1.917   1.442   4.241 -0.2380  0.1746  0.1544
 3164TIP3    H130907   1.844   1.410   4.188  0.7076 -0.2472 -0.9432
 3164TIP3    H230908   1.931   1.532   4.211  0.0572  0.0588 -0.0681
 3165TIP3   OH230909   0.502   5.594   4.386 -0.2182 -0.2163 -0.1899
 3165TIP3    H130910   0.438   5.641   4.441  1.3036  1.4505  0.2569
 3165TIP3    H230911   0.488   5.629   4.298  0.9294  1.2223  0.1457
 3166TIP3   OH230912   0.310   2.496  13.245 -0.0267  0.1474 -0.1256
 3166TIP3    H130913   0.309   2.589  13.269  0.2318  0.2978 -0.6745
 3166TIP3    H230914   0.387   2.461  13.288 -2.1439 -0.7253  3.3059
 3167TIP3   OH230915   5.460   5.703   1.847  0.0423  0.0352  0.6936
 3167TIP3    H130916   5.553   5.718   1.863  0.5128 -2.0433  0.2597
 3167TIP3    H230917   5.448   5.721   1.754  0.1759 -0.3603  0.5973
 3168TIP3   OH230918   1.057   0.236   1.820 -0.0859  0.3463 -0.0425
 3168TIP3    H130919   1.017   0.189   1.893 -0.7462  1.1172  0.1112
 3168TIP3    H230920   1.088   0.318   1.859 -1.4189  1.2563 -0.8151
 3169TIP3   OH230921   2.598   1.503  15.647  0.2626  0.1563  0.2181
 3169TIP3    H130922   2.516   1.466  15.679  0.4084 -0.5164 -0.1663
 3169TIP3    H230923   2.662   1.432  15.657  0.6780  0.4910  0.0037
 3170TIP3   OH230924   0.679   6.557   3.366  0.2757  0.5347 -0.3718
 3170TIP3    H130925   0.710   6.607   3.291  1.2178 -1.3586 -1.3172
 3170TIP3    H230926   0.597   6.600   3.391  0.4988  1.8774 -1.7878
 3171TIP3   OH230927   5.926   5.503   3.495  0.7885 -0.2090  0.4897
 3171TIP3    H130928   5.987   5.450   3.444  1.3953  0.3355  0.6407
 3171TIP3    H230929   5.892   5.443   3.561 -0.2491 -1.0074 -0.7261
 3172TIP3   OH230930   3.729   6.276  17.007 -0.5893  0.6266 -0.2157
 3172TIP3    H130931   3.742   6.268  16.913 -2.0272 -1.7543 -0.2887
 3172TIP3    H230932   3.815   6.303  17.041  1.4278 -3.1040 -1.7725
 3173TIP3   OH230933   2.117   1.105   1.253 -0.3597  0.1119  0.4297
 3173TIP3    H130934   2.211   1.120   1.263 -0.0963 -1.0260 -0.1560
 3173TIP3    H230935   2.087   1.079   1.340  0.4947 -2.5469  0.0222
 3174TIP3   OH230936   5.633   1.381   2.568  0.7866 -0.2518 -0.1557
 3174TIP3    H130937   5.668   1.466   2.595  0.7050  0.3646 -1.8112
 3174TIP3    H230938   5.709   1.335   2.531  0.6893 -0.6049  0.0878
 3175TIP3   OH230939   0.836   2.479   5.637 -0.5679  0.3489 -0.0471
 3175TIP3    H130940   0.850   2.394   5.679 -0.6531  0.5371  0.3614
 3175TIP3    H230941   0.746   2.502   5.657 -0.2497  1.0099  0.7156
 3176TIP3   OH230942   4.710   2.320   2.439 -0.0734 -0.6059  0.1736
 3176TIP3    H130943   4.788   2.375   2.448 -0.0633 -0.6197  0.1703
 3176TIP3    H230944   4.637   2.378   2.460  0.0196 -0.9356  1.5251
 3177TIP3   OH230945   2.892   3.966  16.052  0.0775 -0.0149 -0.2355
 3177TIP3    H130946   2.882   4.049  16.006  0.9142  1.3428  1.8792
 3177TIP3    H230947   2.804   3.943  16.081 -0.1924  0.0224 -1.0205
 3178TIP3   OH230948   2.686   5.444   1.429  0.2409 -0.6900 -0.1366
 3178TIP3    H130949   2.650   5.398   1.353  0.6098  0.3496 -0.9749
 3178TIP3    H230950   2.725   5.523   1.392  2.5256 -1.2776  0.8374
 3179TIP3   OH230951   2.259   1.081   3.125 -0.3960 -0.0438 -0.4300
 3179TIP3    H130952   2.178   1.129   3.142 -1.2772 -1.5060 -0.3939
 3179TIP3    H230953   2.250   1.049   3.036 -0.7709 -1.9086  0.2439
 3180TIP3   OH230954   4.017   5.289  16.937  0.4288  0.2535  0.1046
 3180TIP3    H130955   4.065   5.207  16.929  0.3072  0.2719 -0.9011
 3180TIP3    H230956   3.925   5.264  16.928  0.4125  0.5390 -0.5940
 3181TIP3   OH230957   3.896   0.447   0.015  1.1711  0.7479 -0.1449
 3181TIP3    H130958   3.800   0.446   0.024  1.1624  1.2743 -0.1250
 3181TIP3    H230959   3.923   0.528   0.059  1.5432  1.0615 -0.9197
 3182TIP3   OH230960   5.702   3.953   2.573 -0.1319 -0.4293  0.7015
 3182TIP3    H130961   5.696   4.037   2.619 -1.4198  0.3247 -0.7459
 3182TIP3    H230962   5.637   3.897   2.615 -1.0489  0.1401  0.0699
 3183TIP3   OH230963   4.648   0.967  14.967 -0.5032 -0.2453  0.0134
 3183TIP3    H130964   4.642   0.872  14.954 -0.4300 -0.2355 -0.0903
 3183TIP3    H230965   4.737   0.990  14.942 -0.8683  0.0272 -1.1240
 3184TIP3   OH230966   1.718   2.182  15.267 -0.6107  0.0299  0.1008
 3184TIP3    H130967   1.751   2.214  15.183  1.2218  0.7154  1.0260
 3184TIP3    H230968   1.763   2.099  15.281 -0.6103  0.1028  0.5669
 3185TIP3   OH230969   1.750   1.049  12.977 -0.1842 -0.0415 -0.1140
 3185TIP3    H130970   1.830   1.064  13.027 -0.5343 -0.4306  0.5898
 3185TIP3    H230971   1.752   1.114  12.907  0.6445  0.0819  0.0163
 3186TIP3   OH230972   5.087   5.470   4.396 -0.5305  0.2327  0.2212
 3186TIP3    H130973   5.126   5.385   4.416 -0.3200  0.9051  3.1104
 3186TIP3    H230974   5.157   5.533   4.411 -0.4670  0.9767 -2.5646
 3187TIP3   OH230975   0.002   5.402  11.874  0.7063 -0.1379 -0.2778
 3187TIP3    H130976  -0.019   5.466  11.942  1.5816  0.1325 -0.2441
 3187TIP3    H230977  -0.011   5.450  11.792 -0.4540 -0.4966 -0.3179
 3188TIP3   OH230978   0.327   2.233  11.085  0.1167  0.3672  0.0651
 3188TIP3    H130979   0.349   2.261  10.996 -1.8390  1.8136 -0.0369
 3188TIP3    H230980   0.330   2.138  11.081 -2.5208  0.2523 -2.3759
 3189TIP3   OH230981   5.251   0.963   5.321 -0.1944 -0.0906 -0.6721
 3189TIP3    H130982   5.176   1.021   5.326 -0.4467 -0.4522 -0.2130
 3189TIP3    H230983   5.275   0.962   5.228 -2.8821 -2.6660 -1.4782
 3190TIP3   OH230984   6.446   2.227   5.482 -0.0045 -0.2663 -0.3714
 3190TIP3    H130985   6.377   2.290   5.503 -0.4507 -0.2716 -1.7012
 3190TIP3    H230986   6.456   2.233   5.387  2.0900 -0.0158 -0.1885
 3191TIP3   OH230987   1.137   2.971  12.506  0.0033  0.3129  0.0068
 3191TIP3    H130988   1.095   2.909  12.445 -2.1847  0.5964  1.1123
 3191TIP3    H230989   1.132   2.927  12.591  1.7465  0.5087  0.2335
 3192TIP3   OH230990   6.283   1.766   1.464  0.1067 -0.4364  0.4857
 3192TIP3    H130991   6.320   1.850   1.490 -0.2152 -0.3893  0.7949
 3192TIP3    H230992   6.345   1.732   1.399 -1.3355  1.4799 -2.0996
 3193TIP3   OH230993   1.103   4.479  11.366  0.3118  0.2345  0.5398
 3193TIP3    H130994   1.170   4.527  11.316  0.8003 -0.8845  0.0890
 3193TIP3    H230995   1.096   4.527  11.449  1.2215  0.7296  0.3449
 3194TIP3   OH230996   1.279   2.199  16.784 -0.3381  0.8922 -0.1405
 3194TIP3    H130997   1.361   2.206  16.736 -0.3018 -1.9873 -0.7204
 3194TIP3    H230998   1.252   2.289  16.800  1.4785  1.9456 -2.4318
 3195TIP3   OH230999   2.148   4.554  14.871 -0.0181 -0.0201 -0.2244
 3195TIP3    H131000   2.075   4.599  14.830 -0.8474  1.0283  2.1940
 3195TIP3    H231001   2.181   4.494  14.804 -1.0810  1.7134 -2.4133
 3196TIP3   OH231002   5.340   4.870   0.618  0.7557 -0.0121 -0.1383
 3196TIP3    H131003   5.289   4.934   0.569  0.3345 -0.6674 -0.5822
 3196TIP3    H231004   5.292   4.857   0.699  1.2421  0.7814  0.2868
 3197TIP3   OH231005   0.589   5.465  13.281  0.1900  0.0849 -0.0716
 3197TIP3    H131006   0.534   5.486  13.206  1.0620 -0.5379 -0.9095
 3197TIP3    H231007   0.557   5.521  13.351 -0.5001  0.8397 -0.9713
 3198TIP3   OH231008   6.138   6.680   4.336  0.9981  0.4291  0.0430
 3198TIP3    H131009   6.043   6.671   4.335  0.9568  0.8747 -0.0851
 3198TIP3    H231010   6.155   6.751   4.399  1.0907  2.1100 -1.7908
 3199TIP3   OH231011   6.741   5.609  12.332  0.4069  0.4815  0.5704
 3199TIP3    H131012   6.723   5.516  12.344  0.3096  0.3545 -0.4394
 3199TIP3    H231013   6.656   5.651  12.343  0.2891  0.3518  0.1888
 3200TIP3   OH231014   0.453   6.381   5.090 -0.5310  0.3921 -0.3928
 3200TIP3    H131015   0.472   6.438   5.165 -0.6217  1.5814 -1.2427
 3200TIP3    H231016   0.358   6.383   5.082 -0.5091  0.4444 -0.6620
 3201TIP3   OH231017   0.891   1.866   1.974 -0.4958  0.6851 -0.2462
 3201TIP3    H131018   0.799   1.884   1.994 -1.1438 -0.2263 -2.1001
 3201TIP3    H231019   0.893   1.856   1.878  1.6769  1.3846 -0.3367
 3202TIP3   OH231020   1.126   2.028   0.209  0.0622  0.6090  0.3409
 3202TIP3    H131021   1.126   2.005   0.116 -0.2028  1.1744  0.1941
 3202TIP3    H231022   1.217   2.049   0.228  0.2928 -0.4426  0.4573
 3203TIP3   OH231023   3.716   1.266   3.011  0.1266 -0.0902 -0.0159
 3203TIP3    H131024   3.650   1.297   2.950 -0.2763 -0.0042  0.4507
 3203TIP3    H231025   3.799   1.298   2.976 -0.0138 -0.6676 -0.9079
 3204TIP3   OH231026   0.754   5.101  12.966  0.3842  0.1154 -0.1499
 3204TIP3    H131027   0.753   5.190  12.930 -1.3235 -0.0601 -0.6020
 3204TIP3    H231028   0.763   5.114  13.060 -1.8048  0.9035  0.0068
 3205TIP3   OH231029   0.166   2.655   3.081 -0.1320  0.3369  0.2612
 3205TIP3    H131030   0.144   2.734   3.130  0.5776  1.0836 -0.5987
 3205TIP3    H231031   0.157   2.680   2.989  0.7483 -0.3897 -0.0351
 3206TIP3   OH231032   1.905   2.922   5.019 -0.2303 -0.5810 -0.1142
 3206TIP3    H131033   1.878   2.893   5.106 -0.2775  0.0417  0.0816
 3206TIP3    H231034   1.875   2.853   4.960 -2.6087  0.2282  0.0321
 3207TIP3   OH231035   6.485   0.144  17.191  0.1540  0.1801  0.8615
 3207TIP3    H131036   6.568   0.179  17.224 -0.0448 -1.2697  3.0590
 3207TIP3    H231037   6.478   0.181  17.102  1.8882  2.3684  1.5305
 3208TIP3   OH231038   0.930   0.776  16.635 -0.3986 -0.7573  0.0115
 3208TIP3    H131039   0.897   0.790  16.546 -1.6296 -0.5123  0.4817
 3208TIP3    H231040   0.951   0.683  16.639 -3.3894 -1.5124  0.3879
 3209TIP3   OH231041   5.364   4.587  13.554 -0.4757  0.3451  0.0393
 3209TIP3    H131042   5.446   4.636  13.550  0.1189 -0.6678 -0.6355
 3209TIP3    H231043   5.387   4.506  13.599 -1.1388  0.1013 -0.0476
 3210TIP3   OH231044   6.051   3.555   5.426  0.0096 -0.1268 -0.0964
 3210TIP3    H131045   6.123   3.584   5.370 -0.4086  0.5154 -0.3079
 3210TIP3    H231046   5.988   3.626   5.423 -0.3749 -0.4314  0.5630
 3211TIP3   OH231047   3.147   2.790  16.671 -0.0146  0.1091  0.3022
 3211TIP3    H131048   3.235   2.784  16.636 -0.2216 -0.6136 -0.1051
 3211TIP3    H231049   3.111   2.870  16.632  0.3190  0.1884  0.1562
 3212TIP3   OH231050   1.424   3.896   0.646  0.2652  0.2138 -0.9828
 3212TIP3    H131051   1.503   3.877   0.596  0.8424 -1.9552  0.6085
 3212TIP3    H231052   1.367   3.821   0.632 -1.3299  1.4817 -1.6363
 3213TIP3   OH231053   5.757   5.386   4.586 -0.3326  0.4654  0.0521
 3213TIP3    H131054   5.714   5.469   4.563 -0.9448  0.0692 -0.2907
 3213TIP3    H231055   5.691   5.319   4.565  1.0531 -0.3175 -2.1941
 3214TIP3   OH231056   1.206   4.418  12.406  0.4072  0.2916 -0.1268
 3214TIP3    H131057   1.146   4.359  12.360  1.7962 -0.2489 -1.3261
 3214TIP3    H231058   1.293   4.385  12.384  1.1570  1.0797  1.5335
 3215TIP3   OH231059   2.560   2.705   6.477  0.2187 -0.6084 -0.0419
 3215TIP3    H131060   2.627   2.767   6.448 -0.5615  1.8871  2.9448
 3215TIP3    H231061   2.596   2.665   6.556 -0.7148 -1.3076  0.0514
 3216TIP3   OH231062   2.343   3.002  12.081  0.7316 -0.5095 -0.3191
 3216TIP3    H131063   2.367   2.910  12.070  0.6266 -0.4637 -1.0246
 3216TIP3    H231064   2.378   3.026  12.166  0.0036 -1.4434  0.2664
 3217TIP3   OH231065   0.271   4.206  15.265  0.1023  0.6599  0.4279
 3217TIP3    H131066   0.297   4.281  15.318  0.7830 -0.2682  1.4590
 3217TIP3    H231067   0.202   4.163  15.315 -1.2289  1.2932 -0.7797
 3218TIP3   OH231068   3.583   4.464  12.246 -0.1281 -0.4405  0.4743
 3218TIP3    H131069   3.500   4.418  12.246 -0.4628  0.1098 -1.0768
 3218TIP3    H231070   3.576   4.527  12.318 -1.2954 -0.0053  0.0020
 3219TIP3   OH231071   4.365   4.075  11.993 -0.5208  0.2800  0.1533
 3219TIP3    H131072   4.414   3.993  11.982 -0.3713  0.2793  0.8279
 3219TIP3    H231073   4.330   4.093  11.905 -1.6134 -1.1737  0.2361
 3220TIP3   OH231074   6.002   6.173   3.155 -0.2036  0.3979  0.1996
 3220TIP3    H131075   6.096   6.175   3.138  0.1845 -0.1180  2.0583
 3220TIP3    H231076   5.963   6.147   3.072  1.1017  2.4208 -1.1448
 3221TIP3   OH231077   5.793   1.085  15.604 -0.3348  0.0829  0.6660
 3221TIP3    H131078   5.880   1.047  15.602 -0.0429  0.7543  0.0727
 3221TIP3    H231079   5.802   1.168  15.556 -1.0781  0.6083  1.4044
 3222TIP3   OH231080   5.191   2.418  11.251 -0.3556 -0.7767 -0.0201
 3222TIP3    H131081   5.194   2.507  11.215 -1.6544 -0.2073  1.2080
 3222TIP3    H231082   5.220   2.362  11.178 -0.1827  0.5785 -1.0317
 3223TIP3   OH231083   2.508   6.649   0.820 -0.3489 -0.1904 -0.2721
 3223TIP3    H131084   2.419   6.614   0.814 -0.2059 -0.7428  0.5649
 3223TIP3    H231085   2.532   6.671   0.730 -0.8822 -1.1847 -0.6710
 3224TIP3   OH231086   6.735   6.060  14.865 -0.3224  0.2036  0.6787
 3224TIP3    H131087   6.645   6.081  14.843 -0.2035 -0.5773 -0.6689
 3224TIP3    H231088   6.729   5.995  14.935 -0.8969 -1.2938 -0.6948
 3225TIP3   OH231089   6.455   5.247  15.427 -0.0852  0.3418  0.0495
 3225TIP3    H131090   6.487   5.178  15.485 -3.1466 -0.5762  0.8299
 3225TIP3    H231091   6.534   5.292  15.397  1.8600 -1.8204  1.5916
 3226TIP3   OH231092   5.823   2.099   3.492  0.0781 -0.1318 -0.4879
 3226TIP3    H131093   5.786   2.071   3.576  0.4305 -0.4641 -0.4395
 3226TIP3    H231094   5.790   2.189   3.480 -1.8464 -0.8754 -1.1084
 3227TIP3   OH231095   2.370   4.520  14.501  0.3277 -0.0949 -0.1018
 3227TIP3    H131096   2.339   4.609  14.520 -1.4701 -0.9556  1.2125
 3227TIP3    H231097   2.339   4.503  14.412  1.2048  0.7683 -0.6020
 3228TIP3   OH231098   1.662   3.223  14.246 -0.0779  0.6920  0.2866
 3228TIP3    H131099   1.638   3.155  14.310 -0.1621 -0.3337 -0.7928
 3228TIP3    H231100   1.728   3.275  14.291  0.2116 -0.2833  1.0489
 3229TIP3   OH231101   6.674   4.186  14.812  0.4491  0.2506 -0.1533
 3229TIP3    H131102   6.738   4.161  14.745  1.5602  1.3608  0.4635
 3229TIP3    H231103   6.724   4.187  14.894 -0.2044  1.6982  0.2536
 3230TIP3   OH231104   0.132   1.368   0.790 -0.4143 -0.5524  0.2294
 3230TIP3    H131105   0.189   1.337   0.860 -0.8463  2.9620  2.3585
 3230TIP3    H231106   0.187   1.429   0.739 -0.5308 -1.9765 -1.7371
 3231TIP3   OH231107   1.209   5.402   3.358 -0.6163 -0.0027  0.4507
 3231TIP3    H131108   1.176   5.412   3.447 -2.1036  0.5084 -0.1364
 3231TIP3    H231109   1.173   5.319   3.327 -1.1718  0.4360 -0.1073
 3232TIP3   OH231110   2.333   0.014   2.773 -0.0498  0.0736  0.1815
 3232TIP3    H131111   2.267   0.028   2.842  1.6167  1.4550  1.5994
 3232TIP3    H231112   2.360  -0.077   2.785 -0.9272 -0.1925  0.2680
 3233TIP3   OH231113   2.988   4.305  12.932  0.5879 -0.0313 -0.2812
 3233TIP3    H131114   2.929   4.249  12.881  0.5384  1.5672 -2.1153
 3233TIP3    H231115   3.036   4.245  12.988  1.2985 -2.1087 -2.8829
 3234TIP3   OH231116   6.207   0.350  11.731 -0.4629  0.1307  0.4485
 3234TIP3    H131117   6.202   0.260  11.763 -1.1282  0.2641  0.7506
 3234TIP3    H231118   6.118   0.384  11.743 -0.5029  0.4768 -0.6882
 3235TIP3   OH231119   6.654   4.751   5.498  0.0255  0.6393  0.0270
 3235TIP3    H131120   6.679   4.800   5.576 -0.9743  0.6019  0.3856
 3235TIP3    H231121   6.656   4.660   5.525 -2.9997  0.7116  0.9001
 3236TIP3   OH231122   5.648   2.951  14.259  0.0853  0.0056  0.4754
 3236TIP3    H131123   5.661   3.002  14.339 -1.2522  1.5801 -0.2462
 3236TIP3    H231124   5.680   3.008  14.189 -2.0497  0.2267 -0.4154
 3237TIP3   OH231125   0.710   6.653   0.617  0.3692 -0.5410  0.2839
 3237TIP3    H131126   0.733   6.746   0.618  2.2146 -0.9692  0.9147
 3237TIP3    H231127   0.722   6.626   0.526 -0.6570 -0.0761 -0.0067
 3238TIP3   OH231128   5.894   1.368  12.847 -0.3982  0.2146 -0.1717
 3238TIP3    H131129   5.950   1.313  12.792  1.2166  1.1383  0.4751
 3238TIP3    H231130   5.954   1.410  12.909 -1.9107  0.6825  1.0635
 3239TIP3   OH231131   3.943   3.947  13.216 -0.0125  0.1775 -0.0415
 3239TIP3    H131132   3.872   3.884  13.204 -0.7413  0.9818 -0.0284
 3239TIP3    H231133   3.921   3.993  13.296  1.9853 -1.4242  1.5524
 3240TIP3   OH231134   5.265   1.492  10.985 -0.8505  0.2707 -0.2679
 3240TIP3    H131135   5.179   1.491  10.943 -0.6824 -2.1909 -0.6893
 3240TIP3    H231136   5.254   1.546  11.063 -2.6942  0.2347 -0.4766
 3241TIP3   OH231137   3.292   2.562  11.051 -0.0545 -0.1891  0.0442
 3241TIP3    H131138   3.328   2.473  11.048 -2.0104 -1.1590  2.2567
 3241TIP3    H231139   3.323   2.598  11.133 -0.1902  0.7756 -0.3179
 3242TIP3   OH231140   1.310   3.805  11.473  0.1721 -0.2587  0.2452
 3242TIP3    H131141   1.341   3.758  11.550 -0.3889 -1.0061  0.0288
 3242TIP3    H231142   1.353   3.891  11.477 -0.8246  0.2055  2.0724
 3243TIP3   OH231143   1.444   6.426   5.202 -0.0745 -0.3331  0.8527
 3243TIP3    H131144   1.493   6.385   5.273  2.5573  0.3734 -0.4398
 3243TIP3    H231145   1.438   6.359   5.134  2.4252  0.6148 -0.4327
 3244TIP3   OH231146   1.752   6.369   2.639 -0.6581 -0.7857  0.4158
 3244TIP3    H131147   1.744   6.275   2.628  0.4238 -0.7394 -0.9765
 3244TIP3    H231148   1.687   6.406   2.579 -0.8196 -0.6434  0.6777
 3245TIP3   OH231149   4.738   3.116  14.175 -0.3255  0.0005  0.5980
 3245TIP3    H131150   4.729   3.174  14.251  0.1887 -0.4947  1.0444
 3245TIP3    H231151   4.831   3.094  14.173 -0.4966 -0.7387  0.3858
 3246TIP3   OH231152   6.165   6.443  13.344  0.6641 -0.2548  0.3310
 3246TIP3    H131153   6.202   6.476  13.426 -0.3710  4.4230 -0.8121
 3246TIP3    H231154   6.070   6.452  13.356  0.4734 -0.2236 -1.0748
 3247TIP3   OH231155   2.816   2.505   0.981 -0.3796 -0.2026  0.0725
 3247TIP3    H131156   2.863   2.439   1.032  0.1041 -0.2262 -0.3967
 3247TIP3    H231157   2.808   2.580   1.041 -0.3131 -0.4312  0.3722
 3248TIP3   OH231158   6.404   5.175  16.268  0.4334  0.1734 -0.5346
 3248TIP3    H131159   6.451   5.251  16.302 -0.1125  0.1975  0.2031
 3248TIP3    H231160   6.381   5.199  16.178  0.4902  0.7820 -0.3903
 3249TIP3   OH231161   1.492   4.594   0.458 -0.0294 -0.2643  0.2256
 3249TIP3    H131162   1.401   4.594   0.487 -0.3333 -0.5701 -0.7193
 3249TIP3    H231163   1.526   4.680   0.486 -0.7839  0.1138 -0.0025
 3250TIP3   OH231164   1.649   0.146   1.482  0.1920  0.5944 -0.4281
 3250TIP3    H131165   1.745   0.144   1.481  0.2344  1.6422 -1.6777
 3250TIP3    H231166   1.627   0.188   1.565  0.8027  0.1944 -0.0564
 3251TIP3   OH231167   5.380   4.132  17.188  0.2127 -0.1696  0.0154
 3251TIP3    H131168   5.344   4.177  17.111  2.1631  0.6160 -0.5062
 3251TIP3    H231169   5.381   4.199  17.256  3.2710  0.8107 -0.8072
 3252TIP3   OH231170   3.965   6.699   0.758 -0.2259  0.3131  0.1664
 3252TIP3    H131171   4.001   6.674   0.673  0.6605  1.9399  0.0158
 3252TIP3    H231172   3.876   6.729   0.738 -0.1561  0.3223 -0.1376
 3253TIP3   OH231173   5.295   4.281   0.425 -0.0828 -0.2859  0.2942
 3253TIP3    H131174   5.314   4.237   0.508  1.0182 -0.4011 -0.0030
 3253TIP3    H231175   5.273   4.370   0.450 -1.6835 -0.8026  0.8517
 3254TIP3   OH231176   0.924   3.610   1.086 -0.0514 -0.1053 -0.4505
 3254TIP3    H131177   0.965   3.692   1.057  1.1288  0.2605  1.9902
 3254TIP3    H231178   0.991   3.543   1.072 -0.6268 -0.4881 -1.4444
 3255TIP3   OH231179   3.912   3.513   0.815  0.2366 -0.4863 -0.0481
 3255TIP3    H131180   3.970   3.589   0.819 -0.6329  0.1287  2.3162
 3255TIP3    H231181   3.953   3.449   0.873 -0.5845 -0.6551  0.3638
 3256TIP3   OH231182   6.136   5.981   5.962  0.7780  0.3431 -0.1156
 3256TIP3    H131183   6.155   6.042   6.034  0.6699  1.1075 -0.7212
 3256TIP3    H231184   6.144   5.895   6.002 -2.3254  0.7183  1.6678
 3257TIP3   OH231185   1.566   3.104   4.103 -0.3658  0.1771  0.8528
 3257TIP3    H131186   1.586   3.011   4.100  0.1768  0.3075  0.2735
 3257TIP3    H231187   1.500   3.117   4.035 -0.8344  0.1331  1.2879
 3258TIP3   OH231188   2.896   1.791  12.824 -0.1756  0.0702 -0.3182
 3258TIP3    H131189   2.893   1.863  12.887  0.2514  0.9442 -1.2626
 3258TIP3    H231190   2.887   1.712  12.877 -0.3487  0.8016  0.7756
 3259TIP3   OH231191   0.480   5.809  12.462 -0.3247  0.2252  0.4927
 3259TIP3    H131192   0.437   5.724  12.476 -1.1569  0.6813  0.7659
 3259TIP3    H231193   0.542   5.817  12.535  0.2618 -0.4403  0.0927
 3260TIP3   OH231194   5.006   3.073   3.319 -0.1897 -0.3147 -0.5993
 3260TIP3    H131195   4.946   3.027   3.261 -1.0766 -1.4350  1.1350
 3260TIP3    H231196   5.091   3.065   3.276 -0.9918 -0.0866 -2.3028
 3261TIP3   OH231197   0.303   1.911   3.406 -0.2870 -0.6813 -0.5716
 3261TIP3    H131198   0.373   1.854   3.376 -1.3150 -1.7430 -1.0555
 3261TIP3    H231199   0.253   1.857   3.468  0.7386  0.8705  1.7404
 3262TIP3   OH231200   4.910   0.119   4.779  0.2767 -0.4754  0.1087
 3262TIP3    H131201   4.954   0.153   4.701  2.5068  0.2880  1.6072
 3262TIP3    H231202   4.971   0.055   4.815 -1.3847 -1.9366  0.4496
 3263TIP3   OH231203   0.688   5.093   3.889 -0.1191 -0.1433 -0.1880
 3263TIP3    H131204   0.728   5.016   3.929  0.4273 -0.6513 -1.6640
 3263TIP3    H231205   0.596   5.088   3.914 -0.2116 -1.6000 -0.7138
 3264TIP3   OH231206   5.851   6.421  14.515 -0.2055 -0.1280 -0.5173
 3264TIP3    H131207   5.840   6.326  14.517 -0.3304 -0.1077  0.0134
 3264TIP3    H231208   5.788   6.454  14.579  0.6745  0.2234  0.1963
 3265TIP3   OH231209   5.930   6.476  17.159 -0.6326 -0.3401 -0.1582
 3265TIP3    H131210   5.881   6.464  17.078 -0.6307 -0.1577 -0.1866
 3265TIP3    H231211   6.007   6.526  17.133 -1.8404  1.8916  0.3576
 3266TIP3   OH231212   2.808   3.055   4.568  0.0231 -0.1997  0.3060
 3266TIP3    H131213   2.899   3.058   4.540 -0.3616  0.0694 -1.0086
 3266TIP3    H231214   2.797   3.134   4.621  0.1100  0.8158 -1.1063
 3267TIP3   OH231215   3.395   0.012  17.188  0.1254 -0.0699  0.0187
 3267TIP3    H131216   3.341  -0.049  17.136  2.2437 -2.0469 -0.0008
 3267TIP3    H231217   3.460   0.045  17.126  0.2532  0.6758  0.5332
 3268TIP3   OH231218   5.865   1.317  13.269 -0.0430  0.3719 -0.3761
 3268TIP3    H131219   5.794   1.253  13.260  1.0151 -1.0943  1.2640
 3268TIP3    H231220   5.823   1.392  13.311 -1.0340  0.3296 -1.2216
 3269TIP3   OH231221   4.704   0.728   4.167  0.3488 -0.3593 -0.1360
 3269TIP3    H131222   4.702   0.648   4.113 -0.3308 -0.5153  0.1160
 3269TIP3    H231223   4.784   0.719   4.219  0.7695 -0.4297 -0.7822
 3270TIP3   OH231224   3.205   4.921  11.437  0.0506 -0.2430  0.3742
 3270TIP3    H131225   3.299   4.938  11.445 -0.2719  1.7492  0.4192
 3270TIP3    H231226   3.184   4.862  11.510  1.2779 -0.8867  0.2308
 3271TIP3   OH231227   0.589   5.698  16.146  0.1443  0.0837 -0.1747
 3271TIP3    H131228   0.593   5.775  16.203 -0.2909 -1.0741  1.5070
 3271TIP3    H231229   0.507   5.709  16.098  0.0470  0.6341  0.1044
 3272TIP3   OH231230   0.578   5.511   5.172 -0.0557  0.0358  0.1131
 3272TIP3    H131231   0.546   5.585   5.223 -0.3650  0.2552 -0.3926
 3272TIP3    H231232   0.573   5.437   5.232 -0.5450  0.2632  0.3599
 3273TIP3   OH231233   5.667   5.594  12.545 -1.2391 -0.1030  0.0171
 3273TIP3    H131234   5.616   5.522  12.580 -1.4780  0.4834  0.9192
 3273TIP3    H231235   5.696   5.564  12.458 -2.0239 -0.9366  0.0345
 3274TIP3   OH231236   4.274   3.971  15.350 -0.4020  0.0093  0.5001
 3274TIP3    H131237   4.262   3.963  15.444 -0.0168  1.4050  0.6858
 3274TIP3    H231238   4.312   3.887  15.323  0.5299 -0.0027  1.7712
 3275TIP3   OH231239   0.579   5.067  11.263  0.4194 -0.3986  0.9487
 3275TIP3    H131240   0.510   5.133  11.267 -0.0979 -0.9197  0.8466
 3275TIP3    H231241   0.599   5.059  11.170 -2.3196 -3.1617  0.4211
 3276TIP3   OH231242   0.824   4.842  14.789 -0.3649  0.4176  0.0764
 3276TIP3    H131243   0.813   4.769  14.850 -3.2664  0.4839 -0.2516
 3276TIP3    H231244   0.860   4.803  14.710 -0.5839 -0.4077  0.3827
 3277TIP3   OH231245   0.315   3.601  12.806  0.0322 -0.8727 -0.1119
 3277TIP3    H131246   0.377   3.669  12.832 -2.6914  1.9831 -0.4041
 3277TIP3    H231247   0.312   3.541  12.880 -0.4073  1.6650  2.0699
 3278TIP3   OH231248   4.193   1.898   4.877 -0.2283  0.8154 -0.1367
 3278TIP3    H131249   4.113   1.875   4.829 -0.1621  3.0976 -1.5005
 3278TIP3    H231250   4.258   1.834   4.847 -0.9230  0.4605 -0.9176
 3279TIP3   OH231251   5.786   1.905  15.073  0.6416 -0.2751  0.2137
 3279TIP3    H131252   5.756   1.900  14.982 -2.1976  0.9352  0.9679
 3279TIP3    H231253   5.806   1.998  15.087  0.5764 -0.3654  0.9556
 3280TIP3   OH231254   4.127   2.737  15.766 -0.3562  0.6976 -0.7604
 3280TIP3    H131255   4.052   2.679  15.750 -0.0792 -0.0372  0.5069
 3280TIP3    H231256   4.088   2.824  15.778 -1.0369  0.2809  0.1268
 3281TIP3   OH231257   0.326   2.803   1.552 -0.1833  0.3043 -0.4721
 3281TIP3    H131258   0.268   2.795   1.628 -0.3164  0.0160 -0.5997
 3281TIP3    H231259   0.267   2.797   1.476 -0.1035  1.0222 -0.5992
 3282TIP3   OH231260   3.134   1.187  16.401  0.2975  0.0262 -0.7314
 3282TIP3    H131261   3.209   1.248  16.401  1.0542 -0.8548 -2.0021
 3282TIP3    H231262   3.074   1.223  16.336 -0.7531  1.0894  0.7383
 3283TIP3   OH231263   4.557   1.493  12.457  0.6051 -0.4150  0.1699
 3283TIP3    H131264   4.606   1.575  12.468 -1.6122  1.4510 -2.4895
 3283TIP3    H231265   4.507   1.506  12.377 -0.4348 -4.1527  0.0538
 3284TIP3   OH231266   2.272   4.775  15.823  0.0616 -0.1631  0.2294
 3284TIP3    H131267   2.254   4.699  15.767  0.7943  0.4749 -0.9032
 3284TIP3    H231268   2.198   4.834  15.807 -1.6629 -1.4383  2.7123
 3285TIP3   OH231269   3.362   1.348   0.103  0.1159 -0.0558  0.1881
 3285TIP3    H131270   3.322   1.395   0.176 -2.3034  1.2307 -1.7903
 3285TIP3    H231271   3.300   1.278   0.083  0.2709  0.1491 -1.1227
 3286TIP3   OH231272   2.924   2.113   2.174 -0.1566  0.4769 -0.6788
 3286TIP3    H131273   2.840   2.077   2.204  0.0348  0.3604 -0.2860
 3286TIP3    H231274   2.934   2.079   2.085 -0.0713 -0.2934 -0.3861
 3287TIP3   OH231275   1.513   1.953  16.887  0.6971  0.6557  0.3887
 3287TIP3    H131276   1.474   1.994  16.809  1.6274 -0.1587 -0.5360
 3287TIP3    H231277   1.462   1.987  16.960 -1.2909  0.1666 -0.7060
 3288TIP3   OH231278   5.067   5.977  15.130 -0.2909 -0.5267  0.1301
 3288TIP3    H131279   4.994   5.915  15.124 -1.1883  0.4648  0.5295
 3288TIP3    H231280   5.027   6.063  15.116  0.9501 -0.0328 -0.5056
 3289TIP3   OH231281   1.500   0.590   0.846  0.0583  0.1011 -0.0431
 3289TIP3    H131282   1.572   0.583   0.909 -1.1263  0.1284  1.3607
 3289TIP3    H231283   1.421   0.575   0.898 -0.9311 -0.6352 -1.6671
 3290TIP3   OH231284   4.366   2.173  14.744 -0.3542 -0.2091  0.4770
 3290TIP3    H131285   4.351   2.243  14.809  2.2693  2.0113 -1.1047
 3290TIP3    H231286   4.425   2.112  14.788  1.1102  1.0892  0.3913
 3291TIP3   OH231287   4.800   0.602  15.195  0.0686  0.3169 -0.5392
 3291TIP3    H131288   4.810   0.585  15.289  0.3037 -0.3722 -0.6889
 3291TIP3    H231289   4.806   0.516  15.153 -0.0785  0.6129 -1.1856
 3292TIP3   OH231290   5.167   6.151   4.012 -0.1695 -0.2139  0.0689
 3292TIP3    H131291   5.173   6.239   3.975 -0.9223 -1.0574 -2.1909
 3292TIP3    H231292   5.091   6.155   4.070  0.5633  0.9185  1.0235
 3293TIP3   OH231293   5.208   4.757   5.673  0.2418 -0.1837  0.1936
 3293TIP3    H131294   5.152   4.819   5.626 -0.1711 -1.6088 -1.2632
 3293TIP3    H231295   5.173   4.756   5.762 -1.1129  0.0680 -0.3144
 3294TIP3   OH231296   6.470   6.667  12.422  0.2692 -0.0469  0.0013
 3294TIP3    H131297   6.447   6.743  12.369 -4.1845 -0.5188  0.8914
 3294TIP3    H231298   6.485   6.702  12.510  2.2365  0.1195 -0.3459
 3295TIP3   OH231299   1.637   3.446   5.645  0.1115 -0.3416  0.2373
 3295TIP3    H131300   1.589   3.395   5.579  0.2288  0.8556 -0.8236
 3295TIP3    H231301   1.694   3.503   5.594  1.2194 -0.3327  1.4401
 3296TIP3   OH231302   1.895   5.918  10.453  0.0955  0.4735  0.4930
 3296TIP3    H131303   1.803   5.943  10.465  0.0318 -0.0228  1.0666
 3296TIP3    H231304   1.891   5.828  10.420  0.2641  1.5812 -3.0003
 3297TIP3   OH231305   3.641   1.642   3.287 -0.1583  0.3232  0.2218
 3297TIP3    H131306   3.647   1.547   3.297  0.7694  0.3935  0.4839
 3297TIP3    H231307   3.713   1.676   3.340 -0.7857  1.2042  0.5259
 3298TIP3   OH231308   3.450   5.129   4.171  0.4401  0.5881 -0.6503
 3298TIP3    H131309   3.536   5.102   4.140  0.5377 -0.6040  0.5943
 3298TIP3    H231310   3.461   5.143   4.266 -1.1347 -1.4143 -0.1084
 3299TIP3   OH231311   2.669   3.176   1.361  0.5527 -0.1902 -0.3677
 3299TIP3    H131312   2.717   3.256   1.382 -0.2824  0.5510 -1.2033
 3299TIP3    H231313   2.678   3.121   1.439  0.0441  1.2593  0.7564
 3300TIP3   OH231314   4.323   4.118   4.358 -0.1348 -0.8324 -0.3586
 3300TIP3    H131315   4.406   4.156   4.329  0.5674 -0.8598  1.4796
 3300TIP3    H231316   4.341   4.087   4.447 -1.8867 -1.6205 -0.2444
 3301TIP3   OH231317   2.847   1.657  14.497  0.0276  0.5137 -0.1463
 3301TIP3    H131318   2.772   1.713  14.517 -1.2657 -1.4189  0.7066
 3301TIP3    H231319   2.863   1.608  14.577  3.0354  1.6501  0.1055
 3302TIP3   OH231320   2.812   3.801  14.595  0.1795 -1.0598 -0.4427
 3302TIP3    H131321   2.836   3.802  14.688  0.7771  1.8359 -0.5414
 3302TIP3    H231322   2.865   3.870  14.556  0.0426 -2.3130 -3.0148
 3303TIP3   OH231323   2.741   6.137  12.329  0.1093  0.1842 -0.0320
 3303TIP3    H131324   2.716   6.102  12.243 -0.9303  1.0743 -0.1008
 3303TIP3    H231325   2.756   6.230  12.314 -0.0549  0.3451  0.7456
 3304TIP3   OH231326   0.385   5.328   3.495 -0.3249 -0.3266 -0.1604
 3304TIP3    H131327   0.454   5.264   3.477  1.5909  1.2330  1.0786
 3304TIP3    H231328   0.400   5.397   3.430  0.1392  0.6081  0.9053
 3305TIP3   OH231329   3.150   3.230   1.195 -0.2596  0.2942  0.0542
 3305TIP3    H131330   3.097   3.250   1.273  1.2006  0.3867  1.0781
 3305TIP3    H231331   3.228   3.285   1.205 -0.0927  0.3896 -1.5632
 3306TIP3   OH231332   5.594   4.065   4.698 -0.5273  0.2145  0.2007
 3306TIP3    H131333   5.586   4.138   4.760 -1.0025 -1.5324  2.3301
 3306TIP3    H231334   5.525   4.004   4.723 -0.2265 -0.9254 -1.5788
 3307TIP3   OH231335   5.779   1.845   1.048  0.5073 -0.0489 -0.2076
 3307TIP3    H131336   5.830   1.869   0.971  1.9597  0.9087  0.9958
 3307TIP3    H231337   5.771   1.926   1.098 -0.3990 -0.6540  0.6672
 3308TIP3   OH231338   2.784   0.804  14.472 -0.0656  0.2868 -0.3487
 3308TIP3    H131339   2.742   0.868  14.530 -0.3391  0.9892 -1.2917
 3308TIP3    H231340   2.843   0.856  14.417  1.6284 -0.6027  0.5379
 3309TIP3   OH231341   2.186   5.074   2.145  0.5342 -0.4375  0.8191
 3309TIP3    H131342   2.129   5.042   2.075  0.9652 -1.5176  0.9541
 3309TIP3    H231343   2.271   5.087   2.104  0.9147 -1.5273  1.2224
 3310TIP3   OH231344   4.417   1.498   6.694 -0.1389 -0.0702  0.4971
 3310TIP3    H131345   4.463   1.550   6.628  0.8911  1.5090  2.3284
 3310TIP3    H231346   4.371   1.563   6.748 -2.0003 -1.3944  0.6015
 3311TIP3   OH231347   6.427   0.374  14.843 -0.0185 -0.0937 -0.0100
 3311TIP3    H131348   6.515   0.389  14.810  0.2491  0.3407  0.8701
 3311TIP3    H231349   6.404   0.456  14.888 -0.8695 -0.1997 -0.2214
 3312TIP3   OH231350   0.375   3.863  17.015 -0.4563 -0.0599  0.2438
 3312TIP3    H131351   0.331   3.914  17.083  0.9943  2.2520 -0.4416
 3312TIP3    H231352   0.468   3.885  17.026 -0.0326 -0.8576 -1.5038
 3313TIP3   OH231353   6.462   5.901   2.341 -0.2733  0.2612 -0.1813
 3313TIP3    H131354   6.404   5.902   2.264  1.1422 -0.6574 -1.3007
 3313TIP3    H231355   6.541   5.946   2.311  0.2484  0.0046  0.8018
 3314TIP3   OH231356   2.146   4.738  12.225 -0.0101  0.3423  0.0445
 3314TIP3    H131357   2.169   4.723  12.317 -1.9857 -1.9953  0.2387
 3314TIP3    H231358   2.193   4.670  12.177 -2.3838 -1.3419 -0.0821
 3315TIP3   OH231359   2.956   1.774   2.509 -0.0893  0.2535 -0.3493
 3315TIP3    H131360   2.976   1.723   2.431 -1.2600 -0.6134 -0.1234
 3315TIP3    H231361   2.861   1.789   2.505 -0.0002  1.1350  0.3534
 3316TIP3   OH231362   5.362   0.032   4.102  0.3701 -0.2398 -0.0826
 3316TIP3    H131363   5.288  -0.000   4.051  0.6350 -0.1643 -0.5204
 3316TIP3    H231364   5.335   0.119   4.132 -0.9087 -1.3527  2.2642
 3317TIP3   OH231365   5.324   3.560  16.376 -0.1147  0.5049 -0.0640
 3317TIP3    H131366   5.230   3.569  16.359 -0.7010  0.2041  2.5046
 3317TIP3    H231367   5.366   3.615  16.310 -2.1850  1.7806 -0.4112
 3318TIP3   OH231368   2.082   2.981   1.272  0.0073 -0.2563  0.1140
 3318TIP3    H131369   2.031   2.956   1.349 -0.0777  0.1485  0.1873
 3318TIP3    H231370   2.153   3.034   1.307 -0.4611  0.5629 -0.1677
 3319TIP3   OH231371   2.046   6.391   1.398 -0.1322 -0.1025 -0.5787
 3319TIP3    H131372   1.983   6.457   1.369 -1.6758  0.3764  3.3312
 3319TIP3    H231373   2.128   6.440   1.408 -0.6901  0.7350  0.0672
 3320TIP3   OH231374   5.130   2.687  12.218 -0.1365 -0.3574  0.1955
 3320TIP3    H131375   5.047   2.713  12.177 -0.2484  0.4277  0.8651
 3320TIP3    H231376   5.127   2.729  12.305 -0.0304 -2.1594  1.1097
 3321TIP3   OH231377   1.046   1.105   1.076  0.8017  0.3712 -0.0494
 3321TIP3    H131378   1.115   1.103   1.010  1.0846 -0.1020  0.2547
 3321TIP3    H231379   1.035   1.198   1.097  2.1523  0.3785  0.7277
 3322TIP3   OH231380   3.630   3.112  15.620 -0.3789 -0.5655  0.6375
 3322TIP3    H131381   3.686   3.180  15.657  0.2703 -0.5873 -0.2510
 3322TIP3    H231382   3.588   3.071  15.696 -0.7722  0.8019  1.1795
 3323TIP3   OH231383   5.024   4.593  11.870 -0.2538  0.5506 -0.1953
 3323TIP3    H131384   4.937   4.613  11.837 -1.5175 -1.0054  2.0054
 3323TIP3    H231385   5.015   4.508  11.914  2.2320  0.6323  0.6442
 3324TIP3   OH231386   2.756   0.349   4.697 -0.1857 -0.2500 -0.3057
 3324TIP3    H131387   2.822   0.329   4.764  0.5734  1.5379 -0.4676
 3324TIP3    H231388   2.760   0.274   4.638  1.2404 -0.4995  0.0532
 3325TIP3   OH231389   3.260   0.304  11.032  0.0934 -0.9869  0.1166
 3325TIP3    H131390   3.260   0.399  11.017  2.4345 -0.9913 -0.3912
 3325TIP3    H231391   3.263   0.265  10.945  2.3881 -1.3714  0.3048
 3326TIP3   OH231392   4.902   3.801  12.932 -0.2157 -0.2255 -0.2698
 3326TIP3    H131393   4.972   3.865  12.920 -0.8820  0.4994 -0.3988
 3326TIP3    H231394   4.942   3.717  12.908 -0.1295  0.5101 -3.1158
 3327TIP3   OH231395   2.194   5.855  12.349 -0.2828  0.1563 -0.0242
 3327TIP3    H131396   2.241   5.799  12.411 -0.7082 -3.6260 -2.7793
 3327TIP3    H231397   2.164   5.796  12.281 -2.2495  3.6109 -2.4833
 3328TIP3   OH231398   6.209   1.753   0.970 -0.2047  0.8157  0.2504
 3328TIP3    H131399   6.159   1.722   0.894 -0.5260  1.5078  0.1713
 3328TIP3    H231400   6.155   1.730   1.045 -0.3762  1.0479  0.2003
 3329TIP3   OH231401   2.821   3.401   5.087  0.1479 -0.0704  0.3439
 3329TIP3    H131402   2.743   3.429   5.038  1.4804 -0.0242 -1.8818
 3329TIP3    H231403   2.891   3.458   5.056  1.7894 -2.2755 -0.3008
 3330TIP3   OH231404   3.103   0.686   1.178  0.2809  0.3284 -0.2250
 3330TIP3    H131405   3.192   0.671   1.147  0.3362  1.9851 -0.9351
 3330TIP3    H231406   3.049   0.686   1.099 -0.0108  1.5868 -0.0464
 3331TIP3   OH231407   1.158   2.901   1.375 -0.6930 -0.1159  0.5707
 3331TIP3    H131408   1.076   2.944   1.351 -0.7518  0.2605  1.3929
 3331TIP3    H231409   1.191   2.865   1.293 -1.3126  0.3546  0.0993
 3332TIP3   OH231410   5.380   1.808  17.013  0.3267  0.3169  0.4190
 3332TIP3    H131411   5.348   1.779  17.098  2.3847 -2.4157  0.3853
 3332TIP3    H231412   5.318   1.772  16.950  2.0133 -3.0813  0.4888
 3333TIP3   OH231413   6.643   3.678  12.318 -0.8359 -0.1466  0.4658
 3333TIP3    H131414   6.625   3.645  12.406 -0.4366  1.6862  1.2783
 3333TIP3    H231415   6.561   3.666  12.271 -1.8544  1.0300  1.8339
 3334TIP3   OH231416   0.200   2.664   5.728 -0.0437  0.4175 -0.0842
 3334TIP3    H131417   0.182   2.651   5.635 -0.1953  2.4537 -0.3845
 3334TIP3    H231418   0.233   2.580   5.758 -1.3911 -0.7187 -1.6359
 3335TIP3   OH231419   5.184   3.336   5.819  0.2127 -0.3488 -0.2781
 3335TIP3    H131420   5.234   3.415   5.797  1.5091 -1.3961 -1.3055
 3335TIP3    H231421   5.108   3.338   5.760 -0.6975  0.9552  0.8781
 3336TIP3   OH231422   6.439   4.599   1.459  0.0371 -0.0982  0.3017
 3336TIP3    H131423   6.419   4.692   1.448 -1.3505 -0.5923 -1.9376
 3336TIP3    H231424   6.504   4.580   1.392  1.2655 -0.5258  1.5598
 3337TIP3   OH231425   3.764   2.224   0.928 -0.5088  0.6008  0.3909
 3337TIP3    H131426   3.723   2.310   0.939 -2.3173 -0.2198  0.4838
 3337TIP3    H231427   3.793   2.223   0.837 -1.0661  1.0841  0.1994
 3338TIP3   OH231428   0.495   5.269  16.519  0.0143 -0.0139  0.0754
 3338TIP3    H131429   0.443   5.199  16.558  0.0345  0.4181  0.9033
 3338TIP3    H231430   0.553   5.298  16.589  0.9036 -0.0185 -0.6281
 3339TIP3   OH231431   4.972   5.077   4.425 -0.5123 -0.0922 -0.2895
 3339TIP3    H131432   4.894   5.025   4.405 -1.7052  1.5022  0.0355
 3339TIP3    H231433   4.950   5.166   4.398  0.9121  0.5566  0.5312
 3340TIP3   OH231434   5.730   0.452   5.851 -0.3692  0.3537  0.5395
 3340TIP3    H131435   5.655   0.398   5.824  0.5682 -0.4473 -0.5643
 3340TIP3    H231436   5.691   0.526   5.897 -1.6653 -1.8674  3.2613
 3341TIP3   OH231437   1.535   4.056  13.236 -0.0458  0.5711  0.2233
 3341TIP3    H131438   1.607   4.116  13.221 -0.2129  0.3251 -1.8807
 3341TIP3    H231439   1.457   4.105  13.211 -0.3136 -0.0752 -0.2463
 3342TIP3   OH231440   1.518   5.058   6.397  0.9410  0.4949 -0.0746
 3342TIP3    H131441   1.481   5.080   6.483  0.5578  1.8505 -0.5522
 3342TIP3    H231442   1.589   4.998   6.417 -1.4897 -2.3093  0.8733
 3343TIP3   OH231443   3.810   1.104  12.421 -0.0199 -0.7749  0.3123
 3343TIP3    H131444   3.797   1.197  12.439  0.2392 -0.9310  1.3183
 3343TIP3    H231445   3.903   1.088  12.438 -0.0149 -1.1763 -0.0615
 3344TIP3   OH231446   0.754   4.907  13.351 -0.2287  0.4539 -0.2838
 3344TIP3    H131447   0.825   4.964  13.381 -2.3130  3.3178 -0.4589
 3344TIP3    H231448   0.765   4.905  13.255 -0.2204  0.6514 -0.2875
 3345TIP3   OH231449   1.589   0.154   5.457  0.0651 -0.3715  0.3737
 3345TIP3    H131450   1.498   0.160   5.428 -0.1272 -1.4378  0.6900
 3345TIP3    H231451   1.599   0.062   5.484  1.1963 -0.2333  0.4663
 3346TIP3   OH231452   1.151   6.424  12.829  0.0461  0.1275 -0.4214
 3346TIP3    H131453   1.172   6.480  12.754  0.4035  1.4454  0.6238
 3346TIP3    H231454   1.182   6.473  12.905  0.5042 -1.5840  0.5353
 3347TIP3   OH231455   6.301   3.304  10.509  0.0142 -0.2439  0.1777
 3347TIP3    H131456   6.243   3.339  10.577 -0.6488 -1.5039  0.2856
 3347TIP3    H231457   6.338   3.224  10.547 -0.7835 -1.2743 -1.1033
 3348TIP3   OH231458   2.333   0.014  10.983 -0.1608 -1.5755  0.0387
 3348TIP3    H131459   2.334   0.093  10.929  1.5863 -0.3362  1.7557
 3348TIP3    H231460   2.248  -0.027  10.965 -0.8238  0.3245 -1.4048
 3349TIP3   OH231461   0.360   5.119   4.360 -0.3932 -0.1793 -0.2061
 3349TIP3    H131462   0.413   5.171   4.299  1.5386 -3.1324 -1.2756
 3349TIP3    H231463   0.288   5.086   4.306 -0.4008 -0.3585 -0.0854
 3350TIP3   OH231464   1.581   2.401  13.331 -0.1238 -0.0509  0.1576
 3350TIP3    H131465   1.521   2.351  13.388 -0.2394 -0.8622 -0.6454
 3350TIP3    H231466   1.531   2.414  13.250  1.5998 -2.9756 -1.5274
 3351TIP3   OH231467   2.256   0.916  17.158 -0.4362 -0.4799 -0.0009
 3351TIP3    H131468   2.176   0.872  17.188 -0.9162  0.5920  0.3202
 3351TIP3    H231469   2.326   0.854  17.176 -0.3777  0.6760  5.0307
 3352TIP3   OH231470   4.447   6.723  17.191  0.2848  0.0676  0.0802
 3352TIP3    H131471   4.439   6.717  17.096  0.9364  0.0657  0.0215
 3352TIP3    H231472   4.541   6.738  17.207  0.0664  0.8973  0.6775
 3353TIP3   OH231473   5.044   1.128   4.071  0.8018 -0.2802  0.5470
 3353TIP3    H131474   5.118   1.099   4.019  0.9333  0.0053  0.5741
 3353TIP3    H231475   5.069   1.214   4.104  0.2273  0.0762  0.0853
 3354TIP3   OH231476   1.789   1.272  12.818  0.6188  0.4428  0.9974
 3354TIP3    H131477   1.744   1.327  12.881 -0.8279  0.9149 -0.3914
 3354TIP3    H231478   1.837   1.333  12.762  0.3701  0.1738  0.4855
 3355TIP3   OH231479   3.368   6.169   3.931 -0.4437 -0.5730  0.0391
 3355TIP3    H131480   3.276   6.142   3.935 -0.5400 -0.1525  0.8422
 3355TIP3    H231481   3.365   6.264   3.932  0.0435 -0.5410  1.8202
 3356TIP3   OH231482   2.914   1.707   4.428 -0.3830 -0.4009 -0.5597
 3356TIP3    H131483   2.850   1.778   4.425  0.0263 -0.0542 -1.4810
 3356TIP3    H231484   2.975   1.733   4.497 -1.2553 -0.7774  0.3908
 3357TIP3   OH231485   4.572   5.749   5.121  0.2760  0.2729 -0.5863
 3357TIP3    H131486   4.642   5.794   5.074  1.1243  0.1440  0.5017
 3357TIP3    H231487   4.529   5.696   5.055  2.9259 -1.7647 -0.8518
 3358TIP3   OH231488   3.694   5.138   2.915  0.0755  0.0170  0.0405
 3358TIP3    H131489   3.681   5.078   2.987 -0.0759 -0.7534 -0.6138
 3358TIP3    H231490   3.633   5.210   2.931 -0.7073 -0.6627  0.1273
 3359TIP3   OH231491   6.530   6.789  12.656 -0.3829 -0.0395 -0.4329
 3359TIP3    H131492   6.517   6.739  12.737 -0.3942 -1.4616 -1.2901
 3359TIP3    H231493   6.625   6.785  12.641 -0.3497  0.4269 -0.3870
 3360TIP3   OH231494   0.798   0.119   0.363  0.3534  0.6551 -0.1648
 3360TIP3    H131495   0.797   0.148   0.272 -1.1920 -0.1497 -0.4326
 3360TIP3    H231496   0.872   0.166   0.402  1.3855  0.6065 -1.9435
 3361TIP3   OH231497   2.837   4.093   2.151  0.2596 -0.8509  0.5844
 3361TIP3    H131498   2.749   4.110   2.119  1.1778  0.8653 -1.2297
 3361TIP3    H231499   2.866   4.017   2.102 -0.1575 -1.3765  1.1346
 3362TIP3   OH231500   5.427   1.037  14.967 -0.0020 -0.3059 -0.5853
 3362TIP3    H131501   5.442   1.127  14.939  1.7791  0.2651  1.8377
 3362TIP3    H231502   5.512   0.994  14.954 -1.5054 -2.6252 -4.4837
 3363TIP3   OH231503   3.405   4.615  12.409 -0.7294 -0.1110 -0.3562
 3363TIP3    H131504   3.316   4.650  12.397  0.4058  3.0510 -0.6259
 3363TIP3    H231505   3.404   4.576  12.496 -2.8306 -1.9390 -1.1085
 3364TIP3   OH231506   0.233   6.524   1.896 -0.4498  0.4591 -0.6707
 3364TIP3    H131507   0.187   6.578   1.832 -0.4494  0.8219 -0.3703
 3364TIP3    H231508   0.326   6.543   1.881 -0.4830  1.2944  0.0723
 3365TIP3   OH231509   3.004   5.616   1.150 -0.2967 -0.0294  0.5291
 3365TIP3    H131510   3.079   5.559   1.169  1.1632  1.4709 -0.4382
 3365TIP3    H231511   2.929   5.558   1.150  1.0480 -1.8508  0.1528
 3366TIP3   OH231512   1.970   0.666   1.187 -0.3373  0.2118  0.6496
 3366TIP3    H131513   1.889   0.713   1.210 -0.8037 -0.8715  1.3202
 3366TIP3    H231514   2.016   0.725   1.127 -2.5563  0.0417 -1.3781
 3367TIP3   OH231515   4.706   1.315  15.198  0.7204 -0.1679  0.1336
 3367TIP3    H131516   4.754   1.310  15.116  1.3986  1.2439  0.4157
 3367TIP3    H231517   4.673   1.226  15.212  0.7594 -0.4758 -1.5493
 3368TIP3   OH231518   0.629   4.221  14.261  0.2512 -0.1588 -0.5292
 3368TIP3    H131519   0.540   4.209  14.294  0.8336 -1.6809  0.6282
 3368TIP3    H231520   0.677   4.146  14.294  2.9432  2.4828  2.2578
 3369TIP3   OH231521   0.644   0.855  14.383  0.2634 -0.4654  0.5374
 3369TIP3    H131522   0.622   0.857  14.476 -1.9771 -0.6949  0.0886
 3369TIP3    H231523   0.738   0.841  14.380  0.6809  1.3687  2.7659
 3370TIP3   OH231524   1.600   4.537  13.184 -0.4639 -0.8238  0.1791
 3370TIP3    H131525   1.576   4.623  13.218 -2.3156 -0.7696 -1.0836
 3370TIP3    H231526   1.694   4.531  13.195 -0.0146  2.1043 -1.2541
 3371TIP3   OH231527   4.098   6.265  13.251 -0.1621 -0.3097  0.2060
 3371TIP3    H131528   4.044   6.313  13.187 -0.3033  0.0147  0.5646
 3371TIP3    H231529   4.065   6.294  13.336  2.1063  1.7328  0.5009
 3372TIP3   OH231530   4.830   4.110  13.319  0.1444  0.4920 -0.6088
 3372TIP3    H131531   4.798   4.151  13.399  0.6750  0.0565 -0.1628
 3372TIP3    H231532   4.755   4.112  13.259 -0.1724  1.0723 -0.1998
 3373TIP3   OH231533   4.464   1.629  10.664 -0.2761 -0.1685 -0.4664
 3373TIP3    H131534   4.499   1.718  10.664  0.9762 -0.6369 -1.0894
 3373TIP3    H231535   4.390   1.632  10.725 -0.5599  1.4056 -0.8507
 3374TIP3   OH231536   4.381   4.418  13.363 -0.2287  0.9310  0.3950
 3374TIP3    H131537   4.431   4.460  13.434  4.0060 -2.8019  0.0603
 3374TIP3    H231538   4.437   4.429  13.286 -1.0190 -1.5119 -0.5952
 3375TIP3   OH231539   1.343   1.313   1.970  0.3084  0.3934 -0.1792
 3375TIP3    H131540   1.275   1.284   1.910 -0.2506  0.2765  0.4898
 3375TIP3    H231541   1.315   1.401   1.998 -0.5506 -0.3471  1.4684
 3376TIP3   OH231542   2.639   5.343  11.484  0.2930  0.1611 -0.4115
 3376TIP3    H131543   2.724   5.381  11.465 -0.3526  1.7719 -0.1856
 3376TIP3    H231544   2.601   5.399  11.552  0.0189 -1.9150  1.2635
 3377TIP3   OH231545   0.079   0.323  13.596 -0.8134  0.0138 -0.3016
 3377TIP3    H131546   0.015   0.299  13.663  0.4554 -2.3716  0.1855
 3377TIP3    H231547   0.062   0.263  13.524  1.1166 -1.0595  0.0499
 3378TIP3   OH231548   4.228   0.363  17.058  0.8360  0.4642 -0.1082
 3378TIP3    H131549   4.322   0.371  17.076  1.9115 -0.8132 -4.1691
 3378TIP3    H231550   4.223   0.314  16.976 -3.4978 -0.9563  0.7561
 3379TIP3   OH231551   1.910   0.711  12.191  0.3555 -0.4168  0.4706
 3379TIP3    H131552   1.896   0.671  12.277 -1.5218  0.1320  0.4567
 3379TIP3    H231553   1.880   0.801  12.201 -0.0437 -0.3900 -0.8078
 3380TIP3   OH231554   4.010   1.616   2.265  0.1974  0.0524 -0.7319
 3380TIP3    H131555   4.025   1.668   2.186 -0.8566  1.0340 -0.3141
 3380TIP3    H231556   4.056   1.664   2.334  1.3902 -0.9751 -0.7731
 3381TIP3   OH231557   5.239   5.505   6.250  0.2429 -0.2777 -0.3932
 3381TIP3    H131558   5.274   5.437   6.308  0.3121 -1.0301 -1.3050
 3381TIP3    H231559   5.163   5.539   6.297 -0.8098 -2.1530 -0.6623
 3382TIP3   OH231560   1.940   5.349   2.933 -0.6852 -0.5341  0.2841
 3382TIP3    H131561   1.916   5.339   2.840 -1.4019  0.5117  0.3488
 3382TIP3    H231562   2.024   5.395   2.931 -1.6518  1.3031  0.1686
 3383TIP3   OH231563   0.920   1.530   2.763  0.0925 -0.1695 -0.6037
 3383TIP3    H131564   1.002   1.517   2.812 -0.0752  0.5048 -0.1246
 3383TIP3    H231565   0.947   1.536   2.672  0.3375 -2.2580 -0.7183
 3384TIP3   OH231566   4.762   2.877   2.817 -0.2020 -0.0451 -0.2959
 3384TIP3    H131567   4.822   2.812   2.854 -0.4416 -0.2033 -0.1855
 3384TIP3    H231568   4.730   2.836   2.736 -1.1639 -0.5126  0.3073
 3385TIP3   OH231569   2.303   2.326  11.050 -0.6173 -0.0528 -0.3385
 3385TIP3    H131570   2.295   2.248  11.105 -3.0211 -1.2287 -2.1449
 3385TIP3    H231571   2.393   2.325  11.020 -0.0153 -0.8933  1.3671
 3386TIP3   OH231572   2.099   0.140   5.080 -0.4373 -0.3158  0.0361
 3386TIP3    H131573   2.008   0.109   5.085 -0.7693  0.6513  0.1691
 3386TIP3    H231574   2.109   0.199   5.155  0.1916 -0.1446 -0.1758
 3387TIP3   OH231575   3.110   5.121   3.268  0.3771 -0.6738 -0.1538
 3387TIP3    H131576   3.083   5.150   3.355  2.5432 -0.1609  0.4102
 3387TIP3    H231577   3.054   5.046   3.249  0.5288 -1.4274  2.1060
 3388TIP3   OH231578   0.429   3.159  16.733 -0.7578  0.6390  0.3149
 3388TIP3    H131579   0.515   3.173  16.694 -0.3685  0.7182  1.1665
 3388TIP3    H231580   0.415   3.237  16.788 -2.0564  1.3831 -0.9723
 3389TIP3   OH231581   1.929   5.862  16.971 -0.3146 -0.3738 -0.0518
 3389TIP3    H131582   1.901   5.772  16.988  0.6665 -1.0098 -1.5656
 3389TIP3    H231583   1.904   5.878  16.880 -2.0083  1.5192  0.6600
 3390TIP3   OH231584   0.870   6.282  15.079 -0.0739  0.0136  0.3948
 3390TIP3    H131585   0.858   6.242  14.993 -0.9440 -0.6670  0.8193
 3390TIP3    H231586   0.960   6.313  15.078 -0.5261  1.4801 -1.3689
 3391TIP3   OH231587   2.786   5.826  17.048  0.1572 -0.4338 -0.3877
 3391TIP3    H131588   2.700   5.792  17.072 -0.5923  1.4676 -0.2143
 3391TIP3    H231589   2.845   5.751  17.056 -1.1629 -1.3550  1.2108
 3392TIP3   OH231590   1.698   2.130  16.133  0.3035 -0.0403 -0.2474
 3392TIP3    H131591   1.718   2.092  16.048 -0.5071 -0.8463 -0.0905
 3392TIP3    H231592   1.603   2.120  16.143  0.4271 -0.2692  0.8859
 3393TIP3   OH231593   5.197   3.647  13.760  0.3008 -0.3121  0.6012
 3393TIP3    H131594   5.178   3.731  13.717  1.8528  0.0990  0.6259
 3393TIP3    H231595   5.213   3.586  13.689  2.1173  0.1813  0.5389
 3394TIP3   OH231596   4.140   3.818   2.233  0.2613 -0.8482 -0.0877
 3394TIP3    H131597   4.186   3.887   2.281  0.9366 -2.3684  1.5417
 3394TIP3    H231598   4.077   3.783   2.297  1.4231 -3.1625 -0.1215
 3395TIP3   OH231599   1.303   6.161   3.376  0.1982  0.2487  0.4186
 3395TIP3    H131600   1.331   6.074   3.348  0.1714  0.7746 -1.3382
 3395TIP3    H231601   1.337   6.168   3.466 -0.3129 -1.7722  0.8283
 3396TIP3   OH231602   6.130   4.749  15.267 -0.7677  0.7288  0.1951
 3396TIP3    H131603   6.224   4.763  15.281 -0.8830  1.4765  0.2495
 3396TIP3    H231604   6.124   4.658  15.237 -0.1240  0.3764  1.0828
 3397TIP3   OH231605   0.491   1.740  17.089 -0.2140  0.1813  0.2789
 3397TIP3    H131606   0.495   1.778  17.177  2.6442  1.7931 -0.4189
 3397TIP3    H231607   0.436   1.801  17.039 -1.3837 -0.4433  0.7570
 3398TIP3   OH231608   6.783   5.587  15.314 -0.2131  0.0485  0.0604
 3398TIP3    H131609   6.809   5.552  15.399  1.8904  1.0773 -0.0930
 3398TIP3    H231610   6.833   5.669  15.306 -1.0154  0.3990 -1.8020
 3399TIP3   OH231611   3.346   6.711  14.364 -0.2166 -0.7071 -0.3774
 3399TIP3    H131612   3.290   6.683  14.292 -0.6113  0.1259 -0.4161
 3399TIP3    H231613   3.312   6.665  14.441 -1.1683  0.0199 -0.3432
 3400TIP3   OH231614   4.480   1.619  12.781 -0.5578 -0.3512 -0.0952
 3400TIP3    H131615   4.392   1.637  12.748 -0.5170  0.0262 -0.0074
 3400TIP3    H231616   4.533   1.605  12.702 -0.2357  1.5755 -0.2763
 3401TIP3   OH231617   6.312   3.447   2.524 -0.3708  0.1281  0.0896
 3401TIP3    H131618   6.389   3.485   2.482 -0.3362  1.0137  0.9184
 3401TIP3    H231619   6.293   3.368   2.473  0.8011  0.1522 -0.4096
 3402TIP3   OH231620   3.354   4.881   4.620  0.5690  0.2963 -0.0721
 3402TIP3    H131621   3.363   4.795   4.662 -0.8849  0.0323 -0.2684
 3402TIP3    H231622   3.419   4.880   4.550 -0.5930 -1.3399 -1.1846
 3403TIP3   OH231623   0.420   2.890   3.689  0.3142 -0.2707  0.2325
 3403TIP3    H131624   0.502   2.840   3.686  0.0405 -0.7409  0.4683
 3403TIP3    H231625   0.355   2.833   3.649  0.0709  0.0490  0.1665
 3404TIP3   OH231626   0.589   2.642  14.148 -0.6957 -0.2226  0.3792
 3404TIP3    H131627   0.589   2.564  14.093 -1.5666 -0.6676  0.9874
 3404TIP3    H231628   0.561   2.611  14.234 -2.4931  0.9906  0.2928
 3405TIP3   OH231629   4.171   0.284  11.359  0.6336 -0.5307 -0.1817
 3405TIP3    H131630   4.232   0.354  11.335 -0.6679  0.9090  0.5426
 3405TIP3    H231631   4.163   0.290  11.454 -0.5993 -0.7208 -0.2599
 3406TIP3   OH231632   6.695   5.804  15.597  0.1752  0.2815  0.4034
 3406TIP3    H131633   6.764   5.748  15.563 -0.6838 -1.7466  1.8054
 3406TIP3    H231634   6.710   5.806  15.692 -0.0330  2.1818  0.4424
 3407TIP3   OH231635   3.611   5.856  17.218  0.2156 -0.4191  0.4197
 3407TIP3    H131636   3.681   5.833  17.157  1.0219  2.2688  0.1578
 3407TIP3    H231637   3.654   5.911  17.283 -1.3245 -0.2002  1.2961
 3408TIP3   OH231638   1.435   1.687   5.875  0.3224 -0.1937  0.0490
 3408TIP3    H131639   1.366   1.733   5.827 -2.8829 -0.9795  3.4992
 3408TIP3    H231640   1.478   1.755   5.927  0.7311 -0.0550 -0.4515
 3409TIP3   OH231641   3.536   3.770   6.385  0.1118  0.5995  0.6046
 3409TIP3    H131642   3.537   3.831   6.459  0.3876 -1.9120  2.8769
 3409TIP3    H231643   3.446   3.737   6.383  0.1707  0.4657 -0.0471
 3410TIP3   OH231644   0.479   4.942   6.333  0.4342  0.1778 -0.1681
 3410TIP3    H131645   0.465   4.873   6.398  1.9871 -0.6395 -0.6203
 3410TIP3    H231646   0.456   4.900   6.250 -1.4410  1.1807 -0.2058
 3411TIP3   OH231647   3.860   4.461   1.469 -0.0533 -0.3850  0.1722
 3411TIP3    H131648   3.924   4.532   1.477 -0.3905  0.0442 -0.7335
 3411TIP3    H231649   3.913   4.383   1.454  0.2843 -0.0776 -0.3090
 3412TIP3   OH231650   0.961   2.412  16.223  0.5430  0.0209  0.5850
 3412TIP3    H131651   0.934   2.500  16.195 -2.6850 -0.8710  0.5205
 3412TIP3    H231652   0.950   2.358  16.145 -0.1619 -0.9359  1.3289
 3413TIP3   OH231653   2.540   4.413  14.214 -0.3755 -0.5792 -0.6240
 3413TIP3    H131654   2.537   4.354  14.289 -0.4100  0.6036  0.3509
 3413TIP3    H231655   2.633   4.420  14.193 -0.1968  0.2873  0.3454
 3414TIP3   OH231656   2.219   6.527  12.672 -0.1012 -0.5551 -0.3552
 3414TIP3    H131657   2.245   6.436  12.688  0.6496 -0.4347 -0.8579
 3414TIP3    H231658   2.235   6.571  12.755 -1.3020 -1.0498  0.1684
 3415TIP3   OH231659   5.902   5.166  16.687 -0.2590  0.4432 -0.5411
 3415TIP3    H131660   5.956   5.148  16.764  0.1601  0.7556 -0.7613
 3415TIP3    H231661   5.821   5.203  16.723 -0.6166 -0.6587 -0.1640
 3416TIP3   OH231662   4.170   1.903  16.185 -0.0171 -0.4181 -0.1500
 3416TIP3    H131663   4.189   1.818  16.224 -2.3031 -0.9876 -0.1400
 3416TIP3    H231664   4.122   1.951  16.253  0.9145  0.7632 -0.2872
 3417TIP3   OH231665   5.228   0.679  16.220  0.9542  0.4606 -0.2925
 3417TIP3    H131666   5.250   0.600  16.171  1.4189  0.0845  0.5031
 3417TIP3    H231667   5.299   0.688  16.283 -0.5515 -0.1487  1.5895
 3418TIP3   OH231668   5.361   2.307  13.210 -0.6824  0.1579  0.4926
 3418TIP3    H131669   5.376   2.219  13.244  0.2769  0.2069  0.2179
 3418TIP3    H231670   5.435   2.324  13.153 -1.7013  0.5236 -0.7608
 3419TIP3   OH231671   5.103   6.556   2.006 -0.2084  0.1705 -0.2937
 3419TIP3    H131672   5.060   6.579   1.923  0.4764 -0.3112 -0.7948
 3419TIP3    H231673   5.196   6.564   1.987 -0.0548  0.4474  0.5591
 3420TIP3   OH231674   5.868   6.455   3.924  0.4877 -0.0357  0.0233
 3420TIP3    H131675   5.776   6.441   3.899  0.1627  1.7646  0.0246
 3420TIP3    H231676   5.862   6.505   4.005  1.4983 -0.5293  0.4130
 3421TIP3   OH231677   5.729   2.550   3.062  0.3973 -0.1663  0.3001
 3421TIP3    H131678   5.700   2.571   3.151  2.4551  1.0374  0.7395
 3421TIP3    H231679   5.804   2.493   3.073  0.7122  0.0387 -0.6662
 3422TIP3   OH231680   4.878   4.457   2.744 -0.0800 -0.5218 -0.4091
 3422TIP3    H131681   4.888   4.518   2.817 -0.1626 -2.0602  0.9452
 3422TIP3    H231682   4.861   4.512   2.668  0.9860  1.1816  0.5464
 3423TIP3   OH231683   1.348   3.248  15.991  0.0058 -0.2852  0.1013
 3423TIP3    H131684   1.316   3.256  15.901 -0.1501 -1.3949  0.0403
 3423TIP3    H231685   1.359   3.338  16.021 -1.2350  0.1135 -0.5770
 3424TIP3   OH231686   0.064   4.032   1.662  0.3658  0.0471  0.1585
 3424TIP3    H131687   0.155   4.055   1.682 -0.0603  0.9358  1.1669
 3424TIP3    H231688   0.038   3.973   1.732 -0.6412  1.9101  1.4405
 3425TIP3   OH231689   3.447   2.009   4.150 -0.0961 -0.4360 -0.1663
 3425TIP3    H131690   3.498   2.031   4.228 -0.1486 -0.2205 -0.1943
 3425TIP3    H231691   3.476   2.071   4.084  0.2028 -0.8449 -0.4229
 3426TIP3   OH231692   6.597   1.308  10.499 -0.4199 -0.1338 -0.6697
 3426TIP3    H131693   6.518   1.318  10.552  1.5767 -0.3901  2.6376
 3426TIP3    H231694   6.615   1.396  10.465 -0.4449  0.6664  1.2556
 3427TIP3   OH231695   5.132   2.778  12.462  0.1567 -0.1835  0.3703
 3427TIP3    H131696   5.099   2.867  12.450  1.0228  0.1669  0.5175
 3427TIP3    H231697   5.077   2.741  12.531  1.1985  1.0189  1.9189
 3428TIP3   OH231698   5.085   3.728  16.937  0.1464  0.1273 -0.7712
 3428TIP3    H131699   5.141   3.803  16.918 -2.0889  1.8446 -0.9696
 3428TIP3    H231700   5.145   3.654  16.942  2.4496  1.9008 -0.6013
 3429TIP3   OH231701   1.061   6.640  15.431 -0.0686  0.5440 -0.3951
 3429TIP3    H131702   1.087   6.571  15.492  0.2277  0.4305 -0.6467
 3429TIP3    H231703   0.986   6.604  15.384 -0.0648  0.4867 -0.3572
 3430TIP3   OH231704   1.692   1.760  16.773  0.1831 -0.1953 -0.3933
 3430TIP3    H131705   1.622   1.810  16.815  0.9172  0.1887  0.4112
 3430TIP3    H231706   1.765   1.821  16.768  0.5059 -0.6312 -1.1018
 3431TIP3   OH231707   5.203   4.797  13.947 -0.1086 -0.3270  0.4846
 3431TIP3    H131708   5.204   4.892  13.950  0.1238 -0.3537  2.0861
 3431TIP3    H231709   5.215   4.775  13.854 -0.2681  1.1879  0.0882
 3432TIP3   OH231710   2.743   6.340  16.761  0.4755 -0.1498  0.4832
 3432TIP3    H131711   2.753   6.293  16.844 -0.7087  0.7591  1.1691
 3432TIP3    H231712   2.775   6.429  16.779  2.1226 -0.4705 -0.6282
 3433TIP3   OH231713   5.478   2.260  15.257 -0.5934  0.2184  0.2757
 3433TIP3    H131714   5.565   2.297  15.274 -0.4142 -0.2703  0.4369
 3433TIP3    H231715   5.432   2.268  15.341 -0.8294  0.7983  0.0983
 3434TIP3   OH231716   0.170   6.102  16.770  0.3164 -0.2448 -0.3680
 3434TIP3    H131717   0.132   6.179  16.811  0.2845  0.5419 -1.7891
 3434TIP3    H231718   0.122   6.028  16.807 -1.3372  0.5912 -0.7632
 3435TIP3   OH231719   3.208   2.099   5.384 -0.1378 -0.5771 -0.0468
 3435TIP3    H131720   3.223   2.057   5.300  0.7199  4.0217 -2.5152
 3435TIP3    H231721   3.281   2.071   5.439  1.3606 -0.8912 -2.1060
 3436TIP3   OH231722   4.696   1.492  10.729 -0.2425  0.2606  0.0366
 3436TIP3    H131723   4.768   1.491  10.666 -1.0186 -0.2413 -0.8638
 3436TIP3    H231724   4.630   1.549  10.690 -0.1799  1.0928  1.0674
 3437TIP3   OH231725   2.185   2.173  15.293 -0.1147 -0.3509  0.0636
 3437TIP3    H131726   2.133   2.161  15.373  0.1436  0.2809  0.3345
 3437TIP3    H231727   2.276   2.177  15.323 -0.0143 -0.1164 -0.2618
 3438TIP3   OH231728   0.310   1.643  14.536 -0.2579  0.3353  0.0099
 3438TIP3    H131729   0.376   1.624  14.603  0.9024  1.8163 -0.6500
 3438TIP3    H231730   0.297   1.738  14.541 -0.8944  0.3321 -1.1810
 3439TIP3   OH231731   5.984   1.188  13.882  0.3357 -0.0616  0.0558
 3439TIP3    H131732   5.933   1.178  13.963 -2.1043  0.7003 -1.2830
 3439TIP3    H231733   6.069   1.220  13.911  0.2422 -1.7373  2.4530
 3440TIP3   OH231734   2.353   2.896   6.313  0.2163  0.0562 -0.1262
 3440TIP3    H131735   2.433   2.921   6.267  0.0725  0.2063 -0.2961
 3440TIP3    H231736   2.382   2.837   6.382  0.4782  0.1452 -0.1611
 3441TIP3   OH231737   2.186   0.535  11.623  0.0521 -0.3853 -0.2405
 3441TIP3    H131738   2.102   0.509  11.659  0.1087  1.0971  1.1050
 3441TIP3    H231739   2.200   0.477  11.549 -2.8814  0.3253 -1.5028
 3442TIP3   OH231740   5.716   3.986  12.661 -0.2580 -0.2038  0.5042
 3442TIP3    H131741   5.651   3.918  12.645  0.3943 -0.6129 -0.5694
 3442TIP3    H231742   5.689   4.059  12.606 -0.1932 -0.1203  0.5820
 3443TIP3   OH231743   2.810   2.091   3.637  0.0201 -0.6108 -0.3123
 3443TIP3    H131744   2.865   2.013   3.631  0.1689 -0.5382  0.0833
 3443TIP3    H231745   2.866   2.157   3.678  0.0677 -0.1315 -1.1357
 3444TIP3   OH231746   3.452   1.090  12.085 -0.2720  0.4134  0.0213
 3444TIP3    H131747   3.436   1.154  12.154  2.4781 -0.1282  1.3078
 3444TIP3    H231748   3.510   1.025  12.125 -1.3280 -1.8459 -1.8240
 3445TIP3   OH231749   2.674   1.690  13.153 -0.3426 -0.1981 -0.1243
 3445TIP3    H131750   2.706   1.695  13.243  2.3910  0.0766 -1.0158
 3445TIP3    H231751   2.747   1.653  13.104 -2.3178 -1.8145 -2.0255
 3446TIP3   OH231752   1.025   2.478   1.574 -0.6799  0.2359 -0.0843
 3446TIP3    H131753   0.941   2.443   1.607 -1.5378  2.1060 -0.1897
 3446TIP3    H231754   1.028   2.450   1.483 -1.7730  1.1479 -0.4156
 3447TIP3   OH231755   1.604   0.936   6.164 -0.6954  0.1503  0.4016
 3447TIP3    H131756   1.611   1.023   6.124 -1.6288  1.2275  2.4115
 3447TIP3    H231757   1.525   0.898   6.126 -0.4886  0.3143 -0.2083
 3448TIP3   OH231758   0.038   1.885  15.384  0.1864 -0.4670  0.8343
 3448TIP3    H131759  -0.037   1.826  15.391  0.1126 -0.6033 -0.7853
 3448TIP3    H231760   0.093   1.864  15.460 -0.7672 -1.2709  1.3175
 3449TIP3   OH231761   1.055   1.909   0.473 -0.7689  0.6663  0.4759
 3449TIP3    H131762   1.104   1.955   0.406  0.2943 -0.6303  0.3277
 3449TIP3    H231763   1.014   1.835   0.427  1.1947 -1.1321  1.4359
 3450TIP3   OH231764   1.805   5.597  16.379 -0.0856 -0.5019 -0.5040
 3450TIP3    H131765   1.771   5.620  16.465  0.3058 -1.2265 -0.1495
 3450TIP3    H231766   1.899   5.610  16.386 -0.2425  1.4566 -1.4672
 3451TIP3   OH231767   4.859   3.952  13.913 -0.4586  0.1221  0.2162
 3451TIP3    H131768   4.871   3.961  14.007 -1.6045 -0.3719  0.4338
 3451TIP3    H231769   4.861   3.857  13.898 -0.1185  0.2074 -0.2807
 3452TIP3   OH231770   3.214   4.838   0.695  0.5086  0.4428 -0.6720
 3452TIP3    H131771   3.131   4.790   0.693  1.2087 -0.8450 -0.4824
 3452TIP3    H231772   3.247   4.825   0.784  1.3168  0.1720 -0.9947
 3453TIP3   OH231773   6.744   5.312   3.041 -1.0563 -0.0170 -0.2129
 3453TIP3    H131774   6.717   5.403   3.060 -1.7181 -0.2999  0.2643
 3453TIP3    H231775   6.758   5.311   2.946  1.0008  1.0977  0.0106
 3454TIP3   OH231776   4.777   2.062  12.424  0.1850  0.1966 -0.2667
 3454TIP3    H131777   4.694   2.085  12.468  0.5212  0.6003  0.1757
 3454TIP3    H231778   4.750   2.025  12.340 -0.4314  1.6966 -0.7793
 3455TIP3   OH231779   3.242   5.044   1.107 -0.6474 -0.2878  0.0021
 3455TIP3    H131780   3.300   5.121   1.108  0.6740 -1.2230  1.5913
 3455TIP3    H231781   3.163   5.074   1.064 -0.2368  2.0283  0.7146
 3456TIP3   OH231782   4.049   1.642   5.271  0.4079 -0.6863  0.3093
 3456TIP3    H131783   4.097   1.677   5.196  1.2248 -0.6925  0.8248
 3456TIP3    H231784   4.091   1.681   5.347 -1.0723  0.1457  0.7458
 3457TIP3   OH231785   2.932   4.499   3.888  0.2826 -0.4957  0.0426
 3457TIP3    H131786   2.896   4.474   3.973 -1.1748  0.6605 -0.1902
 3457TIP3    H231787   2.860   4.484   3.827 -0.1272  2.5269 -0.3531
 3458TIP3   OH231788   1.202   2.069   2.890  0.2980  0.7210  0.4322
 3458TIP3    H131789   1.287   2.108   2.872  0.0855  0.8172 -0.4411
 3458TIP3    H231790   1.210   1.978   2.861  0.2401  0.6090  0.7655
 3459TIP3   OH231791   3.882   6.653   3.314 -0.0876  0.3836 -0.1382
 3459TIP3    H131792   3.892   6.748   3.315  1.2449  0.2878 -1.4564
 3459TIP3    H231793   3.970   6.619   3.301 -0.8535 -0.8814 -2.9822
 3460TIP3   OH231794   3.608   4.587   0.622 -0.2008 -0.4865  0.5459
 3460TIP3    H131795   3.556   4.595   0.702  0.9604  0.9503  1.2157
 3460TIP3    H231796   3.698   4.577   0.654  0.4105  1.1486 -0.5504
 3461TIP3   OH231797   3.445   0.772   6.149 -0.1425  0.0392 -0.2336
 3461TIP3    H131798   3.400   0.741   6.227 -0.0793 -0.4783 -0.4006
 3461TIP3    H231799   3.429   0.704   6.084  3.5412 -1.8226  0.5665
 3462TIP3   OH231800   5.625   0.349  17.170 -0.1151  0.2620  0.1175
 3462TIP3    H131801   5.602   0.412  17.102  0.2559  1.1115  0.7663
 3462TIP3    H231802   5.716   0.328  17.153  1.1807  3.2837  2.4423
 3463TIP3   OH231803   4.152   1.246  16.258 -0.1302  0.0375  0.1145
 3463TIP3    H131804   4.216   1.309  16.228  0.5212  0.3405  1.9877
 3463TIP3    H231805   4.069   1.277  16.221  0.8587 -1.1363 -3.5069
 3464TIP3   OH231806   0.274   0.981  13.477 -0.1850  0.1750  0.2609
 3464TIP3    H131807   0.227   1.064  13.481  2.3628  1.7100  0.5814
 3464TIP3    H231808   0.238   0.929  13.549 -1.4429  1.1987  0.4079
 3465TIP3   OH231809   2.431   4.276   5.316 -0.0370  0.2654  0.1288
 3465TIP3    H131810   2.432   4.364   5.279  0.9028  0.1016 -0.2635
 3465TIP3    H231811   2.519   4.265   5.354  0.0669 -0.7172 -0.3591
 3466TIP3   OH231812   3.870   5.477  13.962  0.0149 -0.2160  0.1186
 3466TIP3    H131813   3.822   5.414  14.016 -0.2984 -0.9307 -0.9522
 3466TIP3    H231814   3.839   5.459  13.873  2.3920 -0.8162 -0.6489
 3467TIP3   OH231815   2.633   0.612  15.691  0.3630 -0.3529 -0.1699
 3467TIP3    H131816   2.641   0.592  15.784  0.2943 -0.6213 -0.2212
 3467TIP3    H231817   2.711   0.664  15.671 -0.6910  1.6447  0.5418
 3468TIP3   OH231818   2.772   5.971   1.751  0.3343 -0.0674 -0.7108
 3468TIP3    H131819   2.686   5.944   1.782  0.9765 -1.1360  0.2298
 3468TIP3    H231820   2.809   6.021   1.823  0.3501  0.7502 -1.2742
 3469TIP3   OH231821   1.872   5.402  13.972  0.1919  0.0398  0.2257
 3469TIP3    H131822   1.792   5.443  14.003 -0.4853 -1.2477  0.2424
 3469TIP3    H231823   1.845   5.316  13.941  1.3760  0.0246 -0.8994
 3470TIP3   OH231824   5.261   3.884   2.593 -0.4143  0.6340 -0.0170
 3470TIP3    H131825   5.190   3.853   2.537  1.3842  1.5252 -2.9794
 3470TIP3    H231826   5.280   3.972   2.562 -0.1762  1.7858  2.9916
 3471TIP3   OH231827   4.185   4.422  11.253 -0.4526  0.1365  0.0104
 3471TIP3    H131828   4.106   4.369  11.254  0.4966 -1.3591 -0.9978
 3471TIP3    H231829   4.236   4.389  11.179  0.9080  1.3934  0.3251
 3472TIP3   OH231830   5.352   2.070   3.015  0.7858 -0.2423  0.2929
 3472TIP3    H131831   5.355   2.067   3.111  1.6748 -0.0452  0.2787
 3472TIP3    H231832   5.384   2.158   2.993  2.6682 -1.0138 -0.2488
 3473TIP3   OH231833   3.795   0.030  13.685 -0.1195  0.1723  0.1095
 3473TIP3    H131834   3.793   0.115  13.729 -1.1432 -0.7568  1.9997
 3473TIP3    H231835   3.811   0.050  13.593 -0.2793  2.4003  0.5280
 3474TIP3   OH231836   0.516   6.156   0.926 -0.2536 -0.5885  0.1102
 3474TIP3    H131837   0.425   6.127   0.934 -0.4178  0.1048  0.9007
 3474TIP3    H231838   0.548   6.163   1.016 -0.6539  2.9067  0.1316
 3475TIP3   OH231839   1.898   5.885  14.217 -0.4879 -0.1569 -0.0559
 3475TIP3    H131840   1.868   5.863  14.305  0.6425 -0.9528  0.1538
 3475TIP3    H231841   1.905   5.981  14.217  2.1349 -0.2507  1.6543
 3476TIP3   OH231842   6.231   3.322  11.516 -0.5914 -0.0369  0.5688
 3476TIP3    H131843   6.196   3.336  11.428 -2.2419  0.8394  1.3167
 3476TIP3    H231844   6.320   3.355  11.512 -0.5001 -0.3775 -0.8697
 3477TIP3   OH231845   0.990   6.333   1.092 -0.1844  0.0474 -0.1739
 3477TIP3    H131846   1.077   6.299   1.070 -0.4374 -0.2935 -0.6420
 3477TIP3    H231847   1.005   6.426   1.109  0.1243  0.1702 -1.1073
 3478TIP3   OH231848   4.532   5.284  14.160 -0.8066  0.8795 -0.4782
 3478TIP3    H131849   4.603   5.278  14.096  0.9921  0.6550  1.4487
 3478TIP3    H231850   4.459   5.238  14.118  0.7635 -0.6130 -1.7603
 3479TIP3   OH231851   5.851   3.431   6.453  0.0875  0.1961  0.4109
 3479TIP3    H131852   5.827   3.517   6.487  0.3442 -0.4496  2.3510
 3479TIP3    H231853   5.771   3.380   6.460  0.2883 -0.0968  0.5979
 3480TIP3   OH231854   1.457   4.304  12.438  0.0361  0.2637 -0.1433
 3480TIP3    H131855   1.522   4.294  12.369 -0.3737 -2.5975 -0.2601
 3480TIP3    H231856   1.461   4.221  12.486 -1.8152  0.9723  1.3632
 3481TIP3   OH231857   6.603   1.705   5.687 -0.7877 -0.0484 -0.0032
 3481TIP3    H131858   6.572   1.658   5.764  0.0505  1.7231  1.4948
 3481TIP3    H231859   6.533   1.766   5.665  0.0227  1.3310  1.0737
 3482TIP3   OH231860   5.088   4.742  11.311 -0.7492 -0.2605  0.1025
 3482TIP3    H131861   5.161   4.689  11.279  0.5142  0.4954  1.5939
 3482TIP3    H231862   5.025   4.742  11.239  0.1907 -1.9154 -0.7799
 3483TIP3   OH231863   0.810   2.250  16.450  0.1300 -0.2362  0.0376
 3483TIP3    H131864   0.873   2.286  16.388 -0.4356 -0.9641 -0.9971
 3483TIP3    H231865   0.740   2.314  16.452  0.2947 -0.0615  0.1496
 3484TIP3   OH231866   3.420   5.604  14.449  0.3159  0.0430 -0.3581
 3484TIP3    H131867   3.424   5.699  14.461  1.8529 -0.1362  0.8760
 3484TIP3    H231868   3.330   5.581  14.471 -0.2606  1.2701 -1.3101
 3485TIP3   OH231869   4.230   2.570  13.824  0.4737  0.0746  0.1457
 3485TIP3    H131870   4.221   2.657  13.863  0.9634 -1.0762  3.1366
 3485TIP3    H231871   4.317   2.540  13.853 -0.0414 -1.7420 -0.0492
 3486TIP3   OH231872   2.142   5.210  14.543 -0.3691 -0.0381 -0.1428
 3486TIP3    H131873   2.228   5.247  14.523 -0.0925 -0.4155  0.3368
 3486TIP3    H231874   2.088   5.232  14.467  0.4409 -0.7494 -0.9339
 3487TIP3   OH231875   1.088   3.727   6.445  0.2101 -0.4613  0.0189
 3487TIP3    H131876   1.049   3.813   6.460  0.9706  0.4553 -2.6823
 3487TIP3    H231877   1.014   3.669   6.428 -0.2176  0.6449 -2.2743
 3488TIP3   OH231878   6.328   0.861  13.293  0.2197 -0.2042 -0.0117
 3488TIP3    H131879   6.337   0.775  13.252  0.0969 -1.0575  1.6577
 3488TIP3    H231880   6.260   0.906  13.243  1.5759 -0.3220 -2.0791
 3489TIP3   OH231881   1.373   6.183  16.060 -0.6952 -0.0372  0.0850
 3489TIP3    H131882   1.296   6.183  16.003 -0.8123  0.8210  0.2316
 3489TIP3    H231883   1.360   6.259  16.117 -0.5366 -0.8265  1.2032
 3490TIP3   OH231884   5.173   6.777   0.615 -0.2853 -0.7123 -0.0925
 3490TIP3    H131885   5.268   6.781   0.619 -0.1588 -2.9459  0.4897
 3490TIP3    H231886   5.154   6.698   0.564 -1.8805  0.6859 -1.8258
 3491TIP3   OH231887   0.130   6.173  12.893 -0.1072  0.4447  0.1982
 3491TIP3    H131888   0.143   6.195  12.800 -1.2607 -1.5739 -0.5094
 3491TIP3    H231889   0.037   6.152  12.900 -0.0583  0.6362  1.8553
 3492TIP3   OH231890   3.218   4.870  15.505 -0.1042  0.2926 -0.1454
 3492TIP3    H131891   3.234   4.784  15.545 -0.0140  1.2614  2.0489
 3492TIP3    H231892   3.144   4.855  15.446  1.6162 -1.8413 -1.9643
 3493TIP3   OH231893   2.306   2.961   0.038 -0.0907  0.3715 -0.3859
 3493TIP3    H131894   2.309   2.866   0.042 -1.3507  0.2694 -1.1161
 3493TIP3    H231895   2.374   2.991   0.098  1.4521 -0.9801 -1.3920
 3494TIP3   OH231896   0.157   6.013   5.625  0.2322 -0.2619 -0.4939
 3494TIP3    H131897   0.242   6.056   5.630  0.6135 -0.9654 -0.7220
 3494TIP3    H231898   0.155   5.975   5.538 -0.9248  0.9529 -1.0312
 3495TIP3   OH231899   2.295   2.307   4.196 -0.7289 -0.0659 -0.1979
 3495TIP3    H131900   2.294   2.252   4.274 -2.1209 -2.2284 -1.6178
 3495TIP3    H231901   2.255   2.390   4.224  0.4001 -0.1277  1.7462
 3496TIP3   OH231902   6.539   1.009  13.380  0.0369 -0.3533 -0.1244
 3496TIP3    H131903   6.597   1.002  13.304  0.6974 -1.4612  0.4764
 3496TIP3    H231904   6.473   0.941  13.366  0.0947 -0.4849  0.2525
 3497TIP3   OH231905   4.733   6.518  11.323  0.0512  0.4365 -0.1578
 3497TIP3    H131906   4.756   6.611  11.327 -0.3617  0.6643 -1.9980
 3497TIP3    H231907   4.784   6.484  11.250 -0.2799 -0.6502  0.0975
 3498TIP3   OH231908   5.242   4.460  12.650  0.0684 -0.0454 -0.2601
 3498TIP3    H131909   5.150   4.485  12.647 -0.1079 -0.3048  1.6205
 3498TIP3    H231910   5.289   4.541  12.672  0.1968 -0.0739 -0.4267
 3499TIP3   OH231911   3.316   4.900   2.650 -0.4005 -0.0747 -0.6770
 3499TIP3    H131912   3.227   4.929   2.668 -0.3750  0.8678 -1.9111
 3499TIP3    H231913   3.369   4.940   2.719 -0.6849  0.9838 -1.0469
 3500TIP3   OH231914   4.531   4.205  15.363 -1.0718 -0.2067  0.2565
 3500TIP3    H131915   4.458   4.185  15.304 -1.2976  1.3377 -0.0543
 3500TIP3    H231916   4.605   4.222  15.305 -1.1675  0.8385  0.4148
 3501TIP3   OH231917   4.563   3.678   3.723 -0.4058  0.5031  0.2489
 3501TIP3    H131918   4.618   3.743   3.766 -0.1644 -0.3517  1.2644
 3501TIP3    H231919   4.570   3.600   3.778  0.7327 -0.9801 -1.8719
 3502TIP3   OH231920   1.655   5.034  12.841  0.2046  0.2419 -0.1031
 3502TIP3    H131921   1.705   5.045  12.921  0.1649 -0.2190 -0.0144
 3502TIP3    H231922   1.651   4.940  12.827 -0.9098  0.2459  0.0717
 3503TIP3   OH231923   6.339   5.968   4.661 -0.0478  0.2156  0.1343
 3503TIP3    H131924   6.243   5.958   4.659  0.0416 -1.2971  1.4072
 3503TIP3    H231925   6.353   6.061   4.680 -1.2783  0.3172  0.6568
 3504TIP3   OH231926   4.872   4.973   3.015 -0.1341  0.2435  0.1765
 3504TIP3    H131927   4.891   4.974   3.108  1.3928  1.1674 -0.1111
 3504TIP3    H231928   4.805   5.040   3.003 -1.0211 -0.5259  0.7145
 3505TIP3   OH231929   4.945   4.274   5.289  0.2389  0.2463  0.0229
 3505TIP3    H131930   4.959   4.212   5.218  0.3741  0.2961  0.0041
 3505TIP3    H231931   4.852   4.271   5.307  0.1391  0.5301 -0.4267
 3506TIP3   OH231932   2.145   6.670   5.336  0.2643 -0.6627  0.5175
 3506TIP3    H131933   2.096   6.614   5.395 -2.0254  1.4092  0.7297
 3506TIP3    H231934   2.176   6.742   5.391  0.2727 -0.0012 -0.3173
 3507TIP3   OH231935   0.944   3.093   4.678  0.0731 -0.3057 -0.6823
 3507TIP3    H131936   0.894   3.039   4.740  1.5135  1.6302  2.3946
 3507TIP3    H231937   1.033   3.059   4.683  0.7175  1.4185  0.2854
 3508TIP3   OH231938   3.826   0.466   3.475 -0.0363 -0.0882 -0.0274
 3508TIP3    H131939   3.871   0.431   3.398  0.6736 -1.2728  0.8747
 3508TIP3    H231940   3.736   0.480   3.446  0.3871  0.2199 -1.2715
 3509TIP3   OH231941   4.390   6.307  11.375  0.5292  0.0593 -0.3103
 3509TIP3    H131942   4.374   6.379  11.313 -0.0690  1.2123  1.1292
 3509TIP3    H231943   4.419   6.234  11.319 -1.9835  0.3659 -2.1916
 3510TIP3   OH231944   0.314   3.507   3.749 -0.0730 -0.2547 -0.0072
 3510TIP3    H131945   0.278   3.558   3.676 -1.4918  0.3773  1.0841
 3510TIP3    H231946   0.238   3.467   3.790  0.8818 -2.0809  0.0679
 3511TIP3   OH231947   4.675   1.237   1.647  0.3454 -0.0441 -0.7390
 3511TIP3    H131948   4.610   1.220   1.580  1.2144 -1.5993 -1.2610
 3511TIP3    H231949   4.667   1.330   1.667 -0.0825  0.4176 -2.8454
 3512TIP3   OH231950   1.050   0.996   3.534  0.1690  0.4775  0.4869
 3512TIP3    H131951   1.007   0.944   3.602 -1.2332 -0.5868 -1.1289
 3512TIP3    H231952   1.118   0.938   3.500 -0.1139  0.4369 -0.0121
 3513TIP3   OH231953   4.122   0.115   2.251 -0.0135 -0.0838 -0.0782
 3513TIP3    H131954   4.167   0.030   2.256 -0.0563 -0.1940 -1.1700
 3513TIP3    H231955   4.145   0.159   2.332  1.4543 -0.4434 -0.2579
 3514TIP3   OH231956   1.858   4.612  12.180 -0.4225 -0.0816  0.4418
 3514TIP3    H131957   1.917   4.536  12.177 -0.9499 -0.4684 -1.4458
 3514TIP3    H231958   1.916   4.687  12.192  0.2156 -0.6637  1.1369
 3515TIP3   OH231959   1.281   0.032  13.561 -0.3713 -0.1703 -0.0964
 3515TIP3    H131960   1.308   0.095  13.494 -1.1457 -0.7846 -1.0031
 3515TIP3    H231961   1.193   0.061  13.586 -0.6527 -0.7688 -0.3793
 3516TIP3   OH231962   1.157   3.770  16.387 -0.0465 -0.4985  0.1336
 3516TIP3    H131963   1.114   3.811  16.312  0.5204 -0.1771 -0.0233
 3516TIP3    H231964   1.113   3.686  16.397 -0.5585 -0.2682 -0.1584
 3517TIP3   OH231965   5.028   6.310  11.447  0.9735  0.1725 -0.6800
 3517TIP3    H131966   4.939   6.280  11.463  1.3418 -0.2880  0.6534
 3517TIP3    H231967   5.042   6.296  11.353  0.0472 -0.8286 -0.6877
 3518TIP3   OH231968   6.119   6.613  17.028  0.0369  0.8005 -0.6038
 3518TIP3    H131969   6.211   6.610  17.002  0.3019  2.0851  0.0589
 3518TIP3    H231970   6.071   6.628  16.946  0.2704 -1.0954 -1.1278
 3519TIP3   OH231971   6.365   1.124   0.605  0.2758  0.0106 -0.4193
 3519TIP3    H131972   6.324   1.111   0.519 -0.9841 -0.7353  0.2588
 3519TIP3    H231973   6.457   1.102   0.591  0.5231  1.7615 -2.0035
 3520TIP3   OH231974   6.030   4.551   4.013  0.2587 -0.2054  0.2515
 3520TIP3    H131975   6.083   4.535   3.934 -2.1105 -0.2356 -1.4256
 3520TIP3    H231976   6.047   4.643   4.034 -0.3232  0.2977 -1.3214
 3521TIP3   OH231977   1.886   4.965   6.827 -0.0394  0.3844 -0.1981
 3521TIP3    H131978   1.822   4.900   6.800  0.6716 -1.4395  2.1659
 3521TIP3    H231979   1.970   4.919   6.825  0.3558  0.7730  2.5923
 3522TIP3   OH231980   1.806   2.003  16.516 -0.6938 -0.0322 -0.0800
 3522TIP3    H131981   1.852   1.976  16.436 -1.9025 -0.1355 -0.7699
 3522TIP3    H231982   1.719   2.028  16.486 -1.1669 -0.0501  1.2142
 3523TIP3   OH231983   2.684   6.624   3.263  0.3402  0.5476  0.1965
 3523TIP3    H131984   2.717   6.660   3.346 -0.6938 -0.2313  0.9696
 3523TIP3    H231985   2.628   6.693   3.228 -2.2556 -0.4725  2.0501
 3524TIP3   OH231986   3.598   0.727  12.698 -0.2100  0.0549  0.5589
 3524TIP3    H131987   3.653   0.718  12.775 -0.6830  2.0112  1.1817
 3524TIP3    H231988   3.606   0.819  12.673 -1.5645 -0.0981 -0.5764
 3525TIP3   OH231989   6.079   4.126   3.908  0.0066 -0.3564 -0.6264
 3525TIP3    H131990   6.077   4.137   3.813 -3.4807 -1.2900 -0.7746
 3525TIP3    H231991   6.013   4.186   3.941 -0.9915 -2.1940  0.8831
 3526TIP3   OH231992   3.188   4.090  14.102 -0.1051 -0.2003  0.4471
 3526TIP3    H131993   3.099   4.060  14.122 -0.6569 -0.5295 -2.2012
 3526TIP3    H231994   3.185   4.185  14.115 -1.9865  0.3784 -2.9437
 3527TIP3   OH231995   4.746   3.238  12.489  0.1456  0.3313 -0.0506
 3527TIP3    H131996   4.704   3.163  12.530 -0.0299  1.2290  1.4773
 3527TIP3    H231997   4.783   3.288  12.562 -1.0740  2.5389 -0.8442
 3528TIP3   OH231998   5.576   0.528   4.678 -0.4969  0.1462  0.1065
 3528TIP3    H131999   5.654   0.548   4.729 -1.1386 -1.2197  1.7065
 3528TIP3    H232000   5.504   0.533   4.740 -1.3827 -0.9992 -0.7755
 3529TIP3   OH232001   2.955   0.392   3.539 -0.1991 -0.1222  0.4104
 3529TIP3    H132002   3.042   0.405   3.578 -0.4531  0.2702  0.8560
 3529TIP3    H232003   2.961   0.433   3.453  0.6324 -1.7485 -0.3357
 3530TIP3   OH232004   1.034   0.813   0.863 -0.7660  0.3704  0.2060
 3530TIP3    H132005   0.972   0.817   0.791 -0.6422 -1.6756 -0.0726
 3530TIP3    H232006   1.110   0.862   0.833 -1.9402  2.4057  0.3201
 3531TIP3   OH232007   5.965   0.126  14.882  0.0878  0.1212  0.2577
 3531TIP3    H132008   5.900   0.190  14.910 -1.6209 -0.8956 -1.2322
 3531TIP3    H232009   5.981   0.146  14.790  1.7598  0.1992  0.5296
 3532TIP3   OH232010   3.372   5.096  11.709 -0.2907  0.0311  0.1538
 3532TIP3    H132011   3.336   5.150  11.638  0.3078 -2.8283 -2.5722
 3532TIP3    H232012   3.295   5.069  11.759 -1.1443 -0.1834 -1.1943
 3533TIP3   OH232013   1.732   3.980   6.453  0.3371  0.7201  0.3414
 3533TIP3    H132014   1.642   3.981   6.421  0.8999 -0.1564 -1.4155
 3533TIP3    H232015   1.751   3.887   6.468  0.8600  0.9197  0.9305
 3534TIP3   OH232016   4.712   3.384  16.536  0.0911  0.3758 -0.5467
 3534TIP3    H132017   4.724   3.371  16.630 -0.1972 -0.3905 -0.6087
 3534TIP3    H232018   4.672   3.471  16.528  0.4735  0.6054  0.0063
 3535TIP3   OH232019   5.716   6.787  13.306 -0.0336 -0.2819  0.1070
 3535TIP3    H132020   5.678   6.863  13.262  0.0271 -0.5786 -0.4731
 3535TIP3    H232021   5.656   6.715  13.286 -0.5827 -0.2094  1.4136
 3536TIP3   OH232022   2.505   6.689  13.295 -0.0477  0.3637  1.1436
 3536TIP3    H132023   2.560   6.768  13.291  0.3857  0.0365  0.2771
 3536TIP3    H232024   2.417   6.722  13.317 -0.3651  1.3764 -1.3220
 3537TIP3   OH232025   0.846   4.409   5.939  0.3225  0.1689  0.7567
 3537TIP3    H132026   0.817   4.322   5.912  0.3847 -0.5628  2.8819
 3537TIP3    H232027   0.936   4.396   5.970 -0.1213  0.6881  2.3406
 3538TIP3   OH232028   1.185   4.462   1.707  0.4778 -0.2783  0.3003
 3538TIP3    H132029   1.270   4.422   1.688 -0.3971 -1.8146 -0.5774
 3538TIP3    H232030   1.176   4.532   1.642  1.4475  0.5479  1.0075
 3539TIP3   OH232031   6.427   0.703   2.430  0.3588  0.1819  0.1734
 3539TIP3    H132032   6.364   0.763   2.470 -0.0923  0.9552 -1.6149
 3539TIP3    H232033   6.451   0.744   2.348  1.9759 -0.9066  0.0538
 3540TIP3   OH232034   5.474   4.404   3.668 -0.0071  0.4757  0.9516
 3540TIP3    H132035   5.531   4.363   3.603 -0.3907 -0.3496  1.1242
 3540TIP3    H232036   5.437   4.479   3.623  1.5809  1.3307  0.9872
 3541TIP3   OH232037   3.020   2.961   0.420 -0.2298 -0.2950  0.4303
 3541TIP3    H132038   3.053   2.874   0.399 -0.6603 -0.5200  0.6795
 3541TIP3    H232039   3.015   3.006   0.336  2.2969  0.3272  0.5305
 3542TIP3   OH232040   2.399   3.472   4.759 -0.6202  0.1086  0.6701
 3542TIP3    H132041   2.361   3.385   4.763 -3.0733  1.1242  1.4758
 3542TIP3    H232042   2.371   3.508   4.675  0.9411 -0.0791  0.0393
 3543TIP3   OH232043   0.777   5.796   0.811  0.1964 -0.2341 -0.6924
 3543TIP3    H132044   0.768   5.819   0.903  0.0044  2.0270 -1.2220
 3543TIP3    H232045   0.691   5.764   0.785 -0.0930  0.2618 -0.3634
 3544TIP3   OH232046   2.855   3.443   1.173  0.0569  0.3507  0.3939
 3544TIP3    H132047   2.765   3.440   1.205  0.2748 -0.1132  0.9988
 3544TIP3    H232048   2.905   3.396   1.240  0.5008 -0.8600 -0.7635
 3545TIP3   OH232049   5.387   5.141   2.654  0.5832  0.2777 -0.4875
 3545TIP3    H132050   5.315   5.126   2.593  1.4069 -1.3523 -1.1155
 3545TIP3    H232051   5.444   5.204   2.608 -0.2588  1.3232 -0.1229
 3546TIP3   OH232052   3.871   4.768  15.061  0.5597  0.6466 -0.9378
 3546TIP3    H132053   3.962   4.793  15.044  0.2052  1.7936 -1.2853
 3546TIP3    H232054   3.841   4.832  15.126 -0.4987  1.4304 -2.1363
 3547TIP3   OH232055   2.649   0.977   4.885  0.1868 -0.5168 -0.4826
 3547TIP3    H132056   2.573   0.919   4.882 -0.2687  0.0190  0.2532
 3547TIP3    H232057   2.723   0.922   4.862 -0.3379 -1.1987 -0.5680
 3548TIP3   OH232058   4.649   1.742   1.226 -0.0972 -0.1793  0.4081
 3548TIP3    H132059   4.692   1.659   1.243 -1.1947 -0.8952 -0.1490
 3548TIP3    H232060   4.674   1.765   1.136 -1.5661 -1.0933 -0.2850
 3549TIP3   OH232061   6.471   3.433  15.726  0.5752  0.2169  0.1037
 3549TIP3    H132062   6.443   3.366  15.788  0.2407 -0.5168 -0.8094
 3549TIP3    H232063   6.520   3.385  15.659  2.1969  1.1901  0.5367
 3550TIP3   OH232064   3.239   4.222  16.169  0.3020 -0.4726  0.1709
 3550TIP3    H132065   3.269   4.140  16.209  1.8490  0.5506  1.2571
 3550TIP3    H232066   3.145   4.223  16.184  0.3571 -1.7082  0.7712
 3551TIP3   OH232067   0.809   1.705   4.996 -0.8603 -0.5256  0.5322
 3551TIP3    H132068   0.716   1.692   4.978 -0.7514 -0.6123  0.0340
 3551TIP3    H232069   0.843   1.617   5.012 -1.0817 -0.4022  1.8144
 3552TIP3   OH232070   3.730   4.944   3.624 -0.2295  0.1140  0.0713
 3552TIP3    H132071   3.823   4.935   3.602 -0.2114  0.2833  0.0778
 3552TIP3    H232072   3.692   4.860   3.599 -0.0527 -0.0007  0.1803
 3553TIP3   OH232073   1.556   4.453  15.587 -0.3111 -0.5355 -0.3652
 3553TIP3    H132074   1.602   4.524  15.630  2.1696 -1.8811 -0.6204
 3553TIP3    H232075   1.493   4.496  15.530 -1.5076  1.3336  2.1826
 3554TIP3   OH232076   4.782   3.937  11.951 -0.3080 -0.3829  0.4858
 3554TIP3    H132077   4.758   3.954  11.860  1.6068 -0.9429 -0.1825
 3554TIP3    H232078   4.700   3.916  11.995 -1.4298  1.0909 -0.8282
 3555TIP3   OH232079   5.305   4.679  16.298 -0.1309  0.2215  0.0957
 3555TIP3    H132080   5.238   4.723  16.245 -0.3865  0.1206  0.3354
 3555TIP3    H232081   5.387   4.701  16.254 -0.4782 -1.5109 -1.5456
 3556TIP3   OH232082   3.249   3.911   1.654 -0.1647  0.2597  0.2337
 3556TIP3    H132083   3.238   3.990   1.705  1.3375  1.0568 -0.6087
 3556TIP3    H232084   3.297   3.851   1.712 -0.3594  0.3614  0.4991
 3557TIP3   OH232085   3.639   5.786   3.685 -0.1627 -0.0365 -0.0891
 3557TIP3    H132086   3.703   5.794   3.755  0.1233 -1.8007 -0.1041
 3557TIP3    H232087   3.554   5.801   3.728 -0.1683 -2.8488  1.1115
 3558TIP3   OH232088   2.115   4.056  14.288 -0.2519  0.1134  0.5888
 3558TIP3    H132089   2.028   4.097  14.289 -0.3678 -0.1375  0.8619
 3558TIP3    H232090   2.098   3.962  14.285  0.0017  0.0414  1.2348
 3559TIP3   OH232091   3.629   1.499   3.626  0.0570  0.4117 -0.1718
 3559TIP3    H132092   3.623   1.594   3.637  0.0640  0.5238 -1.0561
 3559TIP3    H232093   3.541   1.473   3.599  0.5048  0.4295 -1.7200
 3560TIP3   OH232094   6.494   0.378  14.481 -0.1272 -0.2420  0.6246
 3560TIP3    H132095   6.582   0.342  14.477 -0.7921 -2.2166  2.3230
 3560TIP3    H232096   6.503   0.458  14.533  0.9653  0.8321 -1.1055
 3561TIP3   OH232097   5.787   0.947  11.531  0.3279 -0.0034  0.2146
 3561TIP3    H132098   5.695   0.945  11.555 -0.2807 -1.4529 -1.9708
 3561TIP3    H232099   5.814   0.855  11.527  1.1641  0.2612 -1.5152
 3562TIP3   OH232100   6.721   5.642   0.982 -0.0226 -0.7273  0.5921
 3562TIP3    H132101   6.686   5.731   0.981  2.1584  0.2068  1.6419
 3562TIP3    H232102   6.669   5.596   1.047 -0.0705  0.2801  1.2849
 3563TIP3   OH232103   1.443   4.832   2.984 -0.1150  0.1039 -0.5027
 3563TIP3    H132104   1.423   4.760   3.044  1.6396  0.7711  0.9955
 3563TIP3    H232105   1.506   4.794   2.923  0.8120  0.3144  0.2875
 3564TIP3   OH232106   5.978   4.160  11.411  0.3496 -0.4212  0.3845
 3564TIP3    H132107   6.012   4.208  11.336 -0.8910 -0.8657 -0.4988
 3564TIP3    H232108   6.037   4.182  11.483  1.3502  0.3009 -0.6319
 3565TIP3   OH232109   2.077   5.223   0.061  1.2613  0.0151  0.2579
 3565TIP3    H132110   2.033   5.254   0.140  1.0107 -1.4575  0.7313
 3565TIP3    H232111   2.090   5.302   0.009  1.1829  0.9806  1.6368
 3566TIP3   OH232112   2.660   6.687   4.865  0.1335 -0.4984 -0.2346
 3566TIP3    H132113   2.653   6.739   4.945  0.0922 -3.1936  1.6711
 3566TIP3    H232114   2.751   6.697   4.838  0.2408  0.2080  0.3553
 3567TIP3   OH232115   1.400   2.032   0.247 -0.3981 -0.2606 -0.5836
 3567TIP3    H132116   1.400   2.028   0.343  0.3406 -1.4367 -0.6189
 3567TIP3    H232117   1.466   2.099   0.227 -1.5184  0.9907 -0.2759
 3568TIP3   OH232118   0.573   5.772  15.784 -0.0756 -0.2016  0.1566
 3568TIP3    H132119   0.528   5.753  15.866 -1.3831  1.2277 -0.1811
 3568TIP3    H232120   0.627   5.848  15.804  0.2987 -0.4001 -0.0877
 3569TIP3   OH232121   6.671   5.286  12.368 -0.4220 -0.2651  0.0670
 3569TIP3    H132122   6.679   5.241  12.283  1.2958 -0.3507  0.2274
 3569TIP3    H232123   6.577   5.293  12.383 -0.8523  0.9818 -2.5060
 3570TIP3   OH232124   1.228   2.330   3.113  0.1711  0.3712 -0.0107
 3570TIP3    H132125   1.166   2.403   3.104 -0.0369  0.1805 -0.1214
 3570TIP3    H232126   1.190   2.260   3.061  1.8076  1.0769 -2.3169
 3571TIP3   OH232127   2.371   2.272   1.543  0.1657  0.2815  0.1722
 3571TIP3    H132128   2.318   2.196   1.517  2.0124 -1.1535  0.3732
 3571TIP3    H232129   2.422   2.241   1.618  0.6524  1.8827  0.5348
 3572TIP3   OH232130   1.571   0.811  12.410 -0.2338  0.0473 -0.0923
 3572TIP3    H132131   1.524   0.891  12.436  2.7363  1.4538  1.4478
 3572TIP3    H232132   1.577   0.816  12.315  1.7092  2.9159  0.0617
 3573TIP3   OH232133   2.167   4.627   5.243 -1.0028 -0.7002  0.3598
 3573TIP3    H132134   2.254   4.597   5.214 -1.1778 -0.4127 -0.4698
 3573TIP3    H232135   2.117   4.637   5.162 -1.7301 -0.5966  0.8185
 3574TIP3   OH232136   6.443   5.726   1.150 -0.3991  0.2190  0.2642
 3574TIP3    H132137   6.461   5.788   1.079  1.0679  0.2253  0.6146
 3574TIP3    H232138   6.509   5.658   1.139 -0.4013  0.0202  1.4136
 3575TIP3   OH232139   3.468   5.745  16.415  0.1809  0.1403 -0.0822
 3575TIP3    H132140   3.508   5.670  16.370  0.3105 -0.3289  0.8002
 3575TIP3    H232141   3.396   5.707  16.466 -2.0141  1.0531 -2.2688
 3576TIP3   OH232142   5.102   0.265   5.520  0.2808 -0.3289  0.3858
 3576TIP3    H132143   5.069   0.296   5.604 -2.7099 -0.1427 -0.7374
 3576TIP3    H232144   5.124   0.345   5.472 -1.7182 -0.1644 -0.3422
 3577TIP3   OH232145   2.998   1.675   0.624  0.7105  0.0081  0.0153
 3577TIP3    H132146   2.951   1.757   0.607  0.0363 -0.4195 -0.2205
 3577TIP3    H232147   3.021   1.679   0.717  0.7911  0.5140 -0.0231
 3578TIP3   OH232148   5.724   6.089  15.531 -0.1303  0.0410 -0.3543
 3578TIP3    H132149   5.733   6.154  15.462 -0.9543 -1.2289 -1.6982
 3578TIP3    H232150   5.746   6.137  15.611 -0.1834  1.8185 -1.3457
 3579TIP3   OH232151   6.082   4.929  16.603  0.0388 -0.2034 -0.1616
 3579TIP3    H132152   6.020   4.856  16.599 -1.2204  0.9011 -1.3554
 3579TIP3    H232153   6.125   4.918  16.688 -3.0654  0.0132  1.5679
 3580TIP3   OH232154   0.693   2.919  15.466 -0.2537  0.2641 -0.2705
 3580TIP3    H132155   0.767   2.882  15.514 -0.5950  1.4714  1.2928
 3580TIP3    H232156   0.668   2.996  15.517 -1.8112  0.5814 -1.4375
 3581TIP3   OH232157   2.969   1.542  11.497 -0.4170  0.1327 -0.0003
 3581TIP3    H132158   2.885   1.552  11.542 -0.7501 -2.0758 -0.0174
 3581TIP3    H232159   3.030   1.516  11.567 -0.0073  0.6582 -0.1627
 3582TIP3   OH232160   5.815   3.824  10.966  0.3773  0.0469 -0.1424
 3582TIP3    H132161   5.796   3.732  10.946  1.5234 -0.2859  0.2380
 3582TIP3    H232162   5.803   3.869  10.882  1.0468 -0.6607 -0.6432
 3583TIP3   OH232163   1.967   4.507   3.623  0.1591 -0.3455  0.6420
 3583TIP3    H132164   2.020   4.444   3.672  0.8223  1.9216  3.0484
 3583TIP3    H232165   1.999   4.501   3.533  0.8950 -2.6422  0.9934
 3584TIP3   OH232166   5.706   4.369   0.317  0.3004 -0.3773 -0.3966
 3584TIP3    H132167   5.620   4.411   0.318  0.4504  0.0546  2.2146
 3584TIP3    H232168   5.697   4.294   0.376  1.4666 -0.8747 -0.8178
 3585TIP3   OH232169   6.210   0.087  11.735 -0.3817  0.0926 -0.0800
 3585TIP3    H132170   6.222   0.077  11.641  1.6083  1.6302 -0.0690
 3585TIP3    H232171   6.273   0.026  11.774 -0.8295 -0.1650  0.2381
 3586TIP3   OH232172   2.423   1.447   4.667  0.1098 -0.0050  0.2743
 3586TIP3    H132173   2.395   1.513   4.731 -0.6319  0.8441 -0.8782
 3586TIP3    H232174   2.425   1.365   4.717 -1.3044  0.4748  1.1921
 3587TIP3   OH232175   1.097   3.195  12.926 -0.6728  0.5358  1.4512
 3587TIP3    H132176   1.108   3.114  12.976 -1.2923  0.1132  0.9188
 3587TIP3    H232177   1.003   3.202  12.912 -0.4053 -0.7194 -1.8037
 3588TIP3   OH232178   1.692   3.535   1.621 -0.5134 -0.2395  0.9684
 3588TIP3    H132179   1.626   3.529   1.690 -2.2028  1.0941 -0.4371
 3588TIP3    H232180   1.722   3.626   1.625  0.3156 -0.5016  0.7744
 3589TIP3   OH232181   4.179   4.890  16.204 -0.4033  0.3111 -0.7656
 3589TIP3    H132182   4.252   4.941  16.169 -0.1553  0.2612 -0.3253
 3589TIP3    H232183   4.217   4.804  16.223 -0.5318  0.3389 -0.3702
 3590TIP3   OH232184   2.874   2.429   0.699  0.7687  0.3613  0.4172
 3590TIP3    H132185   2.935   2.363   0.665  0.5451 -0.5015  1.6078
 3590TIP3    H232186   2.856   2.401   0.789 -1.0685  0.8097  0.2409
 3591TIP3   OH232187   3.760   0.278  14.871  0.2053 -0.4415 -0.3445
 3591TIP3    H132188   3.748   0.213  14.802 -0.7720  0.2051 -0.8015
 3591TIP3    H232189   3.775   0.226  14.950  1.1703 -1.1922 -0.9984
 3592TIP3   OH232190   4.530   1.507   5.782  0.4412 -0.7512 -0.2815
 3592TIP3    H132191   4.488   1.546   5.706  0.6353 -0.9774 -0.5046
 3592TIP3    H232192   4.537   1.414   5.761  0.2954 -0.8506  0.1044
 3593TIP3   OH232193   5.361   1.324  10.531  0.0986 -0.1730 -0.1876
 3593TIP3    H132194   5.365   1.414  10.563  1.7835 -0.7452  1.3611
 3593TIP3    H232195   5.399   1.328  10.443  1.8942  0.3800  0.5772
 3594TIP3   OH232196   5.487   0.916   0.537 -1.0182  0.0520 -0.0264
 3594TIP3    H132197   5.576   0.914   0.502 -0.5968 -0.2719  1.0157
 3594TIP3    H232198   5.492   0.867   0.619 -2.2465 -0.2940 -0.1358
 3595TIP3   OH232199   2.717   6.568  11.547 -0.3790 -0.1305  0.2471
 3595TIP3    H132200   2.637   6.617  11.566 -0.4160  0.5719 -1.4543
 3595TIP3    H232201   2.781   6.635  11.523  0.2005 -0.7774 -0.0677
 3596TIP3   OH232202   1.641   5.385   1.630  0.1011  0.2569  0.1990
 3596TIP3    H132203   1.578   5.454   1.609 -0.4739 -0.4427 -0.4006
 3596TIP3    H232204   1.592   5.304   1.620  0.4835 -0.2192  1.9169
 3597TIP3   OH232205   1.188   0.099  14.515  0.2897 -0.3109 -0.2639
 3597TIP3    H132206   1.116   0.038  14.530  0.5645 -0.7237 -0.6025
 3597TIP3    H232207   1.190   0.153  14.594  0.1160 -0.8145  0.0910
 3598TIP3   OH232208   2.174   1.653  15.596  0.0910 -0.0226 -0.3246
 3598TIP3    H132209   2.134   1.648  15.510  0.6989 -0.3019 -0.5965
 3598TIP3    H232210   2.114   1.707  15.648  0.0016  0.6203 -1.0762
 3599TIP3   OH232211   2.342   1.376  14.548 -0.2009 -0.5461 -0.3396
 3599TIP3    H132212   2.436   1.391  14.535 -0.4646  0.1035 -1.6936
 3599TIP3    H232213   2.325   1.406  14.637  0.6333  0.5590 -0.5394
 3600TIP3   OH232214   3.830   0.028  16.319 -0.2332  0.0173 -0.9086
 3600TIP3    H132215   3.911   0.016  16.270  0.0300 -3.1489  0.0498
 3600TIP3    H232216   3.779  -0.051  16.300 -1.1686 -0.1540  1.9209
 3601TIP3   OH232217   5.121   6.112   5.665 -0.4165 -0.0579  0.4063
 3601TIP3    H132218   5.092   6.177   5.729 -1.3237 -1.6787  1.7411
 3601TIP3    H232219   5.040   6.069   5.637  0.2791 -2.0264  1.2137
 3602TIP3   OH232220   3.104   6.070   3.938 -0.0855  0.1345 -0.3727
 3602TIP3    H132221   3.062   6.014   4.003 -0.2405  0.6786  0.0003
 3602TIP3    H232222   3.076   6.034   3.854  0.9987 -1.2695 -0.1867
 3603TIP3   OH232223   3.011   1.237   5.996 -0.0497  0.3982 -0.0902
 3603TIP3    H132224   3.026   1.243   5.901 -1.0827 -0.5055 -0.3280
 3603TIP3    H232225   3.000   1.328   6.024  0.8720  0.7189 -0.7266
 3604TIP3   OH232226   0.098   5.187   3.950 -0.0369 -0.0572 -0.2267
 3604TIP3    H132227   0.054   5.244   4.014  0.4160 -0.3486  0.3552
 3604TIP3    H232228   0.160   5.245   3.906 -1.4935  0.5398 -1.5867
 3605TIP3   OH232229   1.629   1.874   1.549  0.3388  0.1988  0.3559
 3605TIP3    H132230   1.644   1.955   1.597  1.3041 -0.7828  1.7626
 3605TIP3    H232231   1.663   1.805   1.606  1.0286 -1.0678 -1.4878
 3606TIP3   OH232232   5.332   1.123  13.349  0.3576  0.7740  0.0176
 3606TIP3    H132233   5.318   1.082  13.435 -1.6053 -0.7361 -0.9465
 3606TIP3    H232234   5.398   1.190  13.365  0.0659  0.5242  2.6989
 3607TIP3   OH232235   5.687   3.114  14.494 -0.3645 -0.0510 -0.1817
 3607TIP3    H132236   5.641   3.118  14.577 -3.4167  1.3273 -1.7748
 3607TIP3    H232237   5.761   3.174  14.504 -0.8165  0.2801  1.4158
 3608TIP3   OH232238   4.491   4.316   3.313 -0.6268  0.5917  0.0283
 3608TIP3    H132239   4.570   4.344   3.358 -0.4224 -0.3177  0.2523
 3608TIP3    H232240   4.424   4.313   3.382 -0.5420  0.1127  0.0909
 3609TIP3   OH232241   4.557   6.107  13.134  0.1859 -0.3721  0.1621
 3609TIP3    H132242   4.525   6.172  13.196 -0.2508  0.1577 -0.5943
 3609TIP3    H232243   4.483   6.047  13.121 -0.4526  0.6871 -1.3675
 3610TIP3   OH232244   6.612   2.095   1.015  0.3361  0.6078  0.2688
 3610TIP3    H132245   6.581   2.145   0.939  0.1092  1.7878  1.1312
 3610TIP3    H232246   6.560   2.014   1.012 -0.7450  1.2906  0.0192
 3611TIP3   OH232247   3.547   1.612  16.977 -0.0912  1.1215  0.0721
 3611TIP3    H132248   3.628   1.663  16.981  0.8424 -0.3247  0.0930
 3611TIP3    H232249   3.553   1.550  17.049 -1.6637  1.5743  0.6506
 3612TIP3   OH232250   3.535   5.888   1.809  0.3659  0.4221  0.4442
 3612TIP3    H132251   3.447   5.896   1.844  0.3038  0.0018  0.3840
 3612TIP3    H232252   3.529   5.818   1.744  0.3858  1.4633 -0.7122
 3613TIP3   OH232253   0.653   4.384   4.536  0.5000  0.1903 -0.0756
 3613TIP3    H132254   0.708   4.443   4.587 -0.0001  0.0224  0.6760
 3613TIP3    H232255   0.702   4.369   4.455  1.4579  0.2176  0.4832
 3614TIP3   OH232256   5.527   4.039   1.812 -0.0653 -0.2168  0.0868
 3614TIP3    H132257   5.601   4.070   1.759 -0.5915  0.8120 -0.0694
 3614TIP3    H232258   5.455   4.031   1.750 -1.4421  3.5307  0.9418
 3615TIP3   OH232259   3.226   0.028   1.562  0.5213  0.4669 -0.0811
 3615TIP3    H132260   3.240   0.092   1.631  0.9763 -0.9152  1.1516
 3615TIP3    H232261   3.314   0.007   1.530  0.3723  0.4657 -0.5012
 3616TIP3   OH232262   3.733   6.564   0.987  0.5102 -0.4858  0.3105
 3616TIP3    H132263   3.782   6.643   0.967 -1.6848  1.0064  0.4507
 3616TIP3    H232264   3.723   6.565   1.082 -0.3688 -0.3675  0.2260
 3617TIP3   OH232265   6.330   6.624   5.049  0.4461  0.5691  0.5661
 3617TIP3    H132266   6.266   6.555   5.063 -0.7373  1.3597 -0.7096
 3617TIP3    H232267   6.288   6.703   5.082  1.0981  0.9708  0.4532
 3618TIP3   OH232268   1.989   0.289  16.882  0.2282 -0.0391  0.4216
 3618TIP3    H132269   2.011   0.379  16.908 -0.7590 -0.3522  2.5759
 3618TIP3    H232270   1.903   0.296  16.841  1.2565  0.2881 -1.8160
 3619TIP3   OH232271   3.815   5.738  17.068 -0.1301 -0.3221  0.4961
 3619TIP3    H132272   3.847   5.801  17.003  1.4739 -1.6398 -0.0767
 3619TIP3    H232273   3.865   5.658  17.049 -1.8175 -1.6492  1.4380
 3620TIP3   OH232274   5.935   1.069   6.611 -0.6493  0.3961 -0.2175
 3620TIP3    H132275   5.972   1.156   6.624 -1.4207  0.7443 -0.2451
 3620TIP3    H232276   5.882   1.054   6.690 -0.1366 -0.2535  0.0080
 3621TIP3   OH232277   3.764   1.942   4.629  0.3508  0.3318 -0.0248
 3621TIP3    H132278   3.835   2.004   4.645  1.5800 -0.6387 -1.4142
 3621TIP3    H232279   3.771   1.922   4.536 -2.4733  1.0184 -0.4612
 3622TIP3   OH232280   5.661   5.533  16.734  0.0636 -0.6349 -0.5749
 3622TIP3    H132281   5.711   5.529  16.653 -0.6336  0.2368 -1.0650
 3622TIP3    H232282   5.622   5.620  16.735 -0.9932 -1.0858  0.0637
 3623TIP3   OH232283   4.679   1.140   6.074  0.0606  0.1832  0.0157
 3623TIP3    H132284   4.743   1.208   6.096  0.5401 -0.4060  0.5047
 3623TIP3    H232285   4.722   1.087   6.007 -1.2473  1.7383 -2.1888
 3624TIP3   OH232286   3.803   3.187   0.309 -0.4333 -0.0964 -0.1760
 3624TIP3    H132287   3.778   3.098   0.284  0.3609 -0.6892  1.0138
 3624TIP3    H232288   3.786   3.240   0.231 -1.5492 -1.1609 -0.6910
 3625TIP3   OH232289   2.354   2.090  13.875  0.0553 -0.0901  0.7469
 3625TIP3    H132290   2.324   2.049  13.794  1.5237  2.0530 -1.0135
 3625TIP3    H232291   2.287   2.155  13.896  0.2139  0.1311  0.5802
 3626TIP3   OH232292   2.274   6.471  13.210  0.1848  0.0370  0.4750
 3626TIP3    H132293   2.363   6.453  13.180 -0.3263  0.0934 -1.2169
 3626TIP3    H232294   2.231   6.386  13.211  0.0003  0.1272  0.3415
 3627TIP3   OH232295   3.058   3.331  17.155 -0.6983  0.0645 -0.2723
 3627TIP3    H132296   3.143   3.317  17.198 -0.4540  1.1990 -0.3442
 3627TIP3    H232297   3.072   3.301  17.065 -0.4713 -0.0617 -0.1986
 3628TIP3   OH232298   4.314   6.014   4.714 -0.3940 -0.8311  0.1641
 3628TIP3    H132299   4.361   6.035   4.794  0.4195 -1.1492 -0.2144
 3628TIP3    H232300   4.254   5.944   4.738  0.2078 -1.2750  0.3871
 3629TIP3   OH232301   3.049   5.381  15.269 -0.3985 -0.4869  0.0391
 3629TIP3    H132302   3.076   5.462  15.226 -2.6933  0.5144  0.3554
 3629TIP3    H232303   3.125   5.323  15.260  0.4283  0.8264 -2.3275
 3630TIP3   OH232304   5.689   4.751  11.838  0.0138  0.2942 -0.0468
 3630TIP3    H132305   5.607   4.799  11.829 -0.6880 -0.8939 -0.2930
 3630TIP3    H232306   5.748   4.811  11.883 -1.2642  0.8686  0.9173
 3631TIP3   OH232307   3.651   3.449  13.096 -0.3540  0.0188  0.3262
 3631TIP3    H132308   3.652   3.541  13.073  0.7102 -0.3231 -1.1295
 3631TIP3    H232309   3.660   3.403  13.013  1.0329 -1.3464  1.1669
 3632TIP3   OH232310   0.694   3.736   4.348 -0.1711  0.1254 -0.0915
 3632TIP3    H132311   0.677   3.782   4.431 -1.4566  0.3227 -0.4467
 3632TIP3    H232312   0.634   3.777   4.286 -1.3664 -2.0060 -0.4288
 3633TIP3   OH232313   5.559   5.527   0.092 -0.6748  0.1694 -0.2686
 3633TIP3    H132314   5.591   5.473   0.164 -1.0076 -1.1225 -1.0486
 3633TIP3    H232315   5.496   5.471   0.046 -1.6897  1.5411 -0.6157
 3634TIP3   OH232316   0.480   5.766  13.180 -0.2770 -0.1299 -0.6640
 3634TIP3    H132317   0.446   5.830  13.243 -0.8244  1.0705 -2.1051
 3634TIP3    H232318   0.420   5.692  13.186  0.2906 -0.5013  0.9431
 3635TIP3   OH232319   1.570   3.863  13.813 -0.3409 -0.0239 -0.2366
 3635TIP3    H132320   1.622   3.791  13.850 -1.6267 -1.3461 -0.9342
 3635TIP3    H232321   1.583   3.855  13.718  1.6490  2.3617 -0.2581
 3636TIP3   OH232322   6.726   0.319  13.815 -0.5520  0.5986 -0.1344
 3636TIP3    H132323   6.685   0.280  13.893 -0.7243  0.1778 -0.4317
 3636TIP3    H232324   6.748   0.409  13.842  0.9091 -0.0310  0.9511
 3637TIP3   OH232325   3.792   4.424  16.269  0.1318 -0.3041  0.7175
 3637TIP3    H132326   3.775   4.365  16.196  1.1334 -0.7478  0.8312
 3637TIP3    H232327   3.708   4.431  16.314 -0.3147 -0.5900 -0.0604
 3638TIP3   OH232328   4.920   0.225  11.075 -0.2710 -0.3404 -0.3498
 3638TIP3    H132329   4.950   0.181  11.154  2.9296  1.6368 -0.2592
 3638TIP3    H232330   4.997   0.226  11.017 -1.4164  1.3829 -1.9831
 3639TIP3   OH232331   0.707   3.335  12.141 -0.2546 -0.2352 -0.0058
 3639TIP3    H132332   0.653   3.329  12.063 -0.7471  0.2667  0.2902
 3639TIP3    H232333   0.647   3.363  12.211 -0.1002 -1.9108  0.8500
 3640TIP3   OH232334   5.123   4.502   0.127  0.3766 -0.0450 -0.3012
 3640TIP3    H132335   5.189   4.572   0.127  0.7075 -0.3453  0.3210
 3640TIP3    H232336   5.049   4.540   0.174  0.0453  0.3396 -1.1170
 3641TIP3   OH232337   3.906   4.041   3.797  0.0755 -0.0373 -0.2306
 3641TIP3    H132338   3.899   4.133   3.770 -0.2781 -0.3278 -1.1915
 3641TIP3    H232339   3.918   4.044   3.891 -2.5578  0.9153  0.1546
 3642TIP3   OH232340   4.858   5.388   0.453 -0.3718  0.1303 -0.7018
 3642TIP3    H132341   4.837   5.363   0.363  1.0582 -0.9831 -0.7755
 3642TIP3    H232342   4.795   5.456   0.475 -1.8554 -0.7781 -1.9495
 3643TIP3   OH232343   4.316   1.245  13.555  0.3990 -0.0103 -0.1032
 3643TIP3    H132344   4.318   1.168  13.499 -0.5412  0.1028 -0.3220
 3643TIP3    H232345   4.337   1.318  13.497 -1.9146  0.2844 -0.6969
 3644TIP3   OH232346   3.221   3.825  14.613  0.1682 -0.4137 -0.5802
 3644TIP3    H132347   3.187   3.826  14.702 -0.1403  0.2665 -0.6980
 3644TIP3    H232348   3.268   3.907  14.604  3.2738 -1.9741  0.0752
 3645TIP3   OH232349   5.908   0.801  15.814 -0.8532 -0.0347  0.2275
 3645TIP3    H132350   5.883   0.867  15.879 -2.5357  0.5119 -0.8947
 3645TIP3    H232351   5.977   0.844  15.762 -0.8424  0.2510  0.4771
 3646TIP3   OH232352   5.920   2.146  16.167  0.4424  0.2545 -0.6777
 3646TIP3    H132353   5.867   2.144  16.088 -2.5277 -1.1851  1.1749
 3646TIP3    H232354   5.976   2.069  16.160 -0.7330 -0.6122 -0.8667
 3647TIP3   OH232355   0.384   5.782  15.301  0.5503 -0.4002 -0.2254
 3647TIP3    H132356   0.447   5.740  15.359  1.5244  1.2171 -0.0335
 3647TIP3    H232357   0.319   5.822  15.359  0.4108 -0.4691 -0.3331
 3648TIP3   OH232358   2.704   4.115  12.336  0.2067  0.1490  0.2396
 3648TIP3    H132359   2.794   4.140  12.314 -0.0697  0.9334 -0.0289
 3648TIP3    H232360   2.690   4.032  12.291  0.5735  0.3516 -0.2503
 3649TIP3   OH232361   3.209   6.042  11.509  0.2457  0.1260  0.6056
 3649TIP3    H132362   3.251   6.059  11.593 -0.0534  1.5358  0.5011
 3649TIP3    H232363   3.265   6.086  11.445 -0.9147  1.3616  0.3836
 3650TIP3   OH232364   0.824   4.031  14.107  0.9883  0.4636 -0.0611
 3650TIP3    H132365   0.842   3.987  14.025  0.7352 -0.6454  0.4619
 3650TIP3    H232366   0.907   4.032  14.153  1.6158  2.8152 -1.0847
 3651TIP3   OH232367   6.682   1.371  12.494 -0.3012 -0.2111 -0.3555
 3651TIP3    H132368   6.615   1.368  12.426  0.4643  0.9428 -1.1949
 3651TIP3    H232369   6.661   1.449  12.546  1.0470  0.8692 -1.3661
 3652TIP3   OH232370   4.950   2.935  11.776 -0.4455 -0.4084 -0.6258
 3652TIP3    H132371   4.913   3.000  11.836  0.1280 -1.1648  0.5763
 3652TIP3    H232372   4.884   2.867  11.769 -0.8769  0.0791 -1.5726
 3653TIP3   OH232373   3.809   1.744  16.948 -0.2849  0.0866  0.3550
 3653TIP3    H132374   3.824   1.751  17.042  1.8818 -0.2648  0.0872
 3653TIP3    H232375   3.855   1.819  16.911  1.8787 -1.6208 -0.6330
 3654TIP3   OH232376   1.544   2.824  15.683 -0.0690  0.4989 -0.6276
 3654TIP3    H132377   1.458   2.864  15.698  0.3990  0.9487  1.0153
 3654TIP3    H232378   1.599   2.897  15.655  0.0317  0.3892 -0.7164
 3655TIP3   OH232379   1.171   3.986   0.212  0.3916  0.5180  0.6121
 3655TIP3    H132380   1.162   4.050   0.141 -0.7958 -0.1550  0.1298
 3655TIP3    H232381   1.102   4.010   0.273 -1.5669 -1.5834 -0.6283
 3656TIP3   OH232382   0.216   2.751  13.816  0.4929 -0.3005 -0.6254
 3656TIP3    H132383   0.297   2.714  13.849  1.4444  1.9668 -0.2288
 3656TIP3    H232384   0.232   2.845  13.813 -2.3680  0.3190  0.1674
 3657TIP3   OH232385   1.622   3.616  14.447  0.0377  0.5945 -0.1182
 3657TIP3    H132386   1.533   3.633  14.417 -0.0803  0.8806  0.3884
 3657TIP3    H232387   1.670   3.594  14.367 -0.8654 -1.3264 -0.1851
 3658TIP3   OH232388   6.290   1.076   3.916 -0.1607 -0.4990  0.2808
 3658TIP3    H132389   6.235   1.140   3.961 -0.6140 -0.4181 -0.3850
 3658TIP3    H232390   6.267   0.993   3.957  0.4325 -0.2515  1.1510
 3659TIP3   OH232391   2.581   5.318   1.229 -0.1296  0.0244  0.5061
 3659TIP3    H132392   2.578   5.349   1.139  0.7843  0.4457  0.6108
 3659TIP3    H232393   2.611   5.227   1.222 -3.3945 -1.1683  0.1525
 3660TIP3   OH232394   2.554   0.807   0.652  0.2785  0.0911  0.0631
 3660TIP3    H132395   2.611   0.850   0.588 -1.1031  0.7442 -0.7748
 3660TIP3    H232396   2.576   0.850   0.735  0.3437  1.0098 -0.4113
 3661TIP3   OH232397   4.585   2.329   5.877  0.0641 -0.1943  0.7362
 3661TIP3    H132398   4.616   2.243   5.846  0.6324 -0.3899  1.7996
 3661TIP3    H232399   4.653   2.390   5.850 -0.0246 -0.1727  0.5567
 3662TIP3   OH232400   3.237   5.290   2.921 -0.2332  0.3003  0.1918
 3662TIP3    H132401   3.159   5.325   2.964 -1.9601 -2.4122 -0.4598
 3662TIP3    H232402   3.219   5.196   2.911  2.6538 -0.2430 -1.0510
 3663TIP3   OH232403   0.770   0.467  11.884 -0.8578  0.2343 -0.0967
 3663TIP3    H132404   0.847   0.521  11.898 -1.1859  0.8053 -0.4423
 3663TIP3    H232405   0.794   0.381  11.918 -0.6751  0.8427  1.3594
 3664TIP3   OH232406   4.349   1.508   1.319 -0.3009  0.8638 -0.8490
 3664TIP3    H132407   4.340   1.468   1.233  1.2415  0.6443 -0.9414
 3664TIP3    H232408   4.359   1.601   1.301  1.2210  0.6952 -1.0351
 3665TIP3   OH232409   1.121   2.145   0.715 -1.1867 -0.6736  0.0067
 3665TIP3    H132410   1.088   2.176   0.630 -2.4865 -2.1152 -0.0572
 3665TIP3    H232411   1.215   2.165   0.713 -1.1155 -1.0148 -1.9338
 3666TIP3   OH232412   3.962   2.665  13.790  0.0275 -0.6452 -0.2624
 3666TIP3    H132413   3.920   2.650  13.874  1.1319  1.9524  0.8568
 3666TIP3    H232414   4.041   2.611  13.791 -1.1995 -2.5272 -0.7401
 3667TIP3   OH232415   3.262   0.614   3.097  0.0123 -0.0142 -0.0502
 3667TIP3    H132416   3.177   0.655   3.115  0.8890  1.2025  1.5341
 3667TIP3    H232417   3.255   0.584   3.006 -1.7499  0.9590 -0.2850
 3668TIP3   OH232418   0.747   6.016  11.987 -0.3196 -0.2046  0.3036
 3668TIP3    H132419   0.653   6.011  11.971 -0.0657 -2.9204 -0.9065
 3668TIP3    H232420   0.781   6.073  11.918 -0.8794 -0.6433 -0.3450
 3669TIP3   OH232421   1.491   6.335   0.036  0.7924 -0.0304  0.1586
 3669TIP3    H132422   1.483   6.393  -0.040  2.2614  0.4507  0.3514
 3669TIP3    H232423   1.400   6.322   0.065 -0.0976 -1.9749 -2.9369
 3670TIP3   OH232424   2.299   1.174   5.642 -0.2768 -0.4482 -0.1908
 3670TIP3    H132425   2.394   1.187   5.646 -0.3975  0.5779 -0.4121
 3670TIP3    H232426   2.283   1.142   5.554  0.0595 -2.5804  0.4610
 3671TIP3   OH232427   1.732   5.774   3.646  0.5026  0.7596 -0.3478
 3671TIP3    H132428   1.719   5.847   3.707 -1.0090 -0.1712  0.5188
 3671TIP3    H232429   1.819   5.789   3.609  0.6171  2.4783  0.4964
 3672TIP3   OH232430   5.254   6.250   1.650  0.0933 -0.0316 -0.0242
 3672TIP3    H132431   5.263   6.163   1.690 -1.6177 -0.1650  0.1530
 3672TIP3    H232432   5.303   6.244   1.568  0.8352 -0.8353  0.4613
 3673TIP3   OH232433   6.637   5.966   2.638 -0.4368  0.0150 -0.1291
 3673TIP3    H132434   6.595   5.919   2.566 -0.4788  2.0208 -1.4782
 3673TIP3    H232435   6.731   5.964   2.616 -0.3386 -0.2263  0.2989
 3674TIP3   OH232436   5.810   5.890   0.325 -0.3294  0.5657 -0.1388
 3674TIP3    H132437   5.803   5.836   0.246 -2.2373  0.6088 -0.0450
 3674TIP3    H232438   5.837   5.829   0.393  3.6074  0.8990 -1.1219
 3675TIP3   OH232439   4.660   0.251   0.130  0.6358  0.2384  0.0378
 3675TIP3    H132440   4.609   0.293   0.061 -1.8170 -0.4697  1.2977
 3675TIP3    H232441   4.678   0.163   0.097  0.1585  0.1634 -0.0283
 3676TIP3   OH232442   3.032   6.518   5.912 -0.1577 -0.0546  0.3033
 3676TIP3    H132443   2.971   6.471   5.970 -2.1618  1.1429 -0.7297
 3676TIP3    H232444   3.097   6.452   5.887 -1.3507 -1.5542  0.9834
 3677TIP3   OH232445   1.682   6.553   4.153 -0.1494 -0.1242  0.3975
 3677TIP3    H132446   1.661   6.460   4.144 -0.0908 -0.1511  0.5394
 3677TIP3    H232447   1.739   6.558   4.230  1.3039 -0.2051 -0.6215
 3678TIP3   OH232448   5.772   5.247  14.177  0.1755  0.2587  0.0949
 3678TIP3    H132449   5.686   5.258  14.137 -0.3024 -1.5455  0.5510
 3678TIP3    H232450   5.797   5.157  14.157  1.3786  0.3411  1.0835
 3679TIP3   OH232451   4.866   5.693  12.041  0.2011 -0.1841  0.3599
 3679TIP3    H132452   4.778   5.661  12.022  0.4134  0.4959 -2.1755
 3679TIP3    H232453   4.913   5.616  12.073 -1.4560 -0.3838  2.5409
 3680TIP3   OH232454   0.734   2.521  13.634  0.1707  0.0374 -0.2900
 3680TIP3    H132455   0.785   2.440  13.628 -0.1333 -0.1079 -1.0106
 3680TIP3    H232456   0.643   2.492  13.626  0.0681  0.4626 -0.6873
 3681TIP3   OH232457   6.635   1.436   4.443  0.2490 -0.0289  0.1176
 3681TIP3    H132458   6.677   1.425   4.528  0.6077  2.5413  0.3374
 3681TIP3    H232459   6.544   1.458   4.463  0.1938  0.0237 -0.1764
 3682TIP3   OH232460   5.662   4.311  13.814 -0.7693  0.7232  0.3290
 3682TIP3    H132461   5.641   4.244  13.748 -1.2608  1.2064 -0.0106
 3682TIP3    H232462   5.743   4.280  13.854 -0.4481  0.4422 -0.5243
 3683TIP3   OH232463   3.713   0.673   2.305 -0.0923 -0.6381  0.0473
 3683TIP3    H132464   3.747   0.585   2.317  0.4229 -0.2959  1.1935
 3683TIP3    H232465   3.774   0.730   2.352 -0.8857  0.2487  0.0512
 3684TIP3   OH232466   2.235   0.600  13.535 -0.2045  0.0345  0.0043
 3684TIP3    H132467   2.233   0.589  13.440 -0.5400  0.6634 -0.0663
 3684TIP3    H232468   2.143   0.596  13.562 -0.1415  0.2260  0.2549
 3685TIP3   OH232469   4.840   2.312  16.019  0.7193 -0.0557 -0.4898
 3685TIP3    H132470   4.908   2.305  16.087  1.6717  1.4229 -1.2184
 3685TIP3    H232471   4.823   2.222  15.992  0.1795 -0.7124  1.7961
 3686TIP3   OH232472   6.132   1.253  16.820  0.3511  0.1941 -0.0976
 3686TIP3    H132473   6.063   1.241  16.885  1.7824  0.8803  1.6381
 3686TIP3    H232474   6.203   1.295  16.868  1.9783 -0.4492 -1.8110
 3687TIP3   OH232475   6.756   2.425   0.876 -0.8077 -0.2622  0.5066
 3687TIP3    H132476   6.783   2.504   0.829  0.2962 -1.1379 -0.3914
 3687TIP3    H232477   6.685   2.389   0.823 -0.2598 -0.6972  0.0618
 3688TIP3   OH232478   2.541   4.726   1.957 -0.0645 -0.5519 -0.5631
 3688TIP3    H132479   2.632   4.711   1.929 -0.1613 -0.7083 -0.7933
 3688TIP3    H232480   2.488   4.679   1.893 -0.3679  0.5217 -1.1366
 3689TIP3   OH232481   3.111   0.146   0.612  0.5030 -0.0081 -0.6577
 3689TIP3    H132482   3.033   0.091   0.613  1.4285 -1.4072  1.6410
 3689TIP3    H232483   3.116   0.178   0.522 -1.0126 -2.3766 -1.6846
 3690TIP3   OH232484   6.280   1.826  13.188 -0.0290  0.7901  0.6085
 3690TIP3    H132485   6.252   1.736  13.206  0.1634  0.5165 -0.3871
 3690TIP3    H232486   6.320   1.856  13.270 -1.5217  0.5396  1.4635
 3691TIP3   OH232487   0.073   4.132  15.475 -0.4708  0.2486 -0.2246
 3691TIP3    H132488   0.031   4.140  15.561  1.4411  0.4681  0.7263
 3691TIP3    H232489   0.111   4.044  15.475  1.5252  1.0629  0.1275
 3692TIP3   OH232490   3.004   3.151  16.105 -0.2208 -0.6232  0.0213
 3692TIP3    H132491   2.931   3.203  16.139 -0.9737 -1.7432  0.1705
 3692TIP3    H232492   2.963   3.090  16.045  0.5993 -1.2977  0.1400
 3693TIP3   OH232493   4.328   5.591   4.446 -0.5520  0.7683  0.1181
 3693TIP3    H132494   4.329   5.680   4.481  1.0092  1.1901 -0.9070
 3693TIP3    H232495   4.277   5.541   4.510  0.3814  1.9302  1.8655
 3694TIP3   OH232496   0.847   6.511  12.503 -0.7111  0.3144  0.3268
 3694TIP3    H132497   0.854   6.502  12.408  1.0396  0.7374  0.3893
 3694TIP3    H232498   0.847   6.606  12.519  1.7327  0.2834  0.8672
 3695TIP3   OH232499   0.899   2.864   2.900  0.2069 -0.4496 -0.3251
 3695TIP3    H132500   0.951   2.786   2.879 -1.0138 -1.5680  0.6429
 3695TIP3    H232501   0.890   2.910   2.816  0.1506 -1.8424 -1.1175
 3696TIP3   OH232502   2.480   3.209  15.313 -0.9120  0.2225 -0.7753
 3696TIP3    H132503   2.424   3.181  15.241 -0.9056 -1.9438 -0.0198
 3696TIP3    H232504   2.434   3.178  15.392  1.4268 -2.0033 -0.1358
 3697TIP3   OH232505   1.829   1.806  12.250  0.3771 -0.3202 -0.0183
 3697TIP3    H132506   1.794   1.770  12.332  0.5987 -0.1354  0.1575
 3697TIP3    H232507   1.795   1.895  12.248  0.1424 -0.4137 -0.2681
 3698TIP3   OH232508   3.811   6.174  16.720 -0.5548 -0.3994 -0.1932
 3698TIP3    H132509   3.785   6.254  16.674 -0.6607 -0.7135 -0.6731
 3698TIP3    H232510   3.731   6.123  16.728  0.0124 -1.7874 -2.4765
 3699TIP3   OH232511   5.955   3.152   3.927  0.1361  0.2722 -0.0953
 3699TIP3    H132512   5.982   3.106   4.007  0.2538 -2.5649 -1.6407
 3699TIP3    H232513   6.035   3.159   3.875 -0.8192 -3.2812 -2.3693
 3700TIP3   OH232514   5.753   6.709  12.292 -0.2198  0.4959 -0.1553
 3700TIP3    H132515   5.765   6.796  12.331  2.0200  0.1488  0.0303
 3700TIP3    H232516   5.832   6.661  12.314 -1.3843 -1.6160 -0.3013
 3701TIP3   OH232517   6.352   6.654  13.905 -0.4516 -0.1725  0.2939
 3701TIP3    H132518   6.271   6.638  13.954 -0.8755  1.5875  0.2690
 3701TIP3    H232519   6.331   6.630  13.815 -0.8058 -0.1915  0.3791
 3702TIP3   OH232520   3.427   5.107  14.641 -0.1785  0.2321  0.3465
 3702TIP3    H132521   3.479   5.175  14.684 -0.6877  1.4411 -0.8545
 3702TIP3    H232522   3.481   5.078  14.567  0.4082 -1.3360  1.3584
 3703TIP3   OH232523   0.881   4.664   1.933 -0.3135  0.0135 -0.2102
 3703TIP3    H132524   0.874   4.666   2.028 -1.7313 -0.0773 -0.3017
 3703TIP3    H232525   0.970   4.633   1.917  0.0720  0.3855  1.0773
 3704TIP3   OH232526   0.436   5.019   1.685  0.1126 -0.5878  0.3728
 3704TIP3    H132527   0.513   4.965   1.668 -0.4503 -1.0991 -0.6071
 3704TIP3    H232528   0.383   5.012   1.605  0.3813  2.0228 -0.1376
 3705TIP3   OH232529   5.084   4.391  17.116  0.1103 -0.2926  0.0380
 3705TIP3    H132530   5.028   4.317  17.142  1.4397 -1.7819 -1.1691
 3705TIP3    H232531   5.081   4.451  17.191 -3.6888  0.1239 -0.2353
 3706TIP3   OH232532   0.789   5.259  13.281  0.2928 -0.5918 -0.1539
 3706TIP3    H132533   0.717   5.323  13.290  1.9066  1.1284  1.5626
 3706TIP3    H232534   0.835   5.264  13.365  2.9935 -0.8653 -1.5253
 3707TIP3   OH232535   0.274   1.642  15.162 -0.3397 -0.1240  0.1783
 3707TIP3    H132536   0.346   1.694  15.198 -0.4574 -0.0840  0.3559
 3707TIP3    H232537   0.221   1.705  15.114 -0.5248 -0.0671  0.4586
 3708TIP3   OH232538   0.868   2.134   0.252  0.0706 -0.3548  0.0610
 3708TIP3    H132539   0.955   2.097   0.236 -0.0687 -0.0193 -1.6205
 3708TIP3    H232540   0.878   2.227   0.228 -0.5706 -0.1625  0.5382
 3709TIP3   OH232541   6.244   2.640   4.910 -0.0989  0.2697 -0.1541
 3709TIP3    H132542   6.287   2.555   4.914 -0.8828 -0.0997  0.8559
 3709TIP3    H232543   6.152   2.622   4.929 -0.9687  0.8941 -3.2795
 3710TIP3   OH232544   1.395   0.362  13.084  0.0999  0.8660 -0.1327
 3710TIP3    H132545   1.448   0.416  13.026  0.3493 -0.1263 -0.8643
 3710TIP3    H232546   1.305   0.376  13.055  0.3163 -0.5649 -1.6252
 3711TIP3   OH232547   1.009   3.254   0.423  0.5916 -0.0968 -0.4994
 3711TIP3    H132548   1.080   3.315   0.442 -1.3096  1.9887  0.4229
 3711TIP3    H232549   0.989   3.214   0.507  1.0300 -1.1196 -0.8700
 3712TIP3   OH232550   3.527   1.261   1.390  0.0261  0.1521 -1.2120
 3712TIP3    H132551   3.583   1.271   1.467 -1.8003  0.2977  0.1524
 3712TIP3    H232552   3.471   1.338   1.390 -1.5245 -0.9415 -1.3738
 3713TIP3   OH232553   0.748   3.539  16.098  0.2744 -0.7598  0.1339
 3713TIP3    H132554   0.734   3.600  16.026 -2.2391  0.2811  1.3742
 3713TIP3    H232555   0.740   3.452  16.057  0.4189 -0.2255 -1.0745
 3714TIP3   OH232556   4.663   1.403  17.174  0.4083  0.6180 -0.0853
 3714TIP3    H132557   4.709   1.464  17.232 -1.0800  2.0402 -0.3306
 3714TIP3    H232558   4.660   1.321  17.224  1.2273  1.1240  0.8528
 3715TIP3   OH232559   1.557   6.414   2.365 -0.2496 -0.2651 -0.1516
 3715TIP3    H132560   1.502   6.459   2.300 -0.1339 -1.4015 -1.0645
 3715TIP3    H232561   1.503   6.340   2.394  0.3437 -0.7089 -0.1772
 3716TIP3   OH232562   4.965   0.891  11.517 -0.0252  0.0935 -0.0885
 3716TIP3    H132563   4.988   0.841  11.439 -0.6394 -0.5951  0.1602
 3716TIP3    H232564   5.031   0.961  11.521  1.1025 -0.9323 -0.2136
 3717TIP3   OH232565   6.191   4.842   6.422  0.3850 -0.2202 -0.1197
 3717TIP3    H132566   6.224   4.754   6.406 -1.7246 -1.1243  0.1600
 3717TIP3    H232567   6.146   4.835   6.506  0.8766  1.3529  0.2990
 3718TIP3   OH232568   5.262   6.078   2.144  0.2168  0.1766  0.3924
 3718TIP3    H132569   5.315   6.011   2.188 -0.2181 -1.0620 -0.8950
 3718TIP3    H232570   5.302   6.086   2.058 -0.9885  0.0565 -0.1907
 3719TIP3   OH232571   5.052   3.223  16.145 -0.0695 -0.0361 -0.8244
 3719TIP3    H132572   5.097   3.252  16.066 -0.7818 -0.0867 -1.2529
 3719TIP3    H232573   4.972   3.276  16.148 -0.1338 -0.1555 -0.2291
 3720TIP3   OH232574   3.313   4.258  17.103 -0.1423 -0.0631 -0.1795
 3720TIP3    H132575   3.341   4.284  17.015  0.0598 -0.6371 -0.2890
 3720TIP3    H232576   3.218   4.266  17.102 -0.2262 -1.0517 -0.7756
 3721TIP3   OH232577   0.337   0.653  16.359  0.2879  0.0839 -0.2634
 3721TIP3    H132578   0.248   0.629  16.383  0.2524 -0.7537 -1.1498
 3721TIP3    H232579   0.346   0.744  16.386 -0.2777 -0.3041  1.3348
 3722TIP3   OH232580   5.904   5.759   3.595  0.1207  0.0998  0.1123
 3722TIP3    H132581   5.913   5.681   3.540 -0.1020 -0.6010  1.0505
 3722TIP3    H232582   5.985   5.808   3.582 -0.1037  0.1641 -1.1558
 3723TIP3   OH232583   1.103   5.139   3.361  0.0861  0.0515  0.6740
 3723TIP3    H132584   1.102   5.079   3.286  1.2049 -0.9968  1.4746
 3723TIP3    H232585   1.191   5.131   3.397  0.2958  2.2216  0.7983
 3724TIP3   OH232586   4.894   6.667   0.902  0.1054  0.4759 -0.1216
 3724TIP3    H132587   4.840   6.588   0.889 -0.0597  0.6506 -0.5291
 3724TIP3    H232588   4.906   6.702   0.814  2.4878 -0.5836 -0.2787
 3725TIP3   OH232589   1.117   3.562   4.114  0.2493 -0.0864 -0.5130
 3725TIP3    H132590   1.185   3.605   4.166  0.9223  0.0114 -1.4470
 3725TIP3    H232591   1.061   3.520   4.179  0.2687  1.1815  0.3634
 3726TIP3   OH232592   6.171   3.360   1.047  0.4153  0.5117  0.2155
 3726TIP3    H132593   6.227   3.429   1.011  0.1984  0.8096  0.4401
 3726TIP3    H232594   6.112   3.406   1.106  0.3787  0.1094  0.4978
 3727TIP3   OH232595   5.131   0.099   0.061  0.0358  0.6100  0.0933
 3727TIP3    H132596   5.146   0.094   0.155 -0.2531 -0.3847  0.1004
 3727TIP3    H232597   5.044   0.060   0.049  0.5622 -0.3580 -0.7016
 3728TIP3   OH232598   4.443   0.182   5.187 -0.4807  0.0430  0.1026
 3728TIP3    H132599   4.532   0.206   5.162 -0.9388 -1.8856 -4.5557
 3728TIP3    H232600   4.389   0.257   5.160 -0.5200 -0.0531 -0.0911
 3729TIP3   OH232601   5.913   5.013   3.359  0.2060  0.0720 -0.5201
 3729TIP3    H132602   5.993   5.038   3.312  0.5825  0.9115  0.5228
 3729TIP3    H232603   5.878   5.096   3.391  0.6771 -0.5469  1.7916
 3730TIP3   OH232604   4.863   3.881  13.665 -0.2023  0.0014 -0.0055
 3730TIP3    H132605   4.878   3.955  13.606  0.8866  1.1207  1.5907
 3730TIP3    H232606   4.870   3.918  13.752  0.8545 -2.0743  0.8573
 3731TIP3   OH232607   3.490   2.287   2.641  0.6103  0.3819  0.4386
 3731TIP3    H132608   3.424   2.274   2.573  0.3240 -0.2357  0.8257
 3731TIP3    H232609   3.449   2.256   2.721  0.4087  2.4845  1.2047
 3732TIP3   OH232610   6.529   4.320  15.768  0.1246  0.4896  0.1494
 3732TIP3    H132611   6.435   4.324  15.784 -0.0170  1.3600 -0.8394
 3732TIP3    H232612   6.538   4.312  15.673  1.0453  0.0801  0.2570
 3733TIP3   OH232613   3.986   0.352   4.782  0.6581 -0.0055  0.1781
 3733TIP3    H132614   3.976   0.309   4.698  0.5237  1.2081 -0.4498
 3733TIP3    H232615   4.081   0.358   4.795  0.7824  2.0859 -1.1531
 3734TIP3   OH232616   3.186   3.674   4.638 -0.0691 -0.1891 -0.6132
 3734TIP3    H132617   3.259   3.612   4.636  1.7515  1.8516 -0.7237
 3734TIP3    H232618   3.159   3.675   4.730  0.5066 -0.4520 -0.4337
 3735TIP3   OH232619   5.961   4.254  13.469 -0.4373 -0.4193 -0.2987
 3735TIP3    H132620   6.048   4.219  13.453 -0.7846 -2.3944  1.6260
 3735TIP3    H232621   5.973   4.349  13.470  1.4036 -0.5916 -1.4003
 3736TIP3   OH232622   4.772   0.618   2.438 -0.3284  0.0469  0.3734
 3736TIP3    H132623   4.770   0.528   2.404  0.5425  0.3043 -0.4004
 3736TIP3    H232624   4.813   0.669   2.368 -0.9234  1.0786  0.7531
 3737TIP3   OH232625   0.909   3.769   1.949  0.1801  0.1623  0.0964
 3737TIP3    H132626   0.845   3.703   1.925  1.0071  0.2741 -2.7200
 3737TIP3    H232627   0.988   3.746   1.900  1.7550  1.0758  2.0246
 3738TIP3   OH232628   6.126   3.846   5.054  0.3414  0.0878 -0.0945
 3738TIP3    H132629   6.173   3.775   5.099 -1.3799 -1.8976 -1.2489
 3738TIP3    H232630   6.171   3.854   4.970  0.4141  0.2130 -0.0431
 3739TIP3   OH232631   1.934   4.849  13.994 -0.2753  0.2967  0.3555
 3739TIP3    H132632   1.923   4.860  14.088 -2.5375 -1.3254  0.3753
 3739TIP3    H232633   1.845   4.845  13.960  0.3905 -2.3070 -1.4015
 3740TIP3   OH232634   1.126   0.430  11.967  0.1776 -0.4106 -0.6917
 3740TIP3    H132635   1.211   0.431  12.011  0.1820 -2.1383 -0.6020
 3740TIP3    H232636   1.070   0.484  12.022  1.2854  1.0447 -0.9345
 3741TIP3   OH232637   1.764   2.268   1.474  0.0542  0.2815  0.0305
 3741TIP3    H132638   1.748   2.193   1.531  0.4454 -1.1110 -1.6054
 3741TIP3    H232639   1.854   2.295   1.493  1.2181 -1.9580 -1.7707
 3742TIP3   OH232640   3.340   6.655   5.593  0.6483  0.0184 -0.0122
 3742TIP3    H132641   3.300   6.576   5.557 -0.5237  1.0958 -1.1665
 3742TIP3    H232642   3.267   6.706   5.628  1.3559  0.6831  0.5402
 3743TIP3   OH232643   3.646   0.731   4.179 -0.1341  0.4730 -0.6470
 3743TIP3    H132644   3.624   0.682   4.099 -2.1920  0.0898  0.0944
 3743TIP3    H232645   3.739   0.714   4.193 -0.4557 -2.1302 -1.1791
 3744TIP3   OH232646   4.469   1.738  11.549 -0.2339 -0.2388  0.5645
 3744TIP3    H132647   4.479   1.761  11.456  3.6391 -0.1018  0.8347
 3744TIP3    H232648   4.405   1.801  11.582 -0.1261  1.1191 -1.5827
 3745TIP3   OH232649   2.206   5.350  14.293 -0.0970 -0.1331  0.0830
 3745TIP3    H132650   2.232   5.413  14.225 -1.3036  0.6048  0.2731
 3745TIP3    H232651   2.276   5.285  14.293  0.1216  0.0503 -1.6116
 3746TIP3   OH232652   0.255   4.581  12.458  0.6200  0.1050 -0.1987
 3746TIP3    H132653   0.194   4.596  12.385 -1.0355 -1.3300  0.8245
 3746TIP3    H232654   0.262   4.667  12.501 -0.3083  0.4019 -0.6128
 3747TIP3   OH232655   5.942   2.433  16.006 -0.4390  0.0434  0.2285
 3747TIP3    H132656   5.895   2.449  16.087 -0.1223 -1.2654  0.6896
 3747TIP3    H232657   6.025   2.481  16.016 -0.3847 -0.1454  0.6901
 3748TIP3   OH232658   3.075   1.816  14.458  0.4548  0.1056 -0.7165
 3748TIP3    H132659   3.005   1.751  14.450  0.9560 -0.4385 -0.7140
 3748TIP3    H232660   3.029   1.900  14.463 -0.2015 -0.2545 -0.6104
 3749TIP3   OH232661   6.678   0.341   5.200 -0.0368 -0.2805 -0.2405
 3749TIP3    H132662   6.638   0.263   5.160  0.8671 -0.3016 -1.1268
 3749TIP3    H232663   6.709   0.392   5.127 -0.8803  1.0933  0.3227
 3750TIP3   OH232664   5.538   3.200  15.805  0.3807  0.0580  0.1123
 3750TIP3    H132665   5.451   3.238  15.809  0.2158 -0.3125  0.1014
 3750TIP3    H232666   5.597   3.274  15.795  0.0169  0.2586 -0.5667
 3751TIP3   OH232667   6.386   3.804  16.672  0.0543 -0.0892 -0.1894
 3751TIP3    H132668   6.387   3.899  16.661  1.4176 -0.2816 -2.3390
 3751TIP3    H232669   6.366   3.770  16.585 -1.7109 -1.7866  0.8173
 3752TIP3   OH232670   2.418   6.484   4.262  0.6048  0.2633 -0.2826
 3752TIP3    H132671   2.461   6.504   4.179 -2.5047  0.1045 -2.0911
 3752TIP3    H232672   2.449   6.397   4.285  1.2768  0.1773 -1.4601
 3753TIP3   OH232673   6.057   5.943  15.786 -0.0732  0.4345 -0.2718
 3753TIP3    H132674   5.981   5.909  15.738  0.9623  0.4970 -2.0111
 3753TIP3    H232675   6.129   5.886  15.762  0.9104  1.6834 -0.3798
 3754TIP3   OH232676   0.323   2.042   4.902 -0.0421 -0.7731  0.5263
 3754TIP3    H132677   0.278   2.006   4.825  0.6161 -0.8472  0.1713
 3754TIP3    H232678   0.416   2.040   4.879 -0.0052  2.3947 -0.0770
 3755TIP3   OH232679   1.709   6.173  11.448  0.3691  0.0961  0.4139
 3755TIP3    H132680   1.753   6.227  11.514  0.7192 -0.0018  0.2627
 3755TIP3    H232681   1.724   6.083  11.476  0.3506  0.0599  0.3082
 3756TIP3   OH232682   3.618   0.998  12.608  0.1378  0.3982 -0.0726
 3756TIP3    H132683   3.675   1.011  12.533  1.0116  0.7008  0.6183
 3756TIP3    H232684   3.558   1.073  12.606 -1.1068 -0.5781 -1.5180
 3757TIP3   OH232685   3.495   3.212   0.995 -0.1184 -0.3968 -0.8159
 3757TIP3    H132686   3.491   3.307   1.001  1.0813 -0.3644 -0.2599
 3757TIP3    H232687   3.521   3.183   1.083  2.8071 -0.9752 -1.7622
 3758TIP3   OH232688   6.416   1.332  15.717  0.3689 -0.1454  0.2303
 3758TIP3    H132689   6.451   1.245  15.735 -1.7435 -0.9406  0.7541
 3758TIP3    H232690   6.445   1.386  15.790 -0.2113 -0.9975  1.1088
 3759TIP3   OH232691   3.652   0.738   2.021  0.5807  0.5332 -0.1615
 3759TIP3    H132692   3.742   0.764   2.002  1.1155 -1.7186 -1.0407
 3759TIP3    H232693   3.656   0.703   2.111  0.6585  0.1850 -0.2980
 3760TIP3   OH232694   2.141   2.503  15.314  0.5057 -0.1507  0.2325
 3760TIP3    H132695   2.141   2.510  15.218  2.0711  2.9269  0.3357
 3760TIP3    H232696   2.137   2.409  15.331 -4.0094 -0.8527 -2.6936
 3761TIP3   OH232697   6.753   0.338  15.351  0.1107 -0.3376  0.2332
 3761TIP3    H132698   6.820   0.286  15.395  0.7504  0.6834  0.5001
 3761TIP3    H232699   6.740   0.415  15.407 -2.1689 -1.0520  0.8076
 3762TIP3   OH232700   0.694   6.419   4.704  0.1882 -0.4545 -0.0707
 3762TIP3    H132701   0.660   6.471   4.776  0.1533 -0.2069 -0.2673
 3762TIP3    H232702   0.617   6.396   4.651  0.5120  1.8564 -1.6844
 3763TIP3   OH232703   0.340   0.484  15.042 -0.1571 -0.0556  0.7005
 3763TIP3    H132704   0.247   0.503  15.052 -0.3415  0.3735 -1.3012
 3763TIP3    H232705   0.383   0.570  15.047 -0.1078 -0.0063 -0.3452
 3764TIP3   OH232706   5.547   2.453  13.562  0.1526  0.7587  1.1261
 3764TIP3    H132707   5.459   2.421  13.543 -0.8182  3.0345  1.4089
 3764TIP3    H232708   5.574   2.499  13.482  0.7154  0.7994  1.3329
 3765TIP3   OH232709   5.326   3.229  15.558  0.2358  0.0521  0.2832
 3765TIP3    H132710   5.365   3.313  15.581 -1.8949  1.2265 -0.1480
 3765TIP3    H232711   5.289   3.243  15.471 -1.6544 -0.7447  0.8980
 3766TIP3   OH232712   4.071   4.101   0.482  0.4324 -0.0502  0.6704
 3766TIP3    H132713   4.022   4.126   0.403 -0.0304  0.5351  1.1275
 3766TIP3    H232714   4.163   4.107   0.456  0.2791 -0.2669  0.0563
 3767TIP3   OH232715   6.149   5.135  15.458  0.0401  0.3499  0.0042
 3767TIP3    H132716   6.213   5.198  15.492 -0.4736  1.5518 -1.1703
 3767TIP3    H232717   6.079   5.133  15.523 -0.0036  1.1128 -0.0168
 3768TIP3   OH232718   0.821   3.399  11.297 -0.4249  0.0992  0.8346
 3768TIP3    H132719   0.840   3.484  11.257 -2.8778  0.8340  1.0542
 3768TIP3    H232720   0.903   3.351  11.292  0.5385  1.7974 -0.9966
 3769TIP3   OH232721   6.147   6.589   1.570 -0.3559 -0.6764  0.3646
 3769TIP3    H132722   6.205   6.551   1.636 -0.6786 -1.2743  0.3072
 3769TIP3    H232723   6.123   6.516   1.513 -0.0320 -0.1572 -0.4633
 3770TIP3   OH232724   6.767   6.050   5.094  0.3344 -0.2379 -0.3460
 3770TIP3    H132725   6.695   5.991   5.116 -1.5370  1.6575 -1.0231
 3770TIP3    H232726   6.823   5.999   5.036 -0.1737 -1.9358  0.6120
 3771TIP3   OH232727   3.338   5.866   0.025  0.4876 -0.1795 -0.4130
 3771TIP3    H132728   3.318   5.868   0.119  1.4850  0.4539 -0.2037
 3771TIP3    H232729   3.433   5.859   0.021  0.3593 -2.0451 -1.3821
 3772TIP3   OH232730   4.396   0.704   5.396 -0.6005  0.0312 -0.0391
 3772TIP3    H132731   4.329   0.719   5.329 -0.9758  1.2999  0.5930
 3772TIP3    H232732   4.354   0.729   5.478 -0.0131 -1.1202  0.6281
 3773TIP3   OH232733   2.550   2.368  13.946  0.0281  0.5323  0.2547
 3773TIP3    H132734   2.619   2.341  13.885  0.7215  0.1080  1.1947
 3773TIP3    H232735   2.488   2.417  13.892  0.0806 -0.7047 -0.9934
 3774TIP3   OH232736   2.236   0.662  16.756 -0.1588  0.3699 -0.0307
 3774TIP3    H132737   2.169   0.634  16.819  0.7643  0.1736  0.8960
 3774TIP3    H232738   2.276   0.738  16.797  1.6424 -0.7952  0.4747
 3775TIP3   OH232739   2.913   0.930   4.806  0.6946 -0.3440 -0.0721
 3775TIP3    H132740   2.933   1.009   4.755  0.5460  0.6140  1.3164
 3775TIP3    H232741   2.898   0.863   4.739 -2.1939  1.4595 -1.4757
 3776TIP3   OH232742   1.997   1.697  14.339  0.7566 -0.0398  0.9809
 3776TIP3    H132743   2.009   1.790  14.358  1.1025 -0.2734  1.9554
 3776TIP3    H232744   2.000   1.654  14.424 -1.5270 -0.7391  0.7648
 3777TIP3   OH232745   1.896   5.195  11.364 -0.1292 -0.3170  0.2467
 3777TIP3    H132746   1.978   5.215  11.319 -0.9262 -0.6173 -1.4285
 3777TIP3    H232747   1.908   5.228  11.453  2.5008 -2.0365  0.6283
 3778TIP3   OH232748   6.701   1.920  16.052  0.2532 -0.5072 -0.6401
 3778TIP3    H132749   6.711   1.876  16.136 -1.7054  0.4301  0.1358
 3778TIP3    H232750   6.739   2.007  16.065  0.3344 -0.5115 -0.8514
 3779TIP3   OH232751   5.309   6.626  13.722 -0.5055 -0.1093  0.0240
 3779TIP3    H132752   5.345   6.572  13.651  0.0438 -0.8570  0.8563
 3779TIP3    H232753   5.360   6.602  13.799  1.1111  3.0195  0.0772
 3780TIP3   OH232754   0.248   1.284  17.210 -0.4399 -0.3102 -0.7957
 3780TIP3    H132755   0.242   1.373  17.175 -0.4427 -0.6416 -1.6585
 3780TIP3    H232756   0.183   1.235  17.160  0.3359 -1.0401 -1.0958
 3781TIP3   OH232757   4.739   0.423  11.688 -0.0971  0.1982  0.3689
 3781TIP3    H132758   4.724   0.516  11.704  1.3619  0.8507 -1.7087
 3781TIP3    H232759   4.818   0.402  11.738  0.9122  0.6909 -0.9774
 3782TIP3   OH232760   2.927   3.595   0.531  0.1890  0.5929  0.4581
 3782TIP3    H132761   2.915   3.631   0.443 -0.3607  0.5175  0.4972
 3782TIP3    H232762   2.968   3.665   0.581  1.7759  0.1722 -0.2031
 3783TIP3   OH232763   2.508   2.536   4.643 -0.2527  0.5301 -0.0984
 3783TIP3    H132764   2.581   2.501   4.593  0.4802  1.6030  0.1934
 3783TIP3    H232765   2.542   2.546   4.732 -0.4213  1.9446 -0.1589
 3784TIP3   OH232766   4.197   5.051  16.851  0.5224  0.2189 -0.2020
 3784TIP3    H132767   4.225   4.965  16.883 -0.6958 -0.8349 -1.7363
 3784TIP3    H232768   4.273   5.107  16.862  1.5201 -1.1876  0.4148
 3785TIP3   OH232769   3.809   5.779   5.604  0.3468  0.1477 -0.1201
 3785TIP3    H132770   3.721   5.779   5.641  0.3909  0.7120 -0.0152
 3785TIP3    H232771   3.795   5.770   5.509  0.2612 -2.4622  0.0532
 3786TIP3   OH232772   1.547   1.061   4.556 -0.3124 -0.2597  0.2839
 3786TIP3    H132773   1.498   1.006   4.495  1.9493 -0.4271 -1.5365
 3786TIP3    H232774   1.560   1.144   4.509 -0.2146  0.3466  1.3457
 3787TIP3   OH232775   6.088   0.142   1.691  0.6594 -0.0859  0.5420
 3787TIP3    H132776   6.099   0.128   1.597  0.0577  0.1615  0.4288
 3787TIP3    H232777   6.042   0.064   1.722 -0.3488  0.4241  0.3801
 3788TIP3   OH232778   0.337   5.443  11.758 -0.1883  0.2892  0.0010
 3788TIP3    H132779   0.358   5.483  11.842 -1.2114  0.9999 -0.0678
 3788TIP3    H232780   0.279   5.506  11.715 -1.2145 -0.9049 -0.4332
 3789TIP3   OH232781   5.223   6.549   4.365  0.4325  0.1561  0.2342
 3789TIP3    H132782   5.306   6.507   4.387  0.2478  0.1055  0.8474
 3789TIP3    H232783   5.168   6.534   4.442  0.5861  2.1534  0.7792
 3790TIP3   OH232784   6.711   3.530   2.070  0.0854 -0.1601  0.4539
 3790TIP3    H132785   6.729   3.463   2.136  1.7886  1.2677  1.5445
 3790TIP3    H232786   6.742   3.611   2.109 -1.1197  1.1559 -1.1651
 3791TIP3   OH232787   0.158   2.850  15.855  0.6937 -0.0778  0.0018
 3791TIP3    H132788   0.214   2.922  15.885  1.1443 -0.3249 -0.2255
 3791TIP3    H232789   0.107   2.826  15.932  0.1832  0.8100 -0.0581
 3792TIP3   OH232790   1.541   1.775   3.091 -0.0591  0.9264  0.2074
 3792TIP3    H132791   1.581   1.855   3.058 -1.2373  1.1753 -0.6823
 3792TIP3    H232792   1.457   1.803   3.129 -0.2787  0.1792  0.3007
 3793TIP3   OH232793   3.760   2.287  11.310  0.2890 -0.1315  0.7525
 3793TIP3    H132794   3.703   2.255  11.241  1.1249 -0.8827  0.3902
 3793TIP3    H232795   3.792   2.372  11.277  1.0603 -0.7034 -0.0251
 3794TIP3   OH232796   1.311   1.188   2.340  0.5598 -0.3755 -0.3180
 3794TIP3    H132797   1.397   1.201   2.302  1.2563 -0.2570  1.2025
 3794TIP3    H232798   1.255   1.254   2.299  1.8144  1.2681  0.4995
 3795TIP3   OH232799   4.000   4.539  11.953 -0.1301 -0.1161  0.1561
 3795TIP3    H132800   4.070   4.519  12.014  2.2464  1.0023 -2.0257
 3795TIP3    H232801   3.975   4.454  11.916  1.5774 -0.3720 -0.5113
 3796TIP3   OH232802   2.225   5.606   1.248  0.0081 -0.0151  0.0201
 3796TIP3    H132803   2.232   5.528   1.192  0.2261  0.4267 -0.5754
 3796TIP3    H232804   2.215   5.679   1.186  1.1172  0.5824  0.5305
 3797TIP3   OH232805   1.008   1.271  13.218 -0.3260  0.0196 -0.0307
 3797TIP3    H132806   0.975   1.191  13.260  0.4610  0.0082  0.5642
 3797TIP3    H232807   1.087   1.293  13.266 -0.2567  0.8776 -0.5269
 3798TIP3   OH232808   4.802   6.595  11.613 -0.2266 -0.1597  0.3410
 3798TIP3    H132809   4.818   6.681  11.574  2.8217 -0.6133  0.4015
 3798TIP3    H232810   4.757   6.546  11.544  1.7596  0.2286 -1.3278
 3799TIP3   OH232811   1.239   2.201  13.705  0.0016 -0.1828  0.2510
 3799TIP3    H132812   1.210   2.235  13.790  1.6004  1.1105  0.3458
 3799TIP3    H232813   1.320   2.154  13.726  1.7201  2.1455 -0.7837
 3800TIP3   OH232814   6.006   4.944   1.981  0.2363 -0.1270 -0.0874
 3800TIP3    H132815   5.962   5.024   1.953  1.2634 -0.2616 -2.3557
 3800TIP3    H232816   6.097   4.970   1.994  0.5015 -0.8359 -0.4673
 3801TIP3   OH232817   1.319   0.121  12.746  0.0236 -0.0911  0.1679
 3801TIP3    H132818   1.385   0.052  12.737 -0.9626 -0.8157 -4.4282
 3801TIP3    H232819   1.360   0.199  12.707 -1.2420 -0.2228 -1.5812
 3802TIP3   OH232820   1.406   1.198   5.539 -0.2272  0.0259 -0.3681
 3802TIP3    H132821   1.388   1.145   5.617 -1.3292  0.9009 -0.0010
 3802TIP3    H232822   1.483   1.250   5.562  0.0635 -0.4528 -0.2478
 3803TIP3   OH232823   5.555   5.385   0.332 -0.1993 -0.4640 -0.3457
 3803TIP3    H132824   5.516   5.298   0.320 -0.2628 -0.4375 -0.3359
 3803TIP3    H232825   5.588   5.385   0.422 -0.1982 -0.4789 -0.3464
 3804TIP3   OH232826   0.245   2.093  10.423  0.3481 -0.6607 -0.4176
 3804TIP3    H132827   0.271   2.087  10.515 -2.6476 -1.5476  0.4919
 3804TIP3    H232828   0.165   2.041  10.418  1.2437 -1.9344 -3.9207
 3805TIP3   OH232829   5.307   1.163   1.041  0.5117  0.4464 -0.2615
 3805TIP3    H132830   5.388   1.155   0.991  0.0755 -1.5352 -0.7374
 3805TIP3    H232831   5.240   1.182   0.975  0.4067  0.9491 -0.0135
 3806TIP3   OH232832   6.060   1.557   3.429 -0.5464 -0.4170  0.3156
 3806TIP3    H132833   5.985   1.610   3.403 -0.0598  0.4130  0.5491
 3806TIP3    H232834   6.061   1.561   3.524  0.4647  0.5807  0.2888
 3807TIP3   OH232835   0.657   0.435   0.438 -0.1290  0.4125  0.1962
 3807TIP3    H132836   0.690   0.448   0.526 -0.8911  1.0820  0.3938
 3807TIP3    H232837   0.565   0.411   0.449  0.1966 -1.2528 -0.3502
 3808TIP3   OH232838   3.913   4.872  10.778 -0.2473 -0.5116 -0.4825
 3808TIP3    H132839   3.902   4.952  10.727 -0.3548  0.0681  0.4267
 3808TIP3    H232840   3.846   4.812  10.744 -0.5715 -0.0024 -0.7533
 3809TIP3   OH232841   3.634   2.592   2.446 -0.3082  0.2561  0.7309
 3809TIP3    H132842   3.605   2.643   2.371  0.2667  0.6318  0.7538
 3809TIP3    H232843   3.588   2.631   2.521 -1.0210 -0.2380  0.5553
 3810TIP3   OH232844   2.494   6.505   1.267  0.5175  0.1756  0.2707
 3810TIP3    H132845   2.515   6.416   1.296 -0.3265 -0.0328  0.2407
 3810TIP3    H232846   2.409   6.524   1.306  0.1002  0.4920 -0.7612
 3811TIP3   OH232847   3.743   5.764  16.456  0.3840 -0.4694  0.4694
 3811TIP3    H132848   3.657   5.780  16.418  0.7054 -0.9481 -0.5009
 3811TIP3    H232849   3.726   5.741  16.547 -0.5055 -0.4921  0.2990
 3812TIP3   OH232850   3.597   5.191  15.411 -0.2157  0.2719 -0.0219
 3812TIP3    H132851   3.528   5.130  15.382 -0.2133  0.7510 -1.0910
 3812TIP3    H232852   3.622   5.238  15.331  1.0712  0.3910  0.4364
 3813TIP3   OH232853   4.898   4.179  16.014 -0.3042 -0.6975  0.4912
 3813TIP3    H132854   4.909   4.103  15.957  0.9230  0.1808 -0.4871
 3813TIP3    H232855   4.882   4.252  15.954  1.7131  0.3776  1.1728
 3814TIP3   OH232856   0.995   4.798   1.701 -0.0048 -0.0150  0.3173
 3814TIP3    H132857   1.082   4.779   1.737  1.3339  1.0839 -2.1035
 3814TIP3    H232858   0.993   4.894   1.694 -1.3153 -0.0453  0.0880
 3815TIP3   OH232859   6.083   0.578  15.317 -0.1994 -0.7662 -0.0935
 3815TIP3    H132860   6.096   0.667  15.284  2.7730 -0.2190  2.1138
 3815TIP3    H232861   6.102   0.521  15.243  1.5064  0.4261 -0.6244
 3816TIP3   OH232862   4.564   1.904  11.188  0.0102 -0.5431 -0.3218
 3816TIP3    H132863   4.506   1.829  11.173 -2.5385  1.2500 -0.0880
 3816TIP3    H232864   4.537   1.969  11.124  1.2000  0.6990  0.3835
 3817TIP3   OH232865   3.921   6.609   2.800 -0.2488  0.4218 -0.8386
 3817TIP3    H132866   3.883   6.525   2.776 -2.5331  1.6263 -1.7188
 3817TIP3    H232867   3.948   6.648   2.717  0.4952  0.7094 -0.4711
 3818TIP3   OH232868   2.617   2.392   1.471  0.4630 -0.4943 -0.2369
 3818TIP3    H132869   2.546   2.330   1.489  0.9139 -0.9832 -0.1152
 3818TIP3    H232870   2.681   2.376   1.541  0.5679  0.1404 -0.1764
 3819TIP3   OH232871   4.998   1.485  15.711  0.4453 -0.5950 -0.4345
 3819TIP3    H132872   5.007   1.496  15.617  1.8212  2.5890 -0.0554
 3819TIP3    H232873   5.050   1.407  15.731  1.6672 -0.2707 -2.1209
 3820TIP3   OH232874   6.650   6.151   3.866  0.6520 -0.1940  0.1877
 3820TIP3    H132875   6.696   6.107   3.795  0.4690 -1.1097  0.6192
 3820TIP3    H232876   6.564   6.108   3.868  0.1997  0.6879  0.1488
 3821TIP3   OH232877   5.499   6.067   5.195  0.0658 -0.2004 -0.4973
 3821TIP3    H132878   5.478   5.986   5.242 -2.4261  0.1520 -0.8377
 3821TIP3    H232879   5.527   6.128   5.263  0.8419 -0.9854 -0.0924
 3822TIP3   OH232880   2.676   0.990  16.702  0.5289  0.2227  0.5134
 3822TIP3    H132881   2.630   1.031  16.628 -0.2716 -0.8079  0.4101
 3822TIP3    H232882   2.769   1.004  16.683  0.3334  0.0628 -0.6461
 3823TIP3   OH232883   2.938   6.197   0.738 -0.3151 -0.0037  0.1285
 3823TIP3    H132884   2.986   6.279   0.746  0.9666 -0.8795  2.4439
 3823TIP3    H232885   2.988   6.146   0.674 -0.8773  0.8357 -0.9982
 3824TIP3   OH232886   5.162   5.495   1.102 -0.2027 -0.1618 -0.4323
 3824TIP3    H132887   5.169   5.573   1.157 -0.3090  0.1047 -0.7924
 3824TIP3    H232888   5.108   5.523   1.028  0.1715 -0.4433 -0.8115
 3825TIP3   OH232889   4.654   2.959  10.922 -0.0728  0.9682 -0.3760
 3825TIP3    H132890   4.574   2.908  10.932  0.6204 -0.2726 -1.0266
 3825TIP3    H232891   4.626   3.050  10.935 -1.4030  0.4776  0.3565
 3826TIP3   OH232892   5.783   1.808  14.580 -0.5168  0.8413 -0.1639
 3826TIP3    H132893   5.868   1.786  14.540 -1.2151 -0.5642 -0.9522
 3826TIP3    H232894   5.723   1.815  14.506 -1.4981 -0.1332  0.5144
 3827TIP3   OH232895   2.963   2.630   4.938 -0.3336  0.4754 -0.2467
 3827TIP3    H132896   2.975   2.664   4.849 -1.1856  0.2763 -0.4442
 3827TIP3    H232897   3.032   2.673   4.989 -0.0995  0.9145 -0.9138
 3828TIP3   OH232898   2.614   2.804   5.571  0.3023 -0.1096  0.0884
 3828TIP3    H132899   2.609   2.709   5.578 -1.1020  0.0336  1.6231
 3828TIP3    H232900   2.688   2.820   5.511  1.1151 -2.1255  0.4694
 3829TIP3   OH232901   2.664   0.488  16.269  0.0228 -0.1284 -0.0050
 3829TIP3    H132902   2.610   0.486  16.189  0.8080 -2.0525 -0.5512
 3829TIP3    H232903   2.652   0.576  16.304  1.3276  1.6312 -3.4341
 3830TIP3   OH232904   3.725   2.078   4.991  0.6001  0.2305 -0.1023
 3830TIP3    H132905   3.817   2.081   5.018  0.7249  0.2774 -0.5326
 3830TIP3    H232906   3.714   2.154   4.933  1.0580 -1.4032 -2.4679
 3831TIP3   OH232907   3.803   4.970   3.115 -0.1095  0.8480  0.0417
 3831TIP3    H132908   3.879   5.008   3.158 -0.2000  0.4212  0.5850
 3831TIP3    H232909   3.736   4.967   3.183  0.1240 -0.9677  0.2394
 3832TIP3   OH232910   0.533   3.731   1.190  0.1374 -0.5735 -0.2905
 3832TIP3    H132911   0.555   3.746   1.098 -1.6745  1.2290 -0.5161
 3832TIP3    H232912   0.550   3.815   1.233  0.0959 -1.1193  0.8411
 3833TIP3   OH232913   0.723   1.889   2.309  0.1871 -0.4949 -0.0915
 3833TIP3    H132914   0.679   1.883   2.224 -1.8981  0.2767  0.8450
 3833TIP3    H232915   0.696   1.810   2.356 -1.3601  0.5714  0.9406
 3834TIP3   OH232916   5.468   3.121   5.664 -0.2278  0.7094 -0.0315
 3834TIP3    H132917   5.492   3.048   5.606 -0.4080  0.9217 -0.3772
 3834TIP3    H232918   5.552   3.157   5.693 -0.1242  1.0368 -0.7155
 3835TIP3   OH232919   5.549   0.577   3.411  0.2521  0.0615 -0.2632
 3835TIP3    H132920   5.600   0.552   3.488 -1.2153 -1.7629  0.1898
 3835TIP3    H232921   5.613   0.581   3.340  1.4987  0.9296  0.8590
 3836TIP3   OH232922   0.081   3.036  16.817 -0.0099  0.0983 -0.2195
 3836TIP3    H132923   0.096   3.024  16.910  0.8483 -0.9501 -0.4676
 3836TIP3    H232924   0.158   2.998  16.775  0.3469  1.9135 -1.3245
 3837TIP3   OH232925   1.123   4.028   4.723 -0.3200  0.8271  0.5636
 3837TIP3    H132926   1.136   4.054   4.814  0.6920 -3.0934  1.7367
 3837TIP3    H232927   1.092   4.107   4.680 -1.3624  2.7538  4.3868
 3838TIP3   OH232928   6.073   5.287  14.696 -0.0420 -0.0466  0.1758
 3838TIP3    H132929   6.103   5.263  14.784 -0.3820  0.4010  0.4194
 3838TIP3    H232930   6.116   5.370  14.678  1.8214 -1.2203 -1.0254
 3839TIP3   OH232931   5.687   4.073  10.819 -0.5077  0.8015  0.1102
 3839TIP3    H132932   5.614   4.018  10.849  1.2319 -1.7068  0.0880
 3839TIP3    H232933   5.713   4.034  10.735  2.8208 -0.5102  1.5806
 3840TIP3   OH232934   0.577   3.667  11.301  0.0549 -0.1735 -0.0838
 3840TIP3    H132935   0.665   3.698  11.323  0.1874  1.0861 -2.0974
 3840TIP3    H232936   0.588   3.625  11.215 -1.6609  2.3512 -1.6754
 3841TIP3   OH232937   1.587   0.654  13.933  0.0620  0.4324 -0.4275
 3841TIP3    H132938   1.502   0.611  13.932  0.3234 -0.0912 -0.1548
 3841TIP3    H232939   1.628   0.629  13.850  0.1027  0.3803 -0.3921
 3842TIP3   OH232940   6.533   2.816   6.103  0.0965 -0.1497  0.3334
 3842TIP3    H132941   6.618   2.786   6.134  0.4725  2.5681  2.2752
 3842TIP3    H232942   6.473   2.795   6.174 -0.9015 -1.8660 -0.9419
 3843TIP3   OH232943   0.276   1.821   6.306 -0.5041 -0.5616  0.1175
 3843TIP3    H132944   0.291   1.798   6.398  0.6521  0.5492  0.2467
 3843TIP3    H232945   0.341   1.889   6.288  0.1922 -1.6771 -1.9121
 3844TIP3   OH232946   1.075   2.244   2.307 -0.7686  0.2332  0.1264
 3844TIP3    H132947   1.015   2.171   2.293 -0.3369 -0.0975 -0.0013
 3844TIP3    H232948   1.154   2.205   2.345 -0.9796  0.7938  1.1713
 3845TIP3   OH232949   4.018   1.876  10.920 -0.1214  0.1898  0.0554
 3845TIP3    H132950   4.101   1.920  10.934 -0.4165 -0.0152  2.8724
 3845TIP3    H232951   4.019   1.801  10.980 -1.8506 -0.5185 -0.7074
 3846TIP3   OH232952   3.165   6.748  11.699  0.6934  0.1827  0.0918
 3846TIP3    H132953   3.249   6.793  11.713  0.8840  0.3584 -1.4325
 3846TIP3    H232954   3.181   6.658  11.727  1.8534 -0.1404 -1.4875
 3847TIP3   OH232955   0.292   4.524  11.842 -0.3346  0.5447 -0.0568
 3847TIP3    H132956   0.341   4.588  11.791 -1.0622  1.3000  0.1839
 3847TIP3    H232957   0.232   4.575  11.896 -1.7659 -0.3522 -0.7091
 3848TIP3   OH232958   2.604   3.826   5.487  0.4197  0.3523  0.5103
 3848TIP3    H132959   2.574   3.806   5.398  1.2288 -0.3269  0.3838
 3848TIP3    H232960   2.523   3.846   5.535  0.0051  1.1719 -0.4712
 3849TIP3   OH232961   3.232   2.327  13.541  0.2469  0.0329 -0.1248
 3849TIP3    H132962   3.142   2.337  13.571  0.0420 -0.9786 -0.3517
 3849TIP3    H232963   3.246   2.398  13.479  0.1459  1.1806  1.1119
 3850TIP3   OH232964   0.096   3.329   5.464 -0.5150 -0.0851  0.0912
 3850TIP3    H132965   0.106   3.252   5.408 -1.0388 -0.2478  0.2132
 3850TIP3    H232966   0.180   3.337   5.508 -0.8303 -1.3183  0.9819
 3851TIP3   OH232967   5.368   2.422   2.488  0.4295  0.0715  0.0788
 3851TIP3    H132968   5.375   2.515   2.467 -2.5730  0.5241  0.6072
 3851TIP3    H232969   5.358   2.419   2.583 -0.1775 -0.6944  0.0060
 3852TIP3   OH232970   0.604   1.077  13.584 -0.7581 -0.4407  0.1490
 3852TIP3    H132971   0.560   1.072  13.668  1.7204  1.4357  1.7188
 3852TIP3    H232972   0.668   1.006  13.586  1.4111  1.4211  1.3172
 3853TIP3   OH232973   2.416   2.534  13.776  0.2094  0.0526  0.1187
 3853TIP3    H132974   2.406   2.624  13.746  1.2074 -0.4698 -1.9665
 3853TIP3    H232975   2.406   2.481  13.697 -0.1380 -1.6732  1.2607
 3854TIP3   OH232976   6.693   3.846   2.729  0.1327  0.6687  0.0448
 3854TIP3    H132977   6.764   3.792   2.764  0.7209  1.9919  0.9856
 3854TIP3    H232978   6.694   3.831   2.635  0.5352 -0.6432  0.2471
 3855TIP3   OH232979   3.675   4.429   1.229 -0.2971  0.4396 -0.9097
 3855TIP3    H132980   3.710   4.421   1.318 -0.4287 -1.1087 -0.9691
 3855TIP3    H232981   3.701   4.517   1.201 -0.2408  0.9616  0.6441
 3856TIP3   OH232982   1.163   3.690   2.262 -0.2633  0.9577 -0.0976
 3856TIP3    H132983   1.214   3.692   2.181  1.7842 -1.4262  0.9857
 3856TIP3    H232984   1.203   3.756   2.319 -0.9699  1.8294 -0.5860
 3857TIP3   OH232985   2.126   3.734  14.153  0.4485 -0.6738  0.2546
 3857TIP3    H132986   2.206   3.756  14.200  2.1279  0.1952 -2.7852
 3857TIP3    H232987   2.131   3.639  14.141  0.3747 -0.7956  1.0898
 3858TIP3   OH232988   3.773   5.801  12.587 -0.1293  0.7180 -0.1117
 3858TIP3    H132989   3.683   5.825  12.610 -0.2117 -1.0278  1.6885
 3858TIP3    H232990   3.800   5.741  12.657  1.5707 -0.7438 -1.9173
 3859TIP3   OH232991   1.671   4.308  16.881 -0.1939  0.3019  0.1731
 3859TIP3    H132992   1.626   4.228  16.907 -0.9114  0.0677 -1.6213
 3859TIP3    H232993   1.752   4.277  16.839 -0.6659  0.4758 -0.8864
 3860TIP3   OH232994   3.505   2.985  15.027 -0.6447 -0.0289  0.3031
 3860TIP3    H132995   3.454   3.043  15.084 -0.4268  0.1422  0.3287
 3860TIP3    H232996   3.565   3.044  14.981  0.3767 -0.3446  1.1768
 3861TIP3   OH232997   5.655   0.101   0.505  0.8161  0.3692  0.2209
 3861TIP3    H132998   5.741   0.058   0.508 -0.2110 -1.8691  0.1644
 3861TIP3    H232999   5.667   0.175   0.446  2.6783  0.0592  0.1283
 3862TIP3   OH233000   4.362   1.356  15.269 -0.1824 -0.6664 -0.3773
 3862TIP3    H133001   4.455   1.350  15.289  0.1306  1.4671 -0.9379
 3862TIP3    H233002   4.359   1.379  15.176 -1.3129 -1.6455 -0.6089
 3863TIP3   OH233003   0.314   3.916   2.785 -0.3506  0.2373 -0.5086
 3863TIP3    H133004   0.306   3.955   2.872  0.1179  2.4185 -1.3650
 3863TIP3    H233005   0.333   3.824   2.801 -2.0157  0.1946  1.6627
 3864TIP3   OH233006   4.147   1.397  13.918  0.0434 -0.2721 -0.4191
 3864TIP3    H133007   4.084   1.398  13.846  0.0675 -1.2351 -0.4642
 3864TIP3    H233008   4.224   1.440  13.882  0.0523 -0.7429 -0.9791
 3865TIP3   OH233009   6.248   1.028  15.806  0.4210 -0.4374 -0.7730
 3865TIP3    H133010   6.174   1.021  15.866  0.6371 -2.0360 -0.6502
 3865TIP3    H233011   6.215   0.996  15.722  0.6943 -0.1857 -0.9828
 3866TIP3   OH233012   6.022   2.609  14.942 -0.3011  0.3241  0.5424
 3866TIP3    H133013   6.094   2.576  14.996  0.7582  0.7239 -0.5748
 3866TIP3    H233014   6.064   2.671  14.882 -1.4076 -0.1665 -0.7855
 3867TIP3   OH233015   5.419   2.721  12.814 -0.0095  0.1349  0.1835
 3867TIP3    H133016   5.329   2.753  12.819 -0.4818 -1.0434 -0.4615
 3867TIP3    H233017   5.437   2.714  12.720  0.0137 -1.5740  0.2749
 3868TIP3   OH233018   6.756   6.268   0.033 -0.0539  0.3822  0.6469
 3868TIP3    H133019   6.694   6.238   0.099 -1.2082 -0.7452 -0.8773
 3868TIP3    H233020   6.840   6.272   0.079 -0.7275 -0.8167  2.0702
 3869TIP3   OH233021   6.279   2.606  12.996  0.4426  0.2466 -0.0873
 3869TIP3    H133022   6.297   2.601  13.090 -3.3481 -0.5269  0.7352
 3869TIP3    H233023   6.256   2.698  12.981 -1.9510 -0.2088  0.4743
 3870TIP3   OH233024   0.065   1.364   1.387 -0.4880  0.4267 -0.3449
 3870TIP3    H133025   0.044   1.283   1.432 -3.3814  1.8049  1.0378
 3870TIP3    H233026   0.144   1.396   1.431 -2.5533  1.1424  3.2091
 3871TIP3   OH233027   5.757   1.518   3.818 -0.0932 -0.4973  0.4537
 3871TIP3    H133028   5.709   1.435   3.810 -2.9428  0.9983  0.8627
 3871TIP3    H233029   5.689   1.584   3.828  2.0574  2.0152 -0.4937
 3872TIP3   OH233030   5.132   1.574  11.247  0.8800 -0.2135  0.6620
 3872TIP3    H133031   5.037   1.587  11.244  0.7175 -1.2991 -1.6665
 3872TIP3    H233032   5.160   1.620  11.325 -1.4825  0.7150  1.0594
 3873TIP3   OH233033   2.646   3.888  15.676  0.2652  0.9042 -0.4383
 3873TIP3    H133034   2.611   3.799  15.672  0.8275  0.7116 -1.8769
 3873TIP3    H233035   2.622   3.920  15.763 -1.0449 -0.2005 -0.3552
 3874TIP3   OH233036   1.546   4.670  16.466 -0.7261  0.4064  1.0368
 3874TIP3    H133037   1.616   4.725  16.431  1.5872 -2.4256  0.7671
 3874TIP3    H233038   1.568   4.658  16.558 -0.6487 -0.7210  0.8886
 3875TIP3   OH233039   4.367   3.126  12.062  0.0760  0.8091  0.3325
 3875TIP3    H133040   4.304   3.057  12.041  0.7737  0.0927  0.5287
 3875TIP3    H233041   4.415   3.140  11.980 -1.2600  2.3883 -0.2438
 3876TIP3   OH233042   6.642   5.979   3.330 -0.6215 -0.6558  0.4183
 3876TIP3    H133043   6.608   5.909   3.385  2.2291 -1.6397  1.0884
 3876TIP3    H233044   6.635   6.058   3.384 -2.4039 -0.6807  0.2547
 3877TIP3   OH233045   4.911   6.524   4.165  0.2469 -0.1031  0.7147
 3877TIP3    H133046   4.825   6.537   4.125  1.7298  0.7863 -2.5051
 3877TIP3    H233047   4.925   6.429   4.163  0.0606 -0.1102 -0.4259
 3878TIP3   OH233048   4.314   0.657  14.454 -0.7574  0.3940  0.2726
 3878TIP3    H133049   4.309   0.712  14.376 -1.6361 -0.2464 -0.1357
 3878TIP3    H233050   4.398   0.679  14.494  0.5785 -0.5459 -1.8293
 3879TIP3   OH233051   5.084   6.111  11.966  0.3792 -0.0562 -0.1961
 3879TIP3    H133052   5.147   6.058  12.014 -0.2886  0.5680  1.4154
 3879TIP3    H233053   5.018   6.136  12.030 -1.3935 -0.4374 -1.7548
 3880TIP3   OH233054   0.265   5.178  13.990  0.1564 -0.3997  0.4368
 3880TIP3    H133055   0.332   5.241  14.017 -0.0456 -0.1897  0.4538
 3880TIP3    H233056   0.301   5.137  13.911 -0.2580  0.6424 -0.3075
 3881TIP3   OH233057   0.085   3.222  15.870 -0.3154  0.0014  0.3000
 3881TIP3    H133058   0.004   3.174  15.857 -0.0319 -0.1131 -1.1285
 3881TIP3    H233059   0.079   3.255  15.960 -1.7134 -0.4053  0.3701
 3882TIP3   OH233060   1.157   0.325   5.509  0.1470  0.3046  0.5386
 3882TIP3    H133061   1.072   0.304   5.471  0.3779  1.2777 -0.5898
 3882TIP3    H233062   1.209   0.355   5.435  2.1788 -2.2681  0.8016
 3883TIP3   OH233063   3.566   1.431  13.388 -0.4369 -0.1514 -0.3750
 3883TIP3    H133064   3.558   1.414  13.294 -0.2033  0.2385 -0.4670
 3883TIP3    H233065   3.642   1.381  13.415  0.7512  1.3189 -0.8062
 3884TIP3   OH233066   6.616   6.097  12.828  0.6608  0.4871 -0.1162
 3884TIP3    H133067   6.570   6.136  12.903 -2.4634  0.5692 -1.8944
 3884TIP3    H233068   6.651   6.015  12.862 -0.9405  0.3711  1.4109
 3885TIP3   OH233069   3.176   6.119   5.121 -0.4353 -0.0971 -0.8416
 3885TIP3    H133070   3.107   6.184   5.132 -0.2721 -0.0821  0.1298
 3885TIP3    H233071   3.196   6.121   5.027 -1.7670 -0.1258 -1.1379
 3886TIP3   OH233072   6.035   2.357  14.435 -0.2166 -0.0501 -0.6784
 3886TIP3    H133073   6.030   2.451  14.414 -1.1160 -0.1618 -0.9883
 3886TIP3    H233074   6.004   2.313  14.356  1.7707 -0.6914 -1.1491
 3887TIP3   OH233075   4.876   4.169   0.522  0.1945  0.0692 -0.0247
 3887TIP3    H133076   4.957   4.138   0.562  0.3583 -1.7046 -1.5757
 3887TIP3    H233077   4.904   4.237   0.460  0.4908 -0.3393 -0.3498
 3888TIP3   OH233078   0.650   5.035   0.795 -0.5391 -0.8651 -0.4939
 3888TIP3    H133079   0.694   5.116   0.769 -1.4018 -0.2992 -0.2371
 3888TIP3    H233080   0.558   5.050   0.771 -0.6574 -1.8791 -0.6923
 3889TIP3   OH233081   1.254   6.468   1.520  0.6865  0.0776  0.1760
 3889TIP3    H133082   1.301   6.442   1.441  1.4215  0.6673  0.4011
 3889TIP3    H233083   1.323   6.482   1.586 -0.0215 -2.5705  1.6094
 3890TIP3   OH233084   6.161   4.600  11.038  0.2682 -0.5941  0.1411
 3890TIP3    H133085   6.161   4.625  10.946 -2.1529  1.3988  0.5702
 3890TIP3    H233086   6.252   4.614  11.066  1.3626 -2.4309 -2.1215
 3891TIP3   OH233087   3.504   0.096  12.564  0.1482  0.0448  0.3826
 3891TIP3    H133088   3.469   0.045  12.491 -0.3260 -1.9404  1.9103
 3891TIP3    H233089   3.596   0.068  12.571 -0.3105 -1.2755  1.6992
 3892TIP3   OH233090   5.196   6.267  12.679 -0.6353 -0.0417  0.4200
 3892TIP3    H133091   5.185   6.303  12.767  1.7422  0.9257  0.4077
 3892TIP3    H233092   5.167   6.337  12.620 -0.5266  0.0038  0.4207
 3893TIP3   OH233093   4.371   6.567  12.402  0.1856  0.1101  0.0409
 3893TIP3    H133094   4.419   6.555  12.321 -0.9075 -2.4219 -0.3226
 3893TIP3    H233095   4.283   6.594  12.374 -0.0043 -0.1222  0.4056
 3894TIP3   OH233096   3.963   0.708  12.033 -0.5107 -0.2322  0.9970
 3894TIP3    H133097   3.903   0.781  12.018 -0.9099 -0.4205  1.6330
 3894TIP3    H233098   3.909   0.630  12.025 -0.2668 -0.4234  1.1835
 3895TIP3   OH233099   3.854   4.915   6.522 -0.0323  0.0554 -0.2583
 3895TIP3    H133100   3.778   4.941   6.573  1.0121  1.6116  0.5700
 3895TIP3    H233101   3.927   4.917   6.584  0.8849 -0.2925 -1.2858
 3896TIP3   OH233102   4.275   6.443   4.786  0.9626  0.1405 -0.0665
 3896TIP3    H133103   4.196   6.393   4.808  0.0389  0.1734 -2.8276
 3896TIP3    H233104   4.304   6.480   4.869 -2.1999  0.5086  1.0197
 3897TIP3   OH233105   2.323   6.295   3.602  0.1145 -0.1023 -0.5632
 3897TIP3    H133106   2.396   6.350   3.572 -0.1344 -0.3864 -1.7532
 3897TIP3    H233107   2.308   6.322   3.692  1.4938  0.1755 -0.3919
 3898TIP3   OH233108   5.195   3.082  10.681 -0.3593 -0.0301  0.0472
 3898TIP3    H133109   5.253   3.152  10.651 -0.6227  0.3307  0.3749
 3898TIP3    H233110   5.156   3.116  10.761  1.0471 -1.3571  1.3440
 3899TIP3   OH233111   6.090   2.063   0.421  0.3010 -0.2191 -0.8533
 3899TIP3    H133112   6.107   2.109   0.338  1.0161 -1.4081 -1.3997
 3899TIP3    H233113   6.171   2.016   0.439 -0.1926 -0.7690  0.0067
 3900TIP3   OH233114   0.464   6.694   6.923 -0.5860  0.1618 -0.0650
 3900TIP3    H133115   0.505   6.731   6.845 -0.1627 -2.1683 -1.0601
 3900TIP3    H233116   0.536   6.687   6.986 -1.1469  3.0488  1.0354
 3901TIP3   OH233117   2.132   5.845  11.619 -0.4682  0.0935 -0.1541
 3901TIP3    H133118   2.226   5.852  11.638 -0.5347  1.0275 -0.1113
 3901TIP3    H233119   2.090   5.895  11.689 -0.9131  0.7868 -0.9007
 3902TIP3   OH233120   4.224   0.368   1.721 -0.0593  0.1686 -0.1754
 3902TIP3    H133121   4.300   0.350   1.666  0.7886 -1.0752  1.3249
 3902TIP3    H233122   4.152   0.321   1.679  0.4897 -0.4440 -0.4367
 3903TIP3   OH233123   5.133   5.905  17.024 -0.0426  0.3652  0.5335
 3903TIP3    H133124   5.169   5.822  16.995 -2.4030 -0.5187 -0.1277
 3903TIP3    H233125   5.109   5.890  17.115 -0.7855  0.1850  0.3152
 3904TIP3   OH233126   4.026   5.012   5.024  0.5663 -0.1362 -0.1197
 3904TIP3    H133127   4.118   5.000   5.000  0.4536 -3.0157  0.4776
 3904TIP3    H233128   4.025   5.093   5.075  2.8606 -0.2285  0.1827
 3905TIP3   OH233129   5.897   5.767   2.372  0.1430 -0.1250  0.5073
 3905TIP3    H133130   5.905   5.857   2.405  2.6009  0.2827 -0.9735
 3905TIP3    H233131   5.963   5.718   2.422  0.3561 -0.6060 -0.2400
 3906TIP3   OH233132   0.005   3.406  12.070 -0.2833 -0.4578 -0.2513
 3906TIP3    H133133  -0.087   3.394  12.096 -0.1494 -0.3474  0.2878
 3906TIP3    H233134   0.035   3.479  12.124 -0.1441  0.1281 -1.1016
 3907TIP3   OH233135   3.003   1.824   5.159 -0.5864  0.3490 -0.4134
 3907TIP3    H133136   2.914   1.805   5.186 -0.5690  1.4804  0.4896
 3907TIP3    H233137   3.024   1.754   5.097 -1.7855 -0.4205  0.0051
 3908TIP3   OH233138   2.893   4.695   6.026 -0.3417  0.2144  0.1881
 3908TIP3    H133139   2.897   4.622   6.087  0.2605  1.5493  1.8463
 3908TIP3    H233140   2.800   4.708   6.009 -0.5457  0.0974  1.1963
 3909TIP3   OH233141   3.019   2.416  10.800 -0.1915 -0.2048  0.3005
 3909TIP3    H133142   3.087   2.366  10.845  0.1419  1.1754  1.4088
 3909TIP3    H233143   2.941   2.360  10.803  0.5238 -1.2213  0.2524
 3910TIP3   OH233144   5.843   6.118  16.958  0.2497  0.4792 -0.0219
 3910TIP3    H133145   5.928   6.161  16.947 -0.5218  2.2066  0.3890
 3910TIP3    H233146   5.808   6.157  17.038 -1.2479  0.3350 -0.5947
 3911TIP3   OH233147   4.186   3.090  13.811  0.0906  0.2180  0.1765
 3911TIP3    H133148   4.234   3.013  13.840 -0.1454 -0.3470 -0.8915
 3911TIP3    H233149   4.104   3.056  13.775 -1.6453  1.2215  2.8454
 3912TIP3   OH233150   6.737   0.868  10.707  0.4551 -0.3713 -1.1525
 3912TIP3    H133151   6.727   0.915  10.625  0.0607 -1.7107 -1.9014
 3912TIP3    H233152   6.806   0.803  10.690  0.0791 -0.9469 -0.5675
 3913TIP3   OH233153   0.933   3.135  17.148 -0.1141 -0.0158  0.2113
 3913TIP3    H133154   0.968   3.191  17.217  0.3063 -0.9044  0.7401
 3913TIP3    H233155   0.925   3.049  17.189  2.4678 -1.2010 -1.4658
 3914TIP3   OH233156   3.801   1.750   1.701  0.2840  0.1030  0.2525
 3914TIP3    H133157   3.837   1.667   1.732  0.0880 -0.5078 -1.0685
 3914TIP3    H233158   3.764   1.729   1.615  0.9794  1.7356 -0.4948
 3915TIP3   OH233159   5.729   1.083  12.590  0.2076  0.9331  0.1530
 3915TIP3    H133160   5.818   1.117  12.578  0.5737 -0.3384 -0.9959
 3915TIP3    H233161   5.714   1.088  12.685  1.2790  1.6869  0.3001
 3916TIP3   OH233162   4.087   5.082  12.820 -0.2743 -0.5051 -0.4782
 3916TIP3    H133163   4.070   5.026  12.744  0.8272 -2.5750  0.7061
 3916TIP3    H233164   4.143   5.029  12.877  0.1543  1.5346  1.1161
 3917TIP3   OH233165   3.849   3.993  14.641 -0.2002 -0.0678 -0.6224
 3917TIP3    H133166   3.891   4.032  14.717 -2.0723  0.5231  0.1567
 3917TIP3    H233167   3.823   4.067  14.587 -0.5652 -0.3963 -0.9017
 3918TIP3   OH233168   5.751   3.121  17.082 -0.3169 -0.0954 -0.1170
 3918TIP3    H133169   5.733   3.094  17.172  1.4142 -0.9522  0.0143
 3918TIP3    H233170   5.705   3.056  17.029 -2.6654  1.3123  0.0670
 3919TIP3   OH233171   2.653   4.451   2.287  0.0814  0.1097 -0.2970
 3919TIP3    H133172   2.633   4.449   2.380  0.2533 -1.9879 -0.2601
 3919TIP3    H233173   2.746   4.427   2.281 -0.6637 -3.0338 -1.1014
 3920TIP3   OH233174   1.690   1.195   2.696 -0.3903  0.0391 -0.6026
 3920TIP3    H133175   1.744   1.272   2.713 -1.5172  0.9940 -1.1610
 3920TIP3    H233176   1.752   1.126   2.674  0.7158  0.4812  0.9471
 3921TIP3   OH233177   0.303   1.940  13.018 -0.6794 -0.2716  0.0934
 3921TIP3    H133178   0.314   1.861  12.964 -2.0956  1.4684 -3.0447
 3921TIP3    H233179   0.380   1.993  12.997  0.0274 -0.5567  1.8274
 3922TIP3   OH233180   5.550   1.887  13.056 -0.5981  0.4643 -0.1133
 3922TIP3    H133181   5.612   1.955  13.029  0.2919 -0.7981 -1.4495
 3922TIP3    H233182   5.516   1.851  12.974 -0.5816 -1.0851  0.5097
 3923TIP3   OH233183   3.394   3.739   5.662  0.1894  0.3838  0.1115
 3923TIP3    H133184   3.313   3.712   5.703  1.0486 -1.2927  0.8077
 3923TIP3    H233185   3.389   3.705   5.572  1.3584 -2.6352  1.0364
 3924TIP3   OH233186   4.137   3.149   0.405 -0.3338  0.2435  0.6435
 3924TIP3    H133187   4.155   3.085   0.336 -0.2248  0.7253  0.2186
 3924TIP3    H233188   4.207   3.137   0.469  0.7252  1.1555 -0.3134
 3925TIP3   OH233189   2.695   3.598   3.750 -0.7164 -0.2232 -0.6485
 3925TIP3    H133190   2.713   3.591   3.656 -0.7451  0.0770 -0.6762
 3925TIP3    H233191   2.629   3.666   3.757  0.8128  1.2965 -0.2407
 3926TIP3   OH233192   2.686   6.470  14.251  0.9053 -0.2612 -0.3896
 3926TIP3    H133193   2.681   6.551  14.302  0.5932 -1.0130  0.8374
 3926TIP3    H233194   2.756   6.485  14.188  0.9046  0.9263 -0.1312
 3927TIP3   OH233195   3.995   1.211  16.584 -0.2156 -0.0388  0.0070
 3927TIP3    H133196   3.932   1.146  16.613  0.4223 -0.9565 -0.5921
 3927TIP3    H233197   4.079   1.164  16.583  0.0610  0.4319 -1.5844
 3928TIP3   OH233198   3.959   3.307  12.881 -0.3184  0.3557 -0.2763
 3928TIP3    H133199   3.994   3.257  12.954 -1.0554 -0.4406 -0.4510
 3928TIP3    H233200   4.018   3.382  12.873  0.1387  0.1200  0.7193
 3929TIP3   OH233201   4.723   0.120  15.872  0.4274  0.1543  0.0019
 3929TIP3    H133202   4.704   0.124  15.966 -1.1403 -1.0594 -0.2279
 3929TIP3    H233203   4.819   0.122  15.868  0.5254  1.8526  1.5001
 3930TIP3   OH233204   2.596   6.694   2.943 -0.0007  0.0307 -0.9788
 3930TIP3    H133205   2.601   6.606   2.906 -0.9686 -0.3751 -0.1805
 3930TIP3    H233206   2.548   6.683   3.025 -0.0943  1.2968 -0.8466
 3931TIP3   OH233207   4.672   3.547   0.176  0.0059  0.3477 -0.1015
 3931TIP3    H133208   4.768   3.556   0.175  0.0502  0.0450 -2.1297
 3931TIP3    H233209   4.645   3.570   0.087 -1.9862  1.8487  0.8089
 3932TIP3   OH233210   6.034   1.914   2.791  0.6321 -0.0015 -0.0569
 3932TIP3    H133211   6.015   2.006   2.774 -0.9934 -0.4711 -1.0976
 3932TIP3    H233212   6.091   1.914   2.867  1.3754  1.8949 -0.5747
 3933TIP3   OH233213   6.780   2.890  11.759  0.4318  0.2676 -0.1891
 3933TIP3    H133214   6.785   2.926  11.848 -2.4830  2.5150 -0.7730
 3933TIP3    H233215   6.802   2.963  11.702  0.7251 -0.7107 -1.3507
 3934TIP3   OH233216   1.034   3.139  10.915 -0.0868  0.5198 -0.0016
 3934TIP3    H133217   1.051   3.183  10.832  0.9732 -0.0686 -0.1197
 3934TIP3    H233218   1.116   3.094  10.935  0.1856  1.8548  2.1059
 3935TIP3   OH233219   3.154   5.142   1.526 -0.3578 -0.1561  0.3256
 3935TIP3    H133220   3.155   5.061   1.474  0.0020  0.6029 -0.8875
 3935TIP3    H233221   3.216   5.126   1.597 -0.4439 -1.0183  0.2179
 3936TIP3   OH233222   5.255   1.303   6.649 -0.3203 -0.0382  0.3737
 3936TIP3    H133223   5.347   1.297   6.676 -0.0987  0.6426 -0.1994
 3936TIP3    H233224   5.225   1.212   6.649  0.2329 -0.2313  0.9759
 3937TIP3   OH233225   0.933   3.273   5.569 -0.0192 -0.4258 -0.0248
 3937TIP3    H133226   0.903   3.307   5.485 -3.1294 -1.7297  0.4453
 3937TIP3    H233227   0.948   3.352   5.622 -3.6903  0.4735 -0.0501
 3938TIP3   OH233228   6.554   4.524  15.342  0.4671 -0.1930 -0.5343
 3938TIP3    H133229   6.517   4.464  15.407 -0.1741  0.2040 -0.5168
 3938TIP3    H233230   6.636   4.483  15.314  0.0750 -1.0448 -0.4756
 3939TIP3   OH233231   4.882   4.670   2.933 -0.2813  0.2431  0.2315
 3939TIP3    H133232   4.795   4.686   2.970  0.2668  1.6899  0.9764
 3939TIP3    H233233   4.916   4.758   2.913  1.4714 -0.1924  1.0577
 3940TIP3   OH233234   6.336   4.430  13.356 -0.3790 -0.2565  0.3043
 3940TIP3    H133235   6.341   4.374  13.279 -0.9683 -0.2747  0.2755
 3940TIP3    H233236   6.389   4.506  13.334 -0.5781 -0.2438 -0.1335
 3941TIP3   OH233237   5.859   1.151  14.670 -0.0661 -0.4280  0.1298
 3941TIP3    H133238   5.934   1.177  14.724 -0.0042 -0.3549  0.0086
 3941TIP3    H233239   5.800   1.107  14.731  0.8188 -1.9825 -0.0778
 3942TIP3   OH233240   2.780   1.545   6.532 -0.5403  0.2638 -0.0972
 3942TIP3    H133241   2.747   1.456   6.534 -2.1185  0.8168  1.2211
 3942TIP3    H233242   2.706   1.597   6.500  0.8531  0.9610 -2.4136
 3943TIP3   OH233243   5.229   1.986   4.717 -0.4908  0.0990 -0.2508
 3943TIP3    H133244   5.163   1.952   4.656 -0.4501  1.7503 -1.2708
 3943TIP3    H233245   5.312   1.972   4.671 -0.4980  1.8118 -0.8568
 3944TIP3   OH233246   6.624   3.827   0.720  0.0379  0.2886  0.2128
 3944TIP3    H133247   6.604   3.914   0.686 -0.3820  0.0395 -0.1778
 3944TIP3    H233248   6.684   3.844   0.793 -1.2917  1.0334  1.1933
 3945TIP3   OH233249   3.899   1.923   1.962 -0.3508 -0.1582  0.8639
 3945TIP3    H133250   3.840   1.957   2.029 -0.4811 -0.4978  0.9200
 3945TIP3    H233251   3.841   1.885   1.896 -0.1493 -2.6522  2.0442
 3946TIP3   OH233252   4.006   5.789  15.976 -0.0649  0.4935  0.1810
 3946TIP3    H133253   4.062   5.852  16.022  0.5152  0.2798 -0.2274
 3946TIP3    H233254   4.060   5.757  15.904 -0.6039  0.0458 -0.0263
 3947TIP3   OH233255   3.034   1.461   5.399  0.2860  0.6369  0.1408
 3947TIP3    H133256   3.129   1.475   5.405  0.5151 -1.1074  1.6221
 3947TIP3    H233257   3.024   1.396   5.329  0.1027  1.3141 -0.4713
 3948TIP3   OH233258   1.055   4.746  12.185  0.1863  0.4480  0.1040
 3948TIP3    H133259   1.014   4.821  12.141 -1.6831 -0.9233 -0.6060
 3948TIP3    H233260   0.998   4.728  12.259 -0.9803 -1.9089 -1.2660
 3949TIP3   OH233261   2.589   0.588   5.573 -0.0501  0.4322  0.5366
 3949TIP3    H133262   2.551   0.658   5.625  0.6927  0.1180  1.5363
 3949TIP3    H233263   2.514   0.546   5.531 -0.4484  2.2929 -0.7446
 3950TIP3   OH233264   3.269   3.276  12.754 -0.4875 -0.1841 -0.2221
 3950TIP3    H133265   3.196   3.320  12.798 -0.0576 -1.1114  1.5142
 3950TIP3    H233266   3.295   3.206  12.814  1.0885 -0.6089 -1.3191
 3951TIP3   OH233267   4.140   4.018  12.250  0.4683  0.0028 -0.0387
 3951TIP3    H133268   4.121   4.105  12.217 -0.4236  0.4650  1.5788
 3951TIP3    H233269   4.228   4.026  12.288 -0.1087  0.5969  1.2547
 3952TIP3   OH233270   0.814   0.662  15.055 -0.7192  0.6366 -0.1905
 3952TIP3    H133271   0.770   0.722  15.116 -0.3867  1.8790 -1.1152
 3952TIP3    H233272   0.907   0.673  15.074 -0.7038 -1.3380  1.1740
 3953TIP3   OH233273   5.437   2.055  14.469 -0.3227 -0.2726 -0.1953
 3953TIP3    H133274   5.516   2.079  14.518 -0.8127  0.1280  0.4218
 3953TIP3    H233275   5.460   2.071  14.377 -0.1891  1.3409  0.0865
 3954TIP3   OH233276   0.316   5.718   5.113  0.0717  0.6046  0.4089
 3954TIP3    H133277   0.251   5.677   5.056 -0.4167 -0.6064  1.7935
 3954TIP3    H233278   0.395   5.724   5.058 -0.7427  0.6688 -0.7919
 3955TIP3   OH233279   0.701   2.052  14.715  0.3401 -0.3671 -0.9302
 3955TIP3    H133280   0.643   2.089  14.648  0.6965  0.2463 -0.9101
 3955TIP3    H233281   0.655   2.066  14.797 -0.8631 -2.5929 -1.1485
 3956TIP3   OH233282   3.168   4.356   3.166  0.1410 -0.6065 -0.5499
 3956TIP3    H133283   3.261   4.371   3.154 -0.0884  0.7684 -0.6719
 3956TIP3    H233284   3.158   4.346   3.261  0.0076  2.4061 -0.1632
 3957TIP3   OH233285   5.829   2.849  14.451 -0.5357  0.3525  0.4796
 3957TIP3    H133286   5.830   2.939  14.482 -1.2593  0.2481  0.8285
 3957TIP3    H233287   5.873   2.852  14.367  1.4071  0.6648  1.4589
 3958TIP3   OH233288   2.892   4.116   3.753  0.0253 -0.1202  0.2845
 3958TIP3    H133289   2.927   4.115   3.842 -1.1119 -1.0302  0.7505
 3958TIP3    H233290   2.968   4.099   3.697  0.5182 -0.9269  1.1784
 3959TIP3   OH233291   6.610   6.666   2.805  0.6692  0.4699  0.4003
 3959TIP3    H133292   6.700   6.640   2.787  0.6122  1.5209 -1.6875
 3959TIP3    H233293   6.590   6.732   2.739 -2.3695 -1.3575 -0.7132
 3960TIP3   OH233294   0.661   2.530   0.350 -0.4489 -0.7390 -0.5428
 3960TIP3    H133295   0.590   2.578   0.310 -0.7192  1.0848  1.9122
 3960TIP3    H233296   0.618   2.468   0.410 -0.0097 -1.7514 -1.2408
 3961TIP3   OH233297   6.585   2.625   4.364 -0.3983 -0.2833 -0.4971
 3961TIP3    H133298   6.674   2.594   4.377 -0.1492  0.4257 -0.4590
 3961TIP3    H233299   6.553   2.577   4.288  0.1068 -0.3628 -0.6590
 3962TIP3   OH233300   0.780   1.803   4.102 -0.4100 -0.2319 -0.2034
 3962TIP3    H133301   0.815   1.884   4.065 -2.3379  0.6630 -0.1732
 3962TIP3    H233302   0.692   1.795   4.065 -1.6375 -0.4038  2.5037
 3963TIP3   OH233303   2.263   1.987   2.527  0.1381  0.1299  0.6103
 3963TIP3    H133304   2.351   1.977   2.491  0.0294 -0.0271  0.3912
 3963TIP3    H233305   2.242   1.902   2.565  0.7737  0.6474  2.2347
 3964TIP3   OH233306   3.470   5.885   4.257 -0.0052  0.2916  0.1375
 3964TIP3    H133307   3.440   5.909   4.345  1.1717  2.9871 -0.1240
 3964TIP3    H233308   3.419   5.940   4.198  0.5672 -0.0916 -0.7386
 3965TIP3   OH233309   1.676   0.356  17.113 -1.2607 -1.3995 -0.0204
 3965TIP3    H133310   1.633   0.379  17.030  1.6456 -0.1914 -1.3530
 3965TIP3    H233311   1.629   0.406  17.179 -0.7971  1.3961 -1.6569
 3966TIP3   OH233312   1.623   6.184   4.762 -0.4821  0.4036  0.0040
 3966TIP3    H133313   1.646   6.094   4.785  0.5260  0.9697  1.3730
 3966TIP3    H233314   1.529   6.181   4.741 -0.1490 -1.2081 -1.4605
 3967TIP3   OH233315   1.197   1.448   3.321 -0.1602  0.8711  0.5926
 3967TIP3    H133316   1.235   1.440   3.234 -0.9050 -1.2878  0.4192
 3967TIP3    H233317   1.273   1.460   3.379  0.5731 -0.3971 -0.0689
 3968TIP3   OH233318   3.866   6.098   5.039  0.1956  0.2613  0.3097
 3968TIP3    H133319   3.839   6.077   4.950 -0.2241 -1.0951  0.7271
 3968TIP3    H233320   3.811   6.171   5.066 -1.0691 -0.6115  0.1396
 3969TIP3   OH233321   2.753   4.037   6.231 -0.0650  0.0102 -0.2544
 3969TIP3    H133322   2.690   4.068   6.166  0.4660 -0.0613 -0.8082
 3969TIP3    H233323   2.834   4.084   6.210  0.1545 -0.1403  0.2473
 3970TIP3   OH233324   0.793   0.599   2.518  0.1774 -0.1098  0.1794
 3970TIP3    H133325   0.855   0.529   2.542  0.6947  0.5813  0.9247
 3970TIP3    H233326   0.831   0.638   2.440 -0.8175 -1.5075 -1.0573
 3971TIP3   OH233327   5.243   3.838   4.134 -0.4138  0.2117 -0.6867
 3971TIP3    H133328   5.178   3.900   4.102 -1.0730 -0.3942 -0.5425
 3971TIP3    H233329   5.216   3.817   4.223  0.4616  0.6004 -0.3217
 3972TIP3   OH233330   6.434   0.529  13.813 -0.2705 -0.0865 -0.0439
 3972TIP3    H133331   6.478   0.496  13.734  1.0437  0.7606  0.3227
 3972TIP3    H233332   6.360   0.579  13.779  1.4345  2.0114 -0.8809
 3973TIP3   OH233333   0.558   6.319   5.872  0.3844 -0.1475 -0.5530
 3973TIP3    H133334   0.510   6.370   5.938 -3.2637 -1.0829 -2.1764
 3973TIP3    H233335   0.618   6.382   5.832 -2.9405  2.7392 -1.5379
 3974TIP3   OH233336   2.225   6.560  11.444 -0.2953 -0.1430  0.3543
 3974TIP3    H133337   2.279   6.517  11.510 -0.2833  0.4510  0.7400
 3974TIP3    H233338   2.166   6.615  11.494 -1.0098 -0.4985 -0.0867
 3975TIP3   OH233339   3.199   4.651   1.574 -0.3995 -0.0278 -0.6703
 3975TIP3    H133340   3.157   4.629   1.657 -0.0709 -0.0940 -0.5173
 3975TIP3    H233341   3.243   4.734   1.591  0.6990 -0.6422 -0.3983
 3976TIP3   OH233342   6.292   2.709  12.146 -0.0938 -0.2219 -0.5405
 3976TIP3    H133343   6.308   2.782  12.086 -1.0331  0.4414 -0.0023
 3976TIP3    H233344   6.209   2.671  12.117  0.8321 -1.7093 -1.4110
 3977TIP3   OH233345   2.329   2.351   4.784 -0.0919 -0.2472  0.8453
 3977TIP3    H133346   2.414   2.322   4.750  0.1183  1.1885  0.0300
 3977TIP3    H233347   2.326   2.445   4.762 -1.5356 -0.0960  1.5975
 3978TIP3   OH233348   1.477   0.753  14.767  0.3600 -0.1505  0.4676
 3978TIP3    H133349   1.548   0.690  14.772  0.1122 -0.3826  1.2723
 3978TIP3    H233350   1.397   0.700  14.771  0.1518  0.1744  0.7482
 3979TIP3   OH233351   1.367   6.539   2.227 -0.2072  0.5797  0.2264
 3979TIP3    H133352   1.307   6.612   2.244 -1.1197 -0.4229  1.4714
 3979TIP3    H233353   1.335   6.500   2.146 -0.6999  0.5883  0.4150
 3980TIP3   OH233354   2.040   6.206  16.283  0.2846  0.2775 -0.3363
 3980TIP3    H133355   2.133   6.209  16.261  0.6804  3.2305  1.2135
 3980TIP3    H233356   2.007   6.293  16.261 -1.6045 -0.0045  1.1033
 3981TIP3   OH233357   0.227   6.454  15.891 -0.0983  0.2361 -0.3436
 3981TIP3    H133358   0.260   6.539  15.861 -0.5017  0.1499 -1.0554
 3981TIP3    H233359   0.240   6.396  15.817 -0.3984 -0.1769 -0.0758
 3982TIP3   OH233360   4.157   3.995   0.158  0.2965  0.7652 -0.3887
 3982TIP3    H133361   4.178   3.901   0.153 -0.1709  0.7217 -2.2579
 3982TIP3    H233362   4.227   4.032   0.211  1.2359 -0.4475 -0.7147
 3983TIP3   OH233363   0.196   0.105   1.913  0.2778  0.0327  0.1470
 3983TIP3    H133364   0.223   0.194   1.934 -2.0118  1.0445 -0.8057
 3983TIP3    H233365   0.274   0.063   1.878  1.3760  1.7078  0.5002
 3984TIP3   OH233366   0.546   4.655   2.547 -0.3003 -0.7087 -0.1771
 3984TIP3    H133367   0.494   4.648   2.627 -0.0100 -1.7741 -0.0544
 3984TIP3    H233368   0.555   4.564   2.517 -1.2330 -0.2519 -1.9747
 3985TIP3   OH233369   0.968   3.711  14.139  0.6133 -0.0331 -0.1854
 3985TIP3    H133370   1.046   3.661  14.116  0.4004 -0.3858 -0.1540
 3985TIP3    H233371   0.999   3.801  14.150  1.4588 -0.5527  2.1563
 3986TIP3   OH233372   1.964   0.428  11.744 -0.0476  0.2459  0.4137
 3986TIP3    H133373   1.897   0.418  11.676  1.0243  1.9510 -0.9587
 3986TIP3    H233374   1.928   0.494  11.803  0.7358  1.8699 -0.8387
 3987TIP3   OH233375   5.258   5.682   4.034  0.1683 -0.0792  0.3604
 3987TIP3    H133376   5.317   5.607   4.030  0.2093 -0.0186 -0.3241
 3987TIP3    H233377   5.304   5.751   3.985  0.6385  0.7658  1.9055
 3988TIP3   OH233378   6.547   3.023  12.554 -0.6362 -0.3866  0.3781
 3988TIP3    H133379   6.521   2.956  12.490 -1.5036 -0.5246  0.8569
 3988TIP3    H233380   6.509   2.993  12.636  0.5501 -0.2541  0.9910
 3989TIP3   OH233381   2.973   3.854  13.995  0.5440  0.1620 -0.1027
 3989TIP3    H133382   2.925   3.926  13.953 -1.4478 -0.3353  1.1633
 3989TIP3    H233383   3.040   3.830  13.931 -0.4278  1.3892 -1.6807
 3990TIP3   OH233384   6.311   2.096   3.790 -0.6213  0.0357 -0.0669
 3990TIP3    H133385   6.298   2.021   3.847 -2.3454  0.1909 -0.2009
 3990TIP3    H233386   6.232   2.100   3.736 -0.2591  1.5197 -0.5575
 3991TIP3   OH233387   6.541   4.833  15.734  0.3195 -0.6242 -0.3225
 3991TIP3    H133388   6.552   4.789  15.819  0.6393 -0.9201 -0.5093
 3991TIP3    H233389   6.509   4.764  15.676  1.6276 -0.8384 -0.8259
 3992TIP3   OH233390   0.988   0.782   6.213 -0.3622 -0.1922 -0.6518
 3992TIP3    H133391   0.921   0.846   6.239  1.9403  1.5025  1.6579
 3992TIP3    H233392   1.009   0.735   6.294  1.0128 -0.8699 -1.3648
 3993TIP3   OH233393   5.713   6.206  14.214 -0.1654 -0.0845  0.1867
 3993TIP3    H133394   5.709   6.172  14.303 -1.9813 -1.2869 -0.3031
 3993TIP3    H233395   5.777   6.151  14.170  0.4588  0.2740  0.6282
 3994TIP3   OH233396   5.895   1.299  10.450  0.4518  0.3686 -0.0697
 3994TIP3    H133397   5.882   1.207  10.428  0.4724 -0.1391  1.8753
 3994TIP3    H233398   5.941   1.336  10.374 -1.1961 -0.7490 -1.6790
 3995TIP3   OH233399   3.686   4.198  11.199  0.0151 -0.0633  0.1482
 3995TIP3    H133400   3.781   4.187  11.205 -0.0336 -1.2833 -0.8390
 3995TIP3    H233401   3.671   4.230  11.111 -0.4649  0.6917  0.4931
 3996TIP3   OH233402   6.364   3.995   1.555  0.6421 -0.4260 -0.1985
 3996TIP3    H133403   6.321   3.983   1.471  1.0077 -0.3161 -0.4012
 3996TIP3    H233404   6.340   4.083   1.583 -0.9333 -1.0807  0.6530
 3997TIP3   OH233405   3.944   0.745  12.562 -0.2981  0.3606  0.3308
 3997TIP3    H133406   3.851   0.727  12.547 -0.0365  0.0486 -1.0324
 3997TIP3    H233407   3.945   0.811  12.631 -1.5958  1.5154 -0.7246
 3998TIP3   OH233408   5.905   4.851  16.932  0.0744 -0.4793 -0.5444
 3998TIP3    H133409   5.999   4.834  16.936  0.1542  0.1968  0.7920
 3998TIP3    H233410   5.898   4.945  16.915 -0.3695 -0.6223 -1.1984
 3999TIP3   OH233411   3.676   3.031   1.733 -0.7552  0.3121 -0.0883
 3999TIP3    H133412   3.680   3.127   1.736  1.4575  0.2523  0.2619
 3999TIP3    H233413   3.639   3.007   1.818  0.4220  0.8284  0.5999
 4000TIP3   OH233414   3.612   4.347  11.802  0.1199  0.4185  0.2629
 4000TIP3    H133415   3.659   4.421  11.764 -1.2804  1.5758  0.7086
 4000TIP3    H233416   3.679   4.301  11.853  1.0928  1.1763 -0.2837
 4001TIP3   OH233417   3.321   5.519   5.914  0.3486  0.5196  0.0478
 4001TIP3    H133418   3.369   5.440   5.937 -0.5276 -0.7149 -2.0884
 4001TIP3    H233419   3.255   5.528   5.982  1.2571  0.1784  1.0062
 4002TIP3   OH233420   4.680   0.002   5.495 -0.0238  0.2238  0.4103
 4002TIP3    H133421   4.723   0.085   5.517 -1.0216  1.1056 -0.7697
 4002TIP3    H233422   4.588   0.017   5.517 -0.0358 -1.0156  1.2980
 4003TIP3   OH233423   5.566   0.772   0.106  0.2119  0.3154 -0.0333
 4003TIP3    H133424   5.499   0.705   0.115  0.4747  0.1562  0.9375
 4003TIP3    H233425   5.534   0.845   0.159  2.0948 -0.8422  2.9832
 4004TIP3   OH233426   1.678   3.638   6.153  0.2258  0.2618 -0.2362
 4004TIP3    H133427   1.612   3.706   6.142  0.3043  0.2416 -0.8768
 4004TIP3    H233428   1.653   3.593   6.233  1.4690  2.4955  1.5227
 4005TIP3   OH233429   6.699   3.669   4.808  0.1996 -0.0281 -0.0225
 4005TIP3    H133430   6.712   3.592   4.863  2.2782 -1.3949 -2.2144
 4005TIP3    H233431   6.647   3.637   4.734  2.2963  0.1812 -1.6958
 4006TIP3   OH233432   5.014   2.494  13.458 -0.7250  0.3864 -0.2262
 4006TIP3    H133433   4.967   2.427  13.509 -0.5020 -0.9856 -1.7216
 4006TIP3    H233434   4.974   2.577  13.485 -1.0400 -0.3175  1.6693
 4007TIP3   OH233435   4.843   5.397  11.081  0.1470 -0.3333  0.1916
 4007TIP3    H133436   4.883   5.361  11.002  1.5409 -0.4532  0.9229
 4007TIP3    H233437   4.772   5.336  11.101 -1.5458  0.7581 -2.0226
 4008TIP3   OH233438   4.721   1.255   2.111 -0.2808 -0.3865  0.3451
 4008TIP3    H133439   4.785   1.298   2.168 -0.3236 -0.6620  0.5981
 4008TIP3    H233440   4.768   1.181   2.073  0.2701  0.7178 -1.2619
 4009TIP3   OH233441   6.360   4.534   1.754  0.0779 -0.0251  0.3574
 4009TIP3    H133442   6.437   4.527   1.698 -0.4785 -1.8653 -0.2165
 4009TIP3    H233443   6.298   4.587   1.704  0.7616  1.0677  0.6282
 4010TIP3   OH233444   1.831   5.989   1.070 -0.4062  0.4991 -0.1582
 4010TIP3    H133445   1.885   5.959   0.997  0.0312  0.6824  0.0877
 4010TIP3    H233446   1.742   5.994   1.033 -0.2350  0.3298 -0.6025
 4011TIP3   OH233447   3.444   4.276   5.717 -0.2046  0.2886  0.0438
 4011TIP3    H133448   3.450   4.182   5.731  1.2240  0.5557  1.5631
 4011TIP3    H233449   3.506   4.314   5.780 -0.3354  2.2092 -0.8933
 4012TIP3   OH233450   6.172   3.835   2.848  0.5718 -0.3151 -0.7831
 4012TIP3    H133451   6.178   3.774   2.775  0.4246 -3.0373  1.3276
 4012TIP3    H233452   6.217   3.792   2.920 -0.0033  1.8566  1.0119
 4013TIP3   OH233453   0.483   0.512  13.029  0.0328 -0.2073 -0.0290
 4013TIP3    H133454   0.405   0.567  13.020  0.5012  0.4856  0.0538
 4013TIP3    H233455   0.518   0.535  13.115  0.5638 -0.2036 -0.2457
 4014TIP3   OH233456   2.844   3.922   1.278 -0.4908 -0.0895  0.2411
 4014TIP3    H133457   2.924   3.966   1.307 -0.9955  0.3995  0.8997
 4014TIP3    H233458   2.841   3.840   1.328 -0.4018 -0.1079  0.2158
 4015TIP3   OH233459   1.076   1.108   4.338 -1.0438  0.1644 -0.1967
 4015TIP3    H133460   1.082   1.188   4.286  0.2035 -1.4669 -2.7473
 4015TIP3    H233461   1.122   1.042   4.286 -1.8069 -2.1732  1.9164
 4016TIP3   OH233462   4.680   0.151   0.895 -0.2419 -0.0720 -0.0649
 4016TIP3    H133463   4.734   0.086   0.850  0.0145  0.3866 -0.4277
 4016TIP3    H233464   4.733   0.177   0.970  0.3828  0.9267 -0.8304
 4017TIP3   OH233465   1.238   4.530   2.865  0.3464  0.0172  0.0691
 4017TIP3    H133466   1.166   4.593   2.862 -0.8429 -1.2822  0.4336
 4017TIP3    H233467   1.285   4.550   2.946  1.3888  1.8808 -0.9330
 4018TIP3   OH233468   5.369   4.357   2.962 -0.1663  0.4017 -0.9102
 4018TIP3    H133469   5.288   4.391   3.000  1.2936  2.0974  0.8623
 4018TIP3    H233470   5.358   4.370   2.867 -1.4291  1.8043 -0.6113
 4019TIP3   OH233471   1.232   1.885   5.750  0.4782  0.1672 -0.4850
 4019TIP3    H133472   1.237   1.932   5.833 -0.3109 -0.7088  0.0739
 4019TIP3    H233473   1.223   1.954   5.684 -0.2521  0.8198  0.2845
 4020TIP3   OH233474   1.705   3.096   6.126  0.3258  0.1537  0.5523
 4020TIP3    H133475   1.650   3.165   6.088  0.7382  0.0806 -0.1954
 4020TIP3    H233476   1.648   3.053   6.190 -0.1223  0.8098  0.6012
 4021TIP3   OH233477   0.361   3.743  15.858  0.5829  0.2943 -0.0690
 4021TIP3    H133478   0.424   3.779  15.795  0.7769  1.4197  0.7415
 4021TIP3    H233479   0.415   3.705  15.927  0.3707 -1.0395 -0.6059
 4022TIP3   OH233480   0.366   4.269  11.775 -0.2358 -0.2841 -0.1705
 4022TIP3    H133481   0.324   4.297  11.694 -1.4317 -2.2376 -0.2872
 4022TIP3    H233482   0.354   4.343  11.835 -0.3619  0.7268 -1.4023
 4023TIP3   OH233483   5.120   2.685  16.952 -0.0611 -0.5030  0.0732
 4023TIP3    H133484   5.101   2.767  16.908  0.1045  0.4773  1.7648
 4023TIP3    H233485   5.035   2.654  16.984  0.1722  0.3312  1.6057
 4024TIP3   OH233486   5.514   2.427   5.430  0.5075  0.1780  0.5470
 4024TIP3    H133487   5.580   2.467   5.486  0.0742 -0.5414  1.6198
 4024TIP3    H233488   5.434   2.476   5.449  0.4221  0.1312  0.3165
 4025TIP3   OH233489   3.158   4.405  15.264 -0.2722 -0.0010 -0.0442
 4025TIP3    H133490   3.113   4.480  15.225 -1.1324 -0.2226  0.5070
 4025TIP3    H233491   3.125   4.329  15.216 -0.6539 -0.1841  0.5018
 4026TIP3   OH233492   1.775   4.810  16.386 -0.4320  0.1905  0.1479
 4026TIP3    H133493   1.834   4.779  16.318 -1.5560 -2.4987  0.2674
 4026TIP3    H233494   1.804   4.899  16.405  0.7699  0.5484 -2.8661
 4027TIP3   OH233495   5.840   3.294   4.720 -0.1886  0.1974  0.3720
 4027TIP3    H133496   5.907   3.234   4.684  1.8146  1.6144  1.5471
 4027TIP3    H233497   5.791   3.323   4.643  1.4794  0.1824 -0.7699
 4028TIP3   OH233498   6.501   4.745  12.903 -0.2183  0.5583  0.5022
 4028TIP3    H133499   6.553   4.711  12.975  1.0544  0.2979 -0.5016
 4028TIP3    H233500   6.468   4.667  12.858  1.4129  0.6127 -0.8818
 4029TIP3   OH233501   0.133   2.960  12.342 -0.2748  0.0414 -0.6467
 4029TIP3    H133502   0.115   2.884  12.286 -1.6264 -0.6752  0.6586
 4029TIP3    H233503   0.088   3.033  12.299 -1.4257 -0.5316 -0.4517
 4030TIP3   OH233504   5.722   3.461   2.198 -0.3727 -0.2582 -0.5509
 4030TIP3    H133505   5.788   3.394   2.211 -2.0288 -1.9529 -0.3729
 4030TIP3    H233506   5.771   3.541   2.183  1.6963 -1.1420  1.0125
 4031TIP3   OH233507   6.593   1.357   3.124 -0.0956 -0.2939 -0.5163
 4031TIP3    H133508   6.616   1.298   3.052  0.4046  0.7316 -1.2118
 4031TIP3    H233509   6.576   1.298   3.198  0.8167 -1.2855 -1.0707
 4032TIP3   OH233510   1.139   3.028  16.063  0.5562  0.3427  0.1248
 4032TIP3    H133511   1.165   3.119  16.074  0.0927  0.4474  0.3437
 4032TIP3    H233512   1.113   2.999  16.151 -0.6020  0.3996 -0.1905
 4033TIP3   OH233513   4.216   5.296   4.734  0.5244  0.8622 -0.1686
 4033TIP3    H133514   4.120   5.295   4.738  0.5155  0.7745 -0.4310
 4033TIP3    H233515   4.239   5.223   4.677  0.7998  0.1455  0.8235
 4034TIP3   OH233516   2.511   3.637   6.154  0.2075  0.4372  0.1547
 4034TIP3    H133517   2.451   3.578   6.199  0.9015 -0.4023  0.0179
 4034TIP3    H233518   2.550   3.689   6.224  2.4756 -1.9423  0.8727
 4035TIP3   OH233519   2.140   4.241   5.031 -0.5660 -1.0357  0.1726
 4035TIP3    H133520   2.135   4.315   4.970  0.3521 -0.8315  0.3169
 4035TIP3    H233521   2.234   4.229   5.045 -0.6398 -2.9595 -0.7284
 4036TIP3   OH233522   2.896   5.089   3.044  1.3584  0.1702  0.7756
 4036TIP3    H133523   2.859   5.012   3.088 -0.2461  0.4130 -0.1003
 4036TIP3    H233524   2.846   5.163   3.077 -0.1141  0.3323 -1.5926
 4037TIP3   OH233525   3.854   1.337  13.419  0.3969  0.4958 -0.3250
 4037TIP3    H133526   3.904   1.348  13.338  0.7454  1.3204 -0.0087
 4037TIP3    H233527   3.895   1.397  13.481 -0.6463  0.7815  0.1073
 4038TIP3   OH233528   0.096   0.052  14.678 -0.2533 -0.3349 -0.0839
 4038TIP3    H133529   0.041   0.026  14.752 -0.0184 -0.3485  0.0904
 4038TIP3    H233530   0.037   0.057  14.604 -0.5858  0.1392  0.2062
 4039TIP3   OH233531   1.889   6.080   1.515  0.0788 -0.5487  0.0243
 4039TIP3    H133532   1.849   6.013   1.459  0.5875  0.7465 -2.0022
 4039TIP3    H233533   1.817   6.141   1.535 -0.5538 -1.9526  2.4487
 4040TIP3   OH233534   4.199   0.962  16.253  0.1165 -0.4021  0.1976
 4040TIP3    H133535   4.111   0.959  16.291  0.4411 -2.7834  0.9389
 4040TIP3    H233536   4.225   1.054  16.261 -2.0642  0.2472  0.4827
 4041TIP3   OH233537   6.234   5.051  13.131  0.4537  0.6033  0.0549
 4041TIP3    H133538   6.327   5.056  13.155  0.5470 -0.1388 -0.1276
 4041TIP3    H233539   6.201   4.975  13.178  0.4031 -0.2945 -1.3556
 4042TIP3   OH233540   0.001   0.297   0.841 -0.2014  0.2161  0.1788
 4042TIP3    H133541  -0.020   0.205   0.855 -0.2768  0.2592  0.3484
 4042TIP3    H233542  -0.081   0.343   0.855 -0.8817  0.0615 -2.6961
 4043TIP3   OH233543   3.018   0.529   3.305  0.0914  0.7831  0.6179
 4043TIP3    H133544   2.985   0.503   3.219  1.0621  1.9505 -0.1426
 4043TIP3    H233545   2.983   0.617   3.319 -2.3167 -0.3787  2.6982
 4044TIP3   OH233546   2.065   3.889  11.455 -0.1805 -0.0963 -0.0470
 4044TIP3    H133547   2.109   3.852  11.378  0.6215 -0.0879  0.3910
 4044TIP3    H233548   2.136   3.901  11.519 -0.5457  1.4074  0.1206
 4045TIP3   OH233549   0.413   2.229   0.765 -0.6991 -0.3076  0.9131
 4045TIP3    H133550   0.409   2.204   0.858 -1.6946  1.7685  1.5010
 4045TIP3    H233551   0.389   2.150   0.718  1.1325 -1.8080  2.3179
 4046TIP3   OH233552   4.529   0.048  15.052  0.1152 -0.3255  0.4073
 4046TIP3    H133553   4.478   0.120  15.015 -0.4625 -0.7375  0.3820
 4046TIP3    H233554   4.517  -0.024  14.990  0.2501 -0.6006  0.6970
 4047TIP3   OH233555   1.739   2.995   0.033 -0.4117  0.5726 -0.3747
 4047TIP3    H133556   1.793   2.939   0.088 -0.5377  0.8412  0.0251
 4047TIP3    H233557   1.800   3.059  -0.003 -0.0658 -0.4465 -1.6891
 4048TIP3   OH233558   4.933   4.555   1.766  0.4080 -0.4680 -0.2419
 4048TIP3    H133559   4.982   4.554   1.684 -3.8741 -1.1890 -3.1435
 4048TIP3    H233560   4.881   4.475   1.764 -1.4988  0.5866  2.0236
 4049TIP3   OH233561   4.968   4.610  10.967  0.4357 -0.1655  0.6160
 4049TIP3    H133562   4.965   4.515  10.960  0.2387 -0.3741  2.9732
 4049TIP3    H233563   5.062   4.631  10.962  0.4128 -0.2741 -1.4088
 4050TIP3   OH233564   2.902   4.813  16.277  0.7372  0.1639  0.4770
 4050TIP3    H133565   2.921   4.720  16.279 -0.2295 -0.0524  0.2527
 4050TIP3    H233566   2.819   4.820  16.230  0.5012  1.0845  0.9938
 4051TIP3   OH233567   0.152   6.261   1.417  0.2031 -0.4096 -0.0127
 4051TIP3    H133568   0.174   6.171   1.392 -2.1075 -1.6393  1.8554
 4051TIP3    H233569   0.104   6.251   1.499 -3.2133  2.1650 -1.4385
 4052TIP3   OH233570   4.259   5.572  16.557  0.0293  0.4395 -1.0867
 4052TIP3    H133571   4.198   5.585  16.484  0.1475  0.5151 -1.1724
 4052TIP3    H233572   4.211   5.602  16.634  0.7477  2.6488 -1.4338
 4053TIP3   OH233573   4.845   1.388  14.926  0.1861 -0.0637  0.7351
 4053TIP3    H133574   4.834   1.422  14.838 -0.6065 -1.1575  0.3899
 4053TIP3    H233575   4.920   1.436  14.961  1.2952 -0.4725 -0.9643
 4054TIP3   OH233576   6.476   6.160  14.775  0.2774  0.2483  0.0726
 4054TIP3    H133577   6.482   6.200  14.862 -0.5617 -2.9347  1.7227
 4054TIP3    H233578   6.391   6.188  14.742 -0.3834 -0.2687  1.2650
 4055TIP3   OH233579   5.340   2.073  11.244 -0.0564  0.0546  0.4397
 4055TIP3    H133580   5.309   2.070  11.334 -0.0811  1.1855  0.4910
 4055TIP3    H233581   5.291   2.004  11.199  0.0895 -0.6419  1.3164
 4056TIP3   OH233582   0.482   6.118  13.308 -0.1882 -0.0506  0.5562
 4056TIP3    H133583   0.515   6.083  13.391 -1.4859 -3.0646 -0.0806
 4056TIP3    H233584   0.559   6.124  13.252  0.7088  2.0598  1.9220
 4057TIP3   OH233585   4.171   0.971   2.802 -0.1490  0.6657 -0.1839
 4057TIP3    H133586   4.179   0.957   2.707 -1.5572  1.5563 -0.4659
 4057TIP3    H233587   4.172   0.883   2.839  2.2896  0.3486 -0.8153
 4058TIP3   OH233588   4.363   6.161  14.882  0.6713  0.1243  0.0001
 4058TIP3    H133589   4.445   6.112  14.875  0.8375  0.4614 -0.4642
 4058TIP3    H233590   4.328   6.163  14.793  0.0227 -0.2368  0.2381
 4059TIP3   OH233591   0.681   0.163   4.266 -0.6023  0.1206  0.2448
 4059TIP3    H133592   0.714   0.251   4.282  2.9238 -1.0994  0.5620
 4059TIP3    H233593   0.642   0.167   4.179 -0.5851  1.9684  0.2918
 4060TIP3   OH233594   1.481   4.658   5.159 -0.4021  0.0734 -0.0488
 4060TIP3    H133595   1.469   4.608   5.240 -0.5886  0.5891  0.2458
 4060TIP3    H233596   1.571   4.640   5.133 -1.4706 -3.4950 -2.0386
 4061TIP3   OH233597   0.919   6.516  15.771  0.0670 -0.5925 -0.1658
 4061TIP3    H133598   0.995   6.492  15.718  0.3758  0.4549 -0.2180
 4061TIP3    H233599   0.906   6.609  15.754 -0.2198 -0.3761  1.1067
 4062TIP3   OH233600   5.865   1.794  11.023 -0.4530  0.6863  0.3152
 4062TIP3    H133601   5.843   1.728  10.957  1.1518  0.1570  0.2522
 4062TIP3    H233602   5.895   1.869  10.972 -0.6146  0.8191  0.4170
 4063TIP3   OH233603   5.326   4.460  15.636 -0.1906  0.4525  0.2524
 4063TIP3    H133604   5.402   4.482  15.582  0.3408 -0.3433  0.6606
 4063TIP3    H233605   5.352   4.382  15.685 -1.6964 -0.5868 -0.5130
 4064TIP3   OH233606   0.948   1.931  12.565  0.4213  0.1497  0.3716
 4064TIP3    H133607   0.866   1.936  12.516 -0.6524 -1.0256  1.9457
 4064TIP3    H233608   1.006   1.879  12.510 -0.9249 -1.5935  0.5186
 4065TIP3   OH233609   0.195   2.770  13.156 -0.2224 -0.3188 -0.3574
 4065TIP3    H133610   0.158   2.790  13.242 -0.9840  0.7078 -0.8916
 4065TIP3    H233611   0.150   2.689  13.129 -0.5130 -0.2506 -0.0858
 4066TIP3   OH233612   2.030   1.677  12.587 -0.7471  0.3408  0.3229
 4066TIP3    H133613   2.024   1.582  12.582 -0.0138  0.3445 -0.8842
 4066TIP3    H233614   2.124   1.695  12.595 -0.8218  0.9947 -0.2023
 4067TIP3   OH233615   1.001   1.285   4.790 -0.5002  0.2450 -0.7529
 4067TIP3    H133616   1.060   1.228   4.742 -0.6118  0.2963 -0.9536
 4067TIP3    H233617   0.998   1.366   4.737  0.1955  0.6995 -0.1221
 4068TIP3   OH233618   1.658   2.547   5.077  0.5412  0.3850  0.2575
 4068TIP3    H133619   1.700   2.501   5.150 -0.4221 -0.1310  0.5024
 4068TIP3    H233620   1.585   2.594   5.117  1.0429  1.5274 -0.1160
 4069TIP3   OH233621   3.898   3.133  15.034  0.5569 -0.2600  0.0715
 4069TIP3    H133622   3.868   3.057  15.085 -0.6912  0.0018 -0.2260
 4069TIP3    H233623   3.987   3.111  15.009  0.3829 -1.4292  0.3865
 4070TIP3   OH233624   0.617   3.810  12.542 -0.3121  0.1702  0.5195
 4070TIP3    H133625   0.628   3.786  12.450 -1.4895 -1.0122  0.6513
 4070TIP3    H233626   0.662   3.894  12.551 -1.1118  0.8547 -1.3895
 4071TIP3   OH233627   3.384   3.127   1.823 -0.0878 -0.2496  0.3765
 4071TIP3    H133628   3.398   3.044   1.867  0.8562 -0.6150 -0.5800
 4071TIP3    H233629   3.299   3.157   1.855 -0.0254 -1.1313  1.4190
 4072TIP3   OH233630   2.722   1.352  13.708 -0.1796  0.2076 -0.4337
 4072TIP3    H133631   2.745   1.413  13.777 -0.6433 -1.3151  1.1430
 4072TIP3    H233632   2.802   1.300  13.694  0.1119  0.9135 -1.5279
 4073TIP3   OH233633   4.769   1.045   5.768  0.2186  0.4419 -0.5611
 4073TIP3    H133634   4.840   1.054   5.832  0.1540 -0.4012 -0.3685
 4073TIP3    H233635   4.714   0.976   5.803 -0.5354  0.8799 -0.8702
 4074TIP3   OH233636   0.119   3.713  16.023  0.5384  0.2149 -0.1116
 4074TIP3    H133637   0.174   3.697  15.947 -0.3690  1.2519 -1.0156
 4074TIP3    H233638   0.164   3.669  16.095  1.3938 -0.8193 -1.2457
 4075TIP3   OH233639   6.723   3.378  10.921 -0.3621  0.1788  0.2087
 4075TIP3    H133640   6.674   3.330  10.854  0.4402 -1.1571  0.5577
 4075TIP3    H233641   6.795   3.419  10.873 -1.3556  1.5557 -0.1831
 4076TIP3   OH233642   0.683   4.119  10.404 -0.1312 -0.0358  0.0490
 4076TIP3    H133643   0.737   4.195  10.426 -3.4865  2.7258 -0.2564
 4076TIP3    H233644   0.666   4.076  10.488  0.8741  0.2553  0.4094
 4077TIP3   OH233645   0.735   4.380   3.217  1.0254  0.3653 -0.7555
 4077TIP3    H133646   0.715   4.288   3.234  1.7841  0.4027  0.4147
 4077TIP3    H233647   0.653   4.416   3.184  0.4003 -0.4715 -0.1602
 4078TIP3   OH233648   4.400   0.711   4.871  0.2431  0.0516 -0.1411
 4078TIP3    H133649   4.398   0.778   4.939  2.8573  0.2677 -0.1804
 4078TIP3    H233650   4.468   0.739   4.811  1.4543 -2.6123 -0.1666
 4079TIP3   OH233651   0.715   3.581  10.615  0.1165 -0.1426 -0.4421
 4079TIP3    H133652   0.734   3.499  10.569  1.3419 -0.9447  1.3828
 4079TIP3    H233653   0.802   3.621  10.628 -0.0170 -0.5685  2.2156
 4080TIP3   OH233654   3.390   0.380   3.141  0.0012  0.1647  0.0360
 4080TIP3    H133655   3.355   0.354   3.057 -0.7483  0.3118  0.2998
 4080TIP3    H233656   3.351   0.465   3.159  1.0043  0.6419  0.0317
 4081TIP3   OH233657   3.531   6.509  17.163  0.1306 -0.6290  0.3372
 4081TIP3    H133658   3.598   6.440  17.166 -0.0129 -0.8422 -0.8366
 4081TIP3    H233659   3.570   6.577  17.108  0.7657  0.8160  2.4332
 4082TIP3   OH233660   0.734   6.217  16.945 -0.5339  0.2461  0.1464
 4082TIP3    H133661   0.680   6.140  16.923  1.0637 -0.7464 -0.4812
 4082TIP3    H233662   0.729   6.272  16.866  0.6844 -0.6479 -0.5829
 4083TIP3   OH233663   5.070   1.518   0.988  0.3277  0.0973  0.0680
 4083TIP3    H133664   4.981   1.536   1.017  0.2282 -0.9801  0.4581
 4083TIP3    H233665   5.084   1.425   1.007  0.6357 -0.4107 -2.2885
 4084TIP3   OH233666   0.851   5.392   3.254  0.3515  0.2259  0.1504
 4084TIP3    H133667   0.936   5.434   3.239  0.7746 -0.9996 -1.0494
 4084TIP3    H233668   0.801   5.408   3.174 -0.6881  1.1396  0.9339
 4085TIP3   OH233669   5.870   1.515  15.252 -0.2855 -0.3641  0.8313
 4085TIP3    H133670   5.896   1.488  15.340  1.1114 -1.1978  0.1880
 4085TIP3    H233671   5.900   1.605  15.244  0.0970 -0.4726  1.0177
 4086TIP3   OH233672   1.566   5.860  15.046 -0.0905  0.0240  0.5894
 4086TIP3    H133673   1.549   5.895  14.959 -0.0390 -1.0572  0.1331
 4086TIP3    H233674   1.644   5.806  15.035 -1.0751 -1.5003  0.9272
 4087TIP3   OH233675   3.110   4.810  12.007  0.6481 -0.2721  0.4022
 4087TIP3    H133676   3.148   4.897  12.010  0.6426 -0.2747  0.5558
 4087TIP3    H233677   3.118   4.783  11.915  1.0315 -0.2801  0.4369
 4088TIP3   OH233678   1.321   5.547  14.051  0.2117 -1.0406 -0.3939
 4088TIP3    H133679   1.243   5.533  14.103 -1.3167  3.7010 -0.9496
 4088TIP3    H233680   1.390   5.565  14.115  0.1151 -2.0784  0.0239
 4089TIP3   OH233681   1.947   1.222  15.357 -0.1216  0.2077  0.4321
 4089TIP3    H133682   1.908   1.260  15.279  2.1731 -1.2128 -1.5461
 4089TIP3    H233683   2.022   1.278  15.376 -0.0095 -0.0985  0.9107
 4090TIP3   OH233684   3.247   6.729  10.972  0.1185 -0.5009  0.4219
 4090TIP3    H133685   3.212   6.690  10.892 -0.0958  0.8041 -0.1501
 4090TIP3    H233686   3.224   6.822  10.965  0.9306 -0.1971  1.5528
 4091TIP3   OH233687   0.852   1.887   4.351 -0.4977 -0.3918  0.4108
 4091TIP3    H133688   0.808   1.871   4.268 -0.3705  0.1980  0.2246
 4091TIP3    H233689   0.782   1.906   4.413 -0.6303 -1.3491  0.5669
 4092TIP3   OH233690   2.950   4.499  15.640 -0.4680 -0.2698  0.4755
 4092TIP3    H133691   3.003   4.438  15.690 -0.0570 -0.4236 -0.1454
 4092TIP3    H233692   3.011   4.565  15.608 -0.5622 -0.6812 -0.6008
 4093TIP3   OH233693   2.237   0.915  12.317 -1.0982 -0.1709 -0.0482
 4093TIP3    H133694   2.313   0.973  12.320 -1.7490  0.6741  0.9142
 4093TIP3    H233695   2.209   0.917  12.226  0.1695 -0.6934 -0.4662
 4094TIP3   OH233696   0.142   2.588   4.230 -0.0782 -0.0087 -0.5111
 4094TIP3    H133697   0.056   2.612   4.198 -0.0633  0.5752 -0.1257
 4094TIP3    H233698   0.125   2.521   4.297 -0.1212 -1.0702 -1.5416
 4095TIP3   OH233699   3.885   2.275   2.865 -0.5594  0.2148  0.2180
 4095TIP3    H133700   3.923   2.345   2.918  2.1319 -0.4885 -0.6148
 4095TIP3    H233701   3.918   2.291   2.776 -1.2930 -1.1215 -0.3315
 4096TIP3   OH233702   5.644   5.804   3.979  0.0626 -0.7134 -0.1949
 4096TIP3    H133703   5.674   5.893   3.958  1.0383 -0.7178  1.0985
 4096TIP3    H233704   5.586   5.782   3.906  0.8100  0.4867 -1.2160
 4097TIP3   OH233705   3.122   2.156   4.704 -0.0773  0.4572  0.3010
 4097TIP3    H133706   3.079   2.232   4.666 -0.8756  0.4729  1.1989
 4097TIP3    H233707   3.064   2.128   4.774  0.5283 -0.5919  0.4048
 4098TIP3   OH233708   1.700   2.785  11.786 -0.5770  0.4077 -0.1772
 4098TIP3    H133709   1.668   2.847  11.721 -1.3232 -1.1579 -1.3678
 4098TIP3    H233710   1.704   2.835  11.867 -1.3295  1.9508 -1.0595
 4099TIP3   OH233711   5.651   1.709  12.204  0.4428  0.0048  0.2872
 4099TIP3    H133712   5.566   1.714  12.248  0.2440 -1.8509  0.2023
 4099TIP3    H233713   5.705   1.657  12.264  1.7936  1.7889  0.6953
 4100TIP3   OH233714   6.136   0.492   0.965  0.4686  0.3818  0.0014
 4100TIP3    H133715   6.069   0.560   0.976 -0.8022 -0.7478 -0.4653
 4100TIP3    H233716   6.196   0.505   1.038 -0.0148  1.6901  0.1899
 4101TIP3   OH233717   2.955   4.002   5.591  0.2420  0.2955  0.1953
 4101TIP3    H133718   2.892   3.974   5.658 -1.3006  1.4258 -0.7098
 4101TIP3    H233719   2.943   3.941   5.519  0.5422  0.2268  0.2007
 4102TIP3   OH233720   3.064   4.775  13.250 -0.0157 -0.5929 -0.2615
 4102TIP3    H133721   3.159   4.776  13.261  0.0401 -2.3701 -0.3493
 4102TIP3    H233722   3.049   4.821  13.167  0.7187  0.1136 -0.0081
 4103TIP3   OH233723   0.811   4.152  10.827  0.0330 -0.8397 -0.0348
 4103TIP3    H133724   0.855   4.130  10.745  0.0093 -0.8138 -0.0545
 4103TIP3    H233725   0.718   4.135  10.809  0.1107 -1.5873  0.2357
 4104TIP3   OH233726   1.891   3.590  13.620  0.0325  0.1156  0.2051
 4104TIP3    H133727   1.911   3.516  13.562  1.8379  2.2893 -2.1746
 4104TIP3    H233728   1.974   3.636  13.630 -1.5558  3.7075 -1.3081
 4105TIP3   OH233729   6.384   5.285  16.566  0.4255 -0.1653  0.0058
 4105TIP3    H133730   6.304   5.336  16.579  0.3885  0.0628 -1.0565
 4105TIP3    H233731   6.450   5.332  16.618  0.0204  0.0036  0.3826
 4106TIP3   OH233732   2.890   5.557   5.524  0.1980  0.2625  0.0905
 4106TIP3    H133733   2.968   5.548   5.469  1.1501 -0.7000  1.5113
 4106TIP3    H233734   2.822   5.509   5.478  0.6741  0.3927 -0.7693
 4107TIP3   OH233735   6.371   4.732   2.010  0.1415  0.4957  0.2960
 4107TIP3    H133736   6.298   4.734   1.948  0.6200  1.5047 -0.2524
 4107TIP3    H233737   6.426   4.660   1.980  0.2563  0.8380 -0.3284
 4108TIP3   OH233738   5.412   0.454  16.206 -0.3761 -0.3743  0.0855
 4108TIP3    H133739   5.387   0.399  16.280  0.0722 -0.1379  0.4125
 4108TIP3    H233740   5.463   0.525  16.244  1.3072 -1.1382 -0.6307
 4109TIP3   OH233741   2.651   3.125   4.362  0.5380 -0.1358 -0.4123
 4109TIP3    H133742   2.703   3.102   4.439  2.0417 -0.1191 -1.3829
 4109TIP3    H233743   2.706   3.101   4.288 -0.6367  0.3822 -1.4907
 4110TIP3   OH233744   4.576   5.475  12.254  0.7714 -0.7012 -0.2062
 4110TIP3    H133745   4.623   5.430  12.184  4.0634 -0.0432  1.3568
 4110TIP3    H233746   4.574   5.412  12.326  2.4803  0.3727  0.8820
 4111TIP3   OH233747   6.737   3.620   3.771 -0.1435  0.1104  0.2774
 4111TIP3    H133748   6.737   3.575   3.856 -0.3997  0.3342  0.3963
 4111TIP3    H233749   6.692   3.560   3.712  0.3344 -0.1984  0.2133
 4112TIP3   OH233750   1.108   2.843  13.993 -0.6499  0.2273  0.4654
 4112TIP3    H133751   1.134   2.935  13.996 -1.8451  0.6601 -1.1248
 4112TIP3    H233752   1.017   2.843  14.023 -1.0417 -0.2390 -0.6643
 4113TIP3   OH233753   3.390   4.378   1.880 -0.4485 -0.0109  0.0192
 4113TIP3    H133754   3.421   4.469   1.885 -1.4168  0.2425  2.3204
 4113TIP3    H233755   3.470   4.326   1.886 -0.0299  0.6768  0.6509
 4114TIP3   OH233756   2.154   4.133  12.044 -0.2894 -0.5426  0.3185
 4114TIP3    H133757   2.249   4.147  12.048 -0.0563 -2.0616  0.5103
 4114TIP3    H233758   2.136   4.068  12.112 -1.4262 -0.5091  0.0744
 4115TIP3   OH233759   0.671   5.396   1.315  0.0073 -0.8449 -0.2169
 4115TIP3    H133760   0.753   5.351   1.297  0.0165 -1.3219  0.9463
 4115TIP3    H233761   0.623   5.337   1.372 -0.6909 -0.1054 -0.0143
 4116TIP3   OH233762   6.397   1.677   4.444  0.3964  0.8624  0.5354
 4116TIP3    H133763   6.391   1.587   4.476  1.7193  0.8773  0.8863
 4116TIP3    H233764   6.307   1.702   4.425  0.2243 -2.2090 -4.3829
 4117TIP3   OH233765   6.214   2.660  11.449  0.0490 -0.0266  0.1137
 4117TIP3    H133766   6.259   2.608  11.383 -1.3408  1.3185 -2.0320
 4117TIP3    H233767   6.147   2.601  11.485 -0.1166 -0.3762 -0.7498
 4118TIP3   OH233768   3.931   3.300   2.215 -0.1850 -0.5138 -0.1459
 4118TIP3    H133769   3.845   3.282   2.179 -0.6234  2.0953 -0.6116
 4118TIP3    H233770   3.978   3.346   2.145  1.2192 -0.9161  0.4778
 4119TIP3   OH233771   5.685   6.653  14.745 -0.0912 -0.5412  0.2703
 4119TIP3    H133772   5.726   6.662  14.831  0.9529 -2.6196  0.0596
 4119TIP3    H233773   5.646   6.565  14.746  1.1762 -1.2012 -1.8166
 4120TIP3   OH233774   4.820   0.994  13.630 -0.1211  0.1662  1.1819
 4120TIP3    H133775   4.861   1.080  13.623  1.6375 -0.5918  1.5827
 4120TIP3    H233776   4.726   1.012  13.631  0.0501  1.8412 -1.9198
 4121TIP3   OH233777   1.139   0.889  15.926  0.9634 -0.2022  0.4271
 4121TIP3    H133778   1.194   0.820  15.963  1.5604  1.0847  1.9927
 4121TIP3    H233779   1.192   0.968  15.930 -1.6235  1.6322  4.1543
 4122TIP3   OH233780   5.745   5.781   5.290 -0.0319 -0.3014 -0.3267
 4122TIP3    H133781   5.727   5.724   5.365 -4.9389  1.9528  0.6052
 4122TIP3    H233782   5.756   5.868   5.327 -0.6553  0.5826 -2.0688
 4123TIP3   OH233783   5.764   0.594   1.531  0.0370 -0.1901  0.0706
 4123TIP3    H133784   5.695   0.545   1.487  0.5464 -0.1661 -0.7764
 4123TIP3    H233785   5.817   0.527   1.575 -0.4424 -0.2190  0.6095
 4124TIP3   OH233786   5.220   1.267  15.736  0.4483  0.5864 -0.0749
 4124TIP3    H133787   5.209   1.192  15.678  0.5380  2.1490 -2.2626
 4124TIP3    H233788   5.301   1.250  15.784  0.1396 -0.9643 -0.0721
 4125TIP3   OH233789   1.247   1.266   6.719 -0.0646  0.1735 -0.1281
 4125TIP3    H133790   1.170   1.247   6.772 -1.0791 -0.3162 -1.6977
 4125TIP3    H233791   1.215   1.327   6.653  1.4931  1.8885  0.6101
 4126TIP3   OH233792   1.445   2.350  12.462  0.2336 -0.4532  0.2205
 4126TIP3    H133793   1.529   2.338  12.417 -0.5837 -3.8992 -0.6933
 4126TIP3    H233794   1.389   2.281  12.426 -2.0735 -0.1359  2.9105
 4127TIP3   OH233795   2.034   2.622  13.710 -0.0910 -0.4088 -0.3275
 4127TIP3    H133796   2.085   2.638  13.630 -2.3202 -0.4845 -1.8428
 4127TIP3    H233797   2.018   2.709  13.746  1.3800 -0.4027  0.4136
 4128TIP3   OH233798   4.377   2.945  13.011 -0.0236  0.0580  0.2435
 4128TIP3    H133799   4.290   2.941  13.051 -0.1181  2.6353  0.4689
 4128TIP3    H233800   4.438   2.933  13.083 -0.1742 -0.8815  0.2242
 4129TIP3   OH233801   2.341   6.769  16.483  0.3580 -0.3442  0.3655
 4129TIP3    H133802   2.296   6.846  16.519 -0.7559 -0.7223 -0.1891
 4129TIP3    H233803   2.300   6.694  16.527 -0.2734 -0.7523 -0.8740
 4130TIP3   OH233804   1.935   0.021   0.767  0.2284 -0.0410 -0.0719
 4130TIP3    H133805   1.897   0.023   0.679  1.4941  0.7524 -0.6301
 4130TIP3    H233806   2.029   0.014   0.753  0.4165 -0.5234  1.2413
 4131TIP3   OH233807   0.142   4.324   1.469  0.3171 -0.2996 -0.8915
 4131TIP3    H133808   0.121   4.338   1.561 -1.8571  0.5236 -1.4550
 4131TIP3    H233809   0.097   4.243   1.446 -0.1963  0.1626 -1.5354
 4132TIP3   OH233810   0.979   6.290   2.034  0.0308  0.6125 -0.0179
 4132TIP3    H133811   0.892   6.329   2.037  0.1700  1.1830 -2.0873
 4132TIP3    H233812   1.040   6.364   2.034  0.4363  0.2899 -0.4236
 4133TIP3   OH233813   2.524   1.667   2.683  0.1427 -0.3820  0.4200
 4133TIP3    H133814   2.568   1.697   2.603  1.3282  2.2787  1.9750
 4133TIP3    H233815   2.492   1.746   2.725 -2.2568 -1.8752  1.6601
 4134TIP3   OH233816   1.599   4.401  16.415 -0.2653 -0.2789 -0.6784
 4134TIP3    H133817   1.546   4.480  16.418  0.0342 -0.1151  1.7929
 4134TIP3    H233818   1.689   4.434  16.409  0.0108 -0.2908  2.2978
 4135TIP3   OH233819   0.644   4.193  11.634 -0.2822 -0.2517 -0.4964
 4135TIP3    H133820   0.682   4.187  11.722 -1.0103  2.2391  0.0681
 4135TIP3    H233821   0.551   4.175  11.648 -0.5351  0.9129 -0.5888
 4136TIP3   OH233822   4.097   1.361   0.474  0.8898  0.1621  0.2881
 4136TIP3    H133823   4.116   1.381   0.382  2.6992  0.9580  0.7892
 4136TIP3    H233824   4.183   1.340   0.512  0.1280 -0.5014  1.7251
 4137TIP3   OH233825   2.670   5.843  14.733  0.2633 -0.4255 -0.3309
 4137TIP3    H133826   2.709   5.891  14.806  2.3075 -2.8219  0.2606
 4137TIP3    H233827   2.699   5.753  14.745 -1.2565 -1.3416 -2.8521
 4138TIP3   OH233828   3.701   4.684   2.815 -0.1908 -0.0307  0.1019
 4138TIP3    H133829   3.764   4.697   2.744 -0.1867  2.7528  0.4962
 4138TIP3    H233830   3.729   4.603   2.858  2.1428  0.2696 -0.6988
 4139TIP3   OH233831   6.327   2.798   4.371 -0.0291  0.6321  0.5851
 4139TIP3    H133832   6.298   2.844   4.292 -0.9640  1.9614  1.6533
 4139TIP3    H233833   6.403   2.747   4.343 -0.9860  0.1942 -1.4115
 4140TIP3   OH233834   5.960   5.469   6.157 -0.1234  0.4577  0.4841
 4140TIP3    H133835   6.052   5.486   6.137  0.2849 -1.6904  0.2221
 4140TIP3    H233836   5.956   5.464   6.253 -0.0159  0.7867  0.5048
 4141TIP3   OH233837   4.737   3.662  15.127  0.2392 -0.0066  0.7026
 4141TIP3    H133838   4.745   3.672  15.032  0.7065  2.3044  0.9238
 4141TIP3    H233839   4.782   3.579  15.146 -0.2532 -0.7390 -1.1120
 4142TIP3   OH233840   5.848   4.101  14.475 -0.1043 -0.0962  0.0712
 4142TIP3    H133841   5.764   4.060  14.455 -1.3286  0.7119  2.9700
 4142TIP3    H233842   5.829   4.195  14.480  0.8612  0.0736  1.0925
 4143TIP3   OH233843   4.715   6.242   3.942 -0.1748 -0.5500  0.1357
 4143TIP3    H133844   4.632   6.213   3.904  0.2554 -1.5288 -0.0879
 4143TIP3    H233845   4.776   6.246   3.868 -0.0983  0.5191  0.2366
 4144TIP3   OH233846   2.465   0.121   3.980  0.1583 -0.4603  0.1352
 4144TIP3    H133847   2.503   0.175   4.049  1.4087 -1.8419  0.5933
 4144TIP3    H233848   2.431   0.044   4.025 -2.0840  0.1314 -0.4391
 4145TIP3   OH233849   0.399   2.189  16.890  0.5838  0.2452 -0.6512
 4145TIP3    H133850   0.306   2.209  16.898  0.8307  0.8741  1.0696
 4145TIP3    H233851   0.417   2.194  16.796 -0.8331  1.4240 -0.8917
 4146TIP3   OH233852   0.748   1.596  12.880  0.6761  0.4052 -0.3040
 4146TIP3    H133853   0.786   1.588  12.967 -0.1425 -0.1451  0.0215
 4146TIP3    H233854   0.713   1.509  12.861 -2.3975  1.3484  0.3891
 4147TIP3   OH233855   6.446   2.810   4.795 -0.1022 -0.0047  1.1175
 4147TIP3    H133856   6.365   2.760   4.803 -0.1195  0.0422  1.2498
 4147TIP3    H233857   6.418   2.901   4.808  0.0814 -0.0569  1.8963
 4148TIP3   OH233858   0.360   1.346  16.407 -0.2129 -0.0336 -0.0971
 4148TIP3    H133859   0.371   1.268  16.461  1.1140  0.3387  0.2161
 4148TIP3    H233860   0.310   1.406  16.461 -0.1907 -0.2223  0.1329
 4149TIP3   OH233861   1.758   5.789  12.984  0.2389  0.2880  0.4006
 4149TIP3    H133862   1.849   5.815  12.996  0.6883 -0.5353 -0.9659
 4149TIP3    H233863   1.763   5.709  12.931 -1.3125  0.8891 -0.7186
 4150TIP3   OH233864   6.529   0.434   0.761  0.7183  0.2560 -0.0199
 4150TIP3    H133865   6.455   0.400   0.811  1.0342 -1.8791 -0.8739
 4150TIP3    H233866   6.558   0.511   0.809 -0.2748 -0.5262  1.9295
 4151TIP3   OH233867   1.279   4.291  16.373 -0.3530 -0.0511  0.4013
 4151TIP3    H133868   1.234   4.234  16.311  1.7908  0.5905 -1.9115
 4151TIP3    H233869   1.233   4.375  16.366  1.3075  0.7461 -2.3198
 4152TIP3   OH233870   3.876   6.212  13.718  0.2693  0.0621  0.5634
 4152TIP3    H133871   3.856   6.120  13.734 -1.8061  0.0564 -1.5602
 4152TIP3    H233872   3.829   6.260  13.786 -1.0265 -0.3383 -0.0342
 4153TIP3   OH233873   2.507   2.948   2.494  0.2492 -0.0280 -0.5218
 4153TIP3    H133874   2.486   2.856   2.475  0.3286 -0.2527  0.4056
 4153TIP3    H233875   2.465   2.964   2.579  0.6646  0.6390 -0.4416
 4154TIP3   OH233876   3.828   3.989  15.371 -0.2229 -0.1281  0.0370
 4154TIP3    H133877   3.768   4.060  15.394 -0.2754 -0.5436  1.2536
 4154TIP3    H233878   3.833   3.935  15.450 -1.1704 -2.2030 -1.2270
 4155TIP3   OH233879   3.448   2.179   1.031 -0.3810 -0.4457  0.2695
 4155TIP3    H133880   3.543   2.173   1.031 -0.3248  0.2905 -0.3153
 4155TIP3    H233881   3.430   2.273   1.023 -1.1502 -0.6323 -0.3195
 4156TIP3   OH233882   1.385   1.299   4.539  0.1138 -0.1302 -0.0036
 4156TIP3    H133883   1.321   1.335   4.477  0.2346 -0.2663 -0.2027
 4156TIP3    H233884   1.432   1.376   4.571  1.1367 -0.2084 -1.2694
 4157TIP3   OH233885   2.888   3.031  13.345  0.2503 -0.6345 -0.2328
 4157TIP3    H133886   2.846   3.007  13.428  1.2646 -2.5609 -0.2303
 4157TIP3    H233887   2.982   3.026  13.363  0.5170  0.9048 -0.9935
 4158TIP3   OH233888   3.073   6.560  12.598 -0.0802 -0.6767 -0.3382
 4158TIP3    H133889   3.010   6.631  12.612  1.5409  0.6823  0.3053
 4158TIP3    H233890   3.046   6.521  12.515 -2.5094 -0.9808  0.5082
 4159TIP3   OH233891   5.817   5.420  15.531  0.1238 -0.2366  0.1918
 4159TIP3    H133892   5.816   5.506  15.490 -1.0425  0.3573  1.4011
 4159TIP3    H233893   5.867   5.365  15.471 -0.4817  0.8875 -1.3885
 4160TIP3   OH233894   3.454   0.860   4.503  0.3697 -0.1728  0.0240
 4160TIP3    H133895   3.411   0.945   4.510  1.9991  0.7011 -0.0387
 4160TIP3    H233896   3.398   0.809   4.445 -2.0101 -0.0856  2.0658
 4161TIP3   OH233897   2.278   4.700   5.511 -0.1240 -0.2378  0.2754
 4161TIP3    H133898   2.249   4.672   5.424  0.1414 -1.2103  0.4884
 4161TIP3    H233899   2.198   4.705   5.563 -0.2357 -0.0525  0.0871
 4162TIP3   OH233900   4.428   1.255  11.603 -0.4697 -0.7720 -0.4561
 4162TIP3    H133901   4.390   1.176  11.565 -1.9044 -0.4048  0.1531
 4162TIP3    H233902   4.523   1.242  11.597 -0.6773 -2.6615 -0.1030
 4163TIP3   OH233903   3.159   1.836   1.238  0.3033  0.4500 -0.2698
 4163TIP3    H133904   3.234   1.851   1.180 -0.5380  1.4351 -1.1301
 4163TIP3    H233905   3.127   1.924   1.259 -1.8517  0.0231 -1.5435
 4164TIP3   OH233906   2.517   5.429  14.341 -0.2361 -0.4764 -0.0224
 4164TIP3    H133907   2.526   5.359  14.276  2.3121 -0.2514 -0.0048
 4164TIP3    H233908   2.467   5.497  14.295 -0.3135 -1.1697 -1.0078
 4165TIP3   OH233909   0.731   0.155   2.257  0.1631 -0.0477 -0.1609
 4165TIP3    H133910   0.812   0.189   2.219  0.5981  0.5754  1.2265
 4165TIP3    H233911   0.758   0.076   2.304 -0.0961 -0.0497 -0.0133
 4166TIP3   OH233912   0.128   1.850   3.146 -0.1153  0.0087  0.3895
 4166TIP3    H133913   0.149   1.757   3.133  2.1069  0.3324  1.3074
 4166TIP3    H233914   0.070   1.850   3.222  0.1526 -0.5954  0.6012
 4167TIP3   OH233915   3.317   5.674  13.615  0.1673  0.1208  0.3202
 4167TIP3    H133916   3.332   5.580  13.621 -1.1566 -0.1849 -0.7582
 4167TIP3    H233917   3.272   5.696  13.696 -0.6323 -0.4132  0.0312
 4168TIP3   OH233918   3.753   2.250  11.785 -0.1029  0.1930 -0.5095
 4168TIP3    H133919   3.679   2.287  11.833 -0.9447 -2.2028  0.2206
 4168TIP3    H233920   3.715   2.221  11.702  0.8068  2.0229 -1.6135
 4169TIP3   OH233921   3.708   3.711  12.401 -0.2663 -0.4017 -0.0947
 4169TIP3    H133922   3.797   3.706  12.365 -0.0024  1.5002  0.1842
 4169TIP3    H233923   3.670   3.789  12.360 -0.5327  0.8732  2.3706
 4170TIP3   OH233924   2.291   3.296   0.184 -0.3210 -0.0813  0.4007
 4170TIP3    H133925   2.373   3.251   0.202 -0.4149 -0.7523 -0.7437
 4170TIP3    H233926   2.228   3.226   0.168 -0.7752  0.4371 -0.1292
 4171TIP3   OH233927   3.487   1.175   5.433 -0.1436  0.7249  0.0305
 4171TIP3    H133928   3.546   1.210   5.367  2.8895  0.5089  2.3900
 4171TIP3    H233929   3.491   1.080   5.422  0.3358  0.6901  0.4755
 4172TIP3   OH233930   2.004   6.608  17.175  0.0197 -0.3470  0.0676
 4172TIP3    H133931   1.998   6.689  17.125  0.0358 -0.1650  0.3630
 4172TIP3    H233932   1.919   6.599  17.217  1.1002  1.3535  2.8870
 4173TIP3   OH233933   2.769   3.931  17.216 -0.0048 -0.1062 -0.5355
 4173TIP3    H133934   2.715   4.002  17.250  0.9608  1.6196 -2.4008
 4173TIP3    H233935   2.843   3.925  17.276 -0.3291  0.1269 -0.1128
 4174TIP3   OH233936   5.364   5.821   4.776  0.6525  0.3799  0.3969
 4174TIP3    H133937   5.282   5.860   4.744  0.0430 -0.9400  0.2548
 4174TIP3    H233938   5.336   5.742   4.822  1.8676 -0.2444  0.1140
 4175TIP3   OH233939   2.884   6.454  15.892 -0.3780 -0.0864 -0.1996
 4175TIP3    H133940   2.911   6.453  15.984 -0.8156 -1.6326 -0.0674
 4175TIP3    H233941   2.896   6.364  15.862  0.7294  0.5846 -1.9671
 4176TIP3   OH233942   0.063   4.413   5.829 -0.6448  0.0761  0.1421
 4176TIP3    H133943   0.095   4.371   5.909 -0.4256  0.6486  0.3571
 4176TIP3    H233944  -0.023   4.448   5.854 -0.1462  1.1325  0.4276
 4177TIP3   OH233945   4.766   3.496  17.061 -0.5517  0.1605  0.3433
 4177TIP3    H133946   4.826   3.492  17.136 -0.5339  3.4306  0.6321
 4177TIP3    H233947   4.682   3.522  17.100 -1.3132 -1.0347 -0.4620
 4178TIP3   OH233948   3.270   6.314  11.981  0.8927  0.3735  0.2027
 4178TIP3    H133949   3.220   6.300  11.901  0.8815 -1.0120  0.4167
 4178TIP3    H233950   3.205   6.302  12.051  1.2371 -0.0597  0.4485
 4179TIP3   OH233951   5.946   5.958  15.091 -0.0897 -0.2020  0.3295
 4179TIP3    H133952   5.986   5.954  15.178 -0.0567  0.3822  0.3469
 4179TIP3    H233953   5.863   6.002  15.104  0.3947  0.8770 -0.0889
 4180TIP3   OH233954   6.568   3.020  11.072  0.0142  0.7577  0.6131
 4180TIP3    H133955   6.582   2.937  11.027 -1.1066  0.2608  1.1440
 4180TIP3    H233956   6.498   3.063  11.021  0.2770  1.1752  0.5996
 4181TIP3   OH233957   4.186   2.293  13.767 -0.0384 -0.4668  0.0837
 4181TIP3    H133958   4.168   2.286  13.860  0.3201  1.6251  0.3462
 4181TIP3    H233959   4.143   2.374  13.740  2.9369  0.9357 -0.7514
 4182TIP3   OH233960   2.038   6.435  15.873  0.0270 -0.3529 -0.0858
 4182TIP3    H133961   2.111   6.414  15.931  0.2249 -0.0740 -0.2331
 4182TIP3    H233962   1.994   6.508  15.915 -0.7913 -1.1785  0.5354
 4183TIP3   OH233963   1.584   5.771  16.202  0.0915  0.5022  0.3621
 4183TIP3    H133964   1.499   5.741  16.169  0.3086  0.0996  0.1582
 4183TIP3    H233965   1.612   5.702  16.263  0.8589 -0.0198 -0.5387
 4184TIP3   OH233966   0.914   3.497  15.393 -0.3715  0.4723 -0.4162
 4184TIP3    H133967   0.970   3.574  15.385  0.0259 -0.0121 -4.7044
 4184TIP3    H233968   0.825   3.529  15.376 -0.2990  0.1463 -1.4933
 4185TIP3   OH233969   3.393   0.377  17.210 -0.1566  0.2550  0.5430
 4185TIP3    H133970   3.478   0.335  17.223  1.4424  2.6008 -1.5236
 4185TIP3    H233971   3.392   0.449  17.273  0.9328  2.2373 -1.5660
 4186TIP3   OH233972   6.582   2.102  16.414  0.2200  0.0473 -0.0892
 4186TIP3    H133973   6.503   2.085  16.362  0.7406 -3.1070 -0.0370
 4186TIP3    H233974   6.646   2.132  16.350 -0.5634  1.2188 -0.3632
 4187TIP3   OH233975   6.363   4.861  13.909  0.5166  0.4529  0.3371
 4187TIP3    H133976   6.383   4.768  13.923  0.5127  0.3331 -0.3969
 4187TIP3    H233977   6.419   4.907  13.971 -1.0702 -0.1121  2.2920
 4188TIP3   OH233978   0.564   5.095  13.209  0.3517  0.0660  0.6068
 4188TIP3    H133979   0.497   5.149  13.168  0.9730  0.3327 -0.0809
 4188TIP3    H233980   0.643   5.149  13.207  0.5111 -0.1133  1.7177
 4189TIP3   OH233981   5.118   6.465   4.924 -0.3111 -0.0483  0.2162
 4189TIP3    H133982   5.106   6.461   5.018  1.6499  0.0578  0.5121
 4189TIP3    H233983   5.107   6.375   4.894 -1.4294 -0.0048  0.4477
 4190TIP3   OH233984   1.572   5.798   5.597 -0.0619 -1.2173  0.1000
 4190TIP3    H133985   1.615   5.847   5.667 -1.5546  0.0370  0.1806
 4190TIP3    H233986   1.503   5.749   5.642  1.1961 -3.2242 -0.0261
 4191TIP3   OH233987   2.946   4.173   1.046  0.1973  0.1658 -0.1514
 4191TIP3    H133988   2.872   4.219   1.086  0.0265  0.3842 -0.7070
 4191TIP3    H233989   3.023   4.215   1.085  0.0955 -1.6523  2.2694
 4192TIP3   OH233990   1.224   5.917  13.066  0.3765 -0.4097 -0.3481
 4192TIP3    H133991   1.224   6.003  13.108  1.0454 -0.9874  0.8837
 4192TIP3    H233992   1.132   5.893  13.061  0.1917  0.3477 -0.6323
 4193TIP3   OH233993   5.334   0.080  14.433 -0.6437  0.2436 -0.4498
 4193TIP3    H133994   5.298   0.159  14.393 -1.1222  0.3588  0.1907
 4193TIP3    H233995   5.265   0.049  14.492  0.3509  0.5788  0.9547
 4194TIP3   OH233996   6.084   6.167  13.366  0.1740 -0.2192  0.7284
 4194TIP3    H133997   6.124   6.237  13.314  0.3461  0.0007  1.1548
 4194TIP3    H233998   5.990   6.177  13.352  0.2419 -0.5494 -0.0354
 4195TIP3   OH233999   3.158   3.240  13.158 -0.2433 -0.2558  0.5105
 4195TIP3    H134000   3.091   3.295  13.117 -0.1577  1.9430  3.0591
 4195TIP3    H234001   3.232   3.299  13.172  0.2146 -1.2200  2.5050
 4196TIP3   OH234002   0.780   2.645   2.596  0.0915  0.7640 -0.5798
 4196TIP3    H134003   0.865   2.687   2.611 -0.0958  1.4426 -1.3413
 4196TIP3    H234004   0.762   2.598   2.677  0.8014  1.3011 -0.0960
 4197TIP3   OH234005   2.103   5.604  16.111  0.0783 -0.4385 -0.4750
 4197TIP3    H134006   2.023   5.652  16.131 -0.8397 -2.2527  0.5266
 4197TIP3    H234007   2.076   5.536  16.050  0.7440 -1.3218  0.1781
 4198TIP3   OH234008   2.563   3.883   4.393 -0.0788  0.0707 -0.5067
 4198TIP3    H134009   2.558   3.978   4.400  1.1105  0.0479  1.1124
 4198TIP3    H234010   2.535   3.864   4.303  1.0506  2.0534 -1.3439
 4199TIP3   OH234011   1.356   2.447   5.500 -0.5171  0.1629 -0.0554
 4199TIP3    H134012   1.294   2.425   5.570  0.5639 -0.0668  0.8426
 4199TIP3    H234013   1.348   2.542   5.489  1.7568  0.8239  2.8266
 4200TIP3   OH234014   2.312   1.175   3.556  0.0071  0.6034  0.3430
 4200TIP3    H134015   2.309   1.269   3.573 -0.7424  0.6040  0.2608
 4200TIP3    H234016   2.354   1.138   3.634 -1.1311  0.8540  1.1148
 4201TIP3   OH234017   4.328   4.103   0.381 -0.0277  0.0700 -0.0604
 4201TIP3    H134018   4.379   4.023   0.367 -0.8125 -0.7815  1.6227
 4201TIP3    H234019   4.373   4.170   0.329  1.1991 -1.2410 -0.7664
 4202TIP3   OH234020   4.592   0.868   2.002 -0.5929  0.3445  0.3874
 4202TIP3    H134021   4.511   0.837   1.961  0.1307  0.7192 -1.4580
 4202TIP3    H234022   4.599   0.959   1.974  1.5852 -0.2924 -1.4898
 4203TIP3   OH234023   5.763   3.832   4.863 -0.1589 -0.1058  0.9705
 4203TIP3    H134024   5.683   3.781   4.848 -1.0072  0.3790  3.3768
 4203TIP3    H234025   5.826   3.798   4.799 -1.9007 -1.3461 -0.1693
 4204TIP3   OH234026   0.714   3.312   0.458  0.4983  0.0252 -0.2488
 4204TIP3    H134027   0.761   3.271   0.531 -0.7476  0.9092  1.1056
 4204TIP3    H234028   0.679   3.238   0.408 -0.3952 -0.6322  1.2666
 4205TIP3   OH234029   2.243   2.737   3.132  0.1455  0.6524 -0.8002
 4205TIP3    H134030   2.203   2.660   3.172  0.7235  0.9730  0.4529
 4205TIP3    H234031   2.169   2.796   3.115 -0.0342  1.0415  1.0584
 4206TIP3   OH234032   5.034   5.857   3.275 -0.4783  0.4471 -0.0133
 4206TIP3    H134033   5.026   5.953   3.279 -0.3683  0.4271  0.8061
 4206TIP3    H234034   5.023   5.828   3.365 -0.4427 -0.3156 -0.2455
 4207TIP3   OH234035   0.792   4.793  11.221  0.2479  0.0561 -0.0340
 4207TIP3    H134036   0.739   4.871  11.238 -0.5452 -0.6739  1.0087
 4207TIP3    H234037   0.881   4.818  11.246 -0.0557  0.5288  0.6014
 4208TIP3   OH234038   6.595   2.258  14.482 -0.5047  0.4639  0.4820
 4208TIP3    H134039   6.550   2.173  14.490 -0.6301  0.6238  1.5981
 4208TIP3    H234040   6.683   2.235  14.451 -0.4828 -0.0962  0.9318
 4209TIP3   OH234041   1.497   3.393   4.908  0.1345  0.3614  0.3899
 4209TIP3    H134042   1.465   3.357   4.991 -2.2893  0.4865 -0.4131
 4209TIP3    H234043   1.543   3.473   4.933 -0.9645  0.6509  1.6074
 4210TIP3   OH234044   0.525   4.381   3.961  0.6672 -0.0512 -0.9335
 4210TIP3    H134045   0.502   4.415   3.874 -2.0234  0.5103 -0.0942
 4210TIP3    H234046   0.579   4.450   3.999 -0.6808  1.1397 -1.0740
 4211TIP3   OH234047   0.606   3.524  11.038  0.4576 -0.2022 -0.3145
 4211TIP3    H134048   0.656   3.604  11.020  0.5249 -0.0125  0.6703
 4211TIP3    H234049   0.637   3.461  10.973  1.2308  0.2272 -0.3708
 4212TIP3   OH234050   6.385   4.909   2.912  0.0890  0.0794 -0.1658
 4212TIP3    H134051   6.447   4.982   2.912 -0.6432  0.7186 -0.9282
 4212TIP3    H234052   6.315   4.937   2.972 -0.1901 -0.0006 -0.4534
 4213TIP3   OH234053   3.271   4.985  11.089  0.1557 -0.3394 -0.1305
 4213TIP3    H134054   3.322   5.010  11.165  0.1042 -0.5547 -0.0249
 4213TIP3    H234055   3.180   4.990  11.118  0.0721  0.8884 -0.5679
 4214TIP3   OH234056   4.401   0.275   0.481  0.4648  0.1726  0.0070
 4214TIP3    H134057   4.443   0.331   0.416  1.9005  1.5530  2.0148
 4214TIP3    H234058   4.459   0.277   0.557 -0.5972 -2.2286  1.0142
 4215TIP3   OH234059   2.311   6.531   4.610 -0.2037 -0.0439 -0.4332
 4215TIP3    H134060   2.336   6.451   4.657 -0.8607  0.3076  0.5509
 4215TIP3    H234061   2.327   6.601   4.673 -1.5996  0.3937 -0.5339
 4216TIP3   OH234062   6.361   5.950  16.039  0.4035  0.3591 -0.5858
 4216TIP3    H134063   6.421   5.899  16.094 -0.2911  0.4171  0.2447
 4216TIP3    H234064   6.275   5.910  16.052 -0.0828  1.4633 -0.2395
 4217TIP3   OH234065   6.353   1.937   4.226  0.2216  0.0859 -0.4977
 4217TIP3    H134066   6.305   1.893   4.296  2.1356  0.4846  1.1556
 4217TIP3    H234067   6.310   2.022   4.217  0.2526  0.2368  0.5945
 4218TIP3   OH234068   0.388   1.637   0.831 -0.0169  0.1253 -0.1192
 4218TIP3    H134069   0.341   1.678   0.758 -2.9432  0.4911  1.8111
 4218TIP3    H234070   0.342   1.667   0.909 -0.0972 -3.9767  1.6444
 4219TIP3   OH234071   1.476   2.737   0.229  0.0506 -0.4943 -0.0276
 4219TIP3    H134072   1.471   2.831   0.209 -0.8017 -0.9577 -2.3726
 4219TIP3    H234073   1.423   2.726   0.307 -0.3831  0.9018 -0.0979
 4220TIP3   OH234074   4.496   5.701   2.875 -0.4426 -0.6407  0.0784
 4220TIP3    H134075   4.550   5.733   2.802 -0.4103 -1.5160 -0.2922
 4220TIP3    H234076   4.423   5.656   2.832 -1.2724  0.1765  0.5793
 4221TIP3   OH234077   0.493   2.604   2.764  0.6043 -0.1166  0.2959
 4221TIP3    H134078   0.435   2.678   2.746 -0.2315 -0.8690 -0.2528
 4221TIP3    H234079   0.547   2.632   2.838 -1.9440 -0.1209  2.3100
 4222TIP3   OH234080   3.831   5.134  14.591 -0.4168  0.2184 -0.0984
 4222TIP3    H134081   3.846   5.079  14.668  2.9823 -0.4039 -1.0384
 4222TIP3    H234082   3.871   5.086  14.519 -1.7103  1.7136 -1.9107
 4223TIP3   OH234083   0.951   5.822  13.156 -0.2085  0.4957  0.5522
 4223TIP3    H134084   0.901   5.741  13.151 -1.1071  1.0770 -0.3938
 4223TIP3    H234085   0.907   5.874  13.223  0.5331  0.1041  1.3537
 4224TIP3   OH234086   2.297   0.549  14.306 -0.2467 -0.3023  0.0267
 4224TIP3    H134087   2.333   0.528  14.220  0.3365 -1.0938  0.4573
 4224TIP3    H234088   2.370   0.584  14.356 -0.3083 -0.8961  0.5553
 4225TIP3   OH234089   2.472   5.785   5.106 -0.2674 -0.1454 -0.0691
 4225TIP3    H134090   2.562   5.754   5.114  0.0388  1.2169  3.8665
 4225TIP3    H234091   2.432   5.765   5.191 -1.7552  4.6936  0.6557
 4226TIP3   OH234092   2.237   3.785   4.007  0.6161  0.0030 -0.1445
 4226TIP3    H134093   2.183   3.750   3.935 -0.5836  0.4626  0.5073
 4226TIP3    H234094   2.184   3.770   4.085  2.0051 -0.7021  0.6980
 4227TIP3   OH234095   1.263   2.952   2.165 -0.2889 -0.1868 -0.3209
 4227TIP3    H134096   1.311   2.891   2.222 -1.2231  0.1999  0.9282
 4227TIP3    H234097   1.332   3.002   2.121  0.5163  0.5307  1.6181
 4228TIP3   OH234098   2.755   0.744  11.518  0.2847  0.1740 -0.0705
 4228TIP3    H134099   2.686   0.757  11.454 -0.7728 -1.6671  0.6298
 4228TIP3    H234100   2.731   0.663  11.564  2.1235  0.2815  1.1972
 4229TIP3   OH234101   0.322   1.064  12.866 -0.1704 -0.3283  0.0984
 4229TIP3    H134102   0.370   1.136  12.906  0.4791 -1.4901  1.5298
 4229TIP3    H234103   0.303   1.093  12.777  1.2644  1.0460  0.2012
 4230TIP3   OH234104   6.307   1.810   2.390 -0.1213 -0.3443 -0.1755
 4230TIP3    H134105   6.213   1.827   2.376  0.0799 -0.6632 -2.2904
 4230TIP3    H234106   6.320   1.822   2.484 -2.4211 -0.9653  0.2786
 4231TIP3   OH234107   4.108   3.279   0.903 -0.1475 -0.3794 -0.4554
 4231TIP3    H134108   4.162   3.343   0.856  1.2367 -1.2852 -0.1577
 4231TIP3    H234109   4.132   3.195   0.864 -0.2115 -0.9597  0.7133
 4232TIP3   OH234110   6.028   2.573   4.680 -0.1888 -0.4149 -0.3645
 4232TIP3    H134111   6.015   2.503   4.744 -0.5777  0.7226  0.8458
 4232TIP3    H234112   6.121   2.595   4.687 -0.6616  1.3809  1.7147
 4233TIP3   OH234113   1.027   5.779  16.709  0.3272  0.2850  0.6818
 4233TIP3    H134114   0.946   5.743  16.672 -0.5429  1.6255  1.2159
 4233TIP3    H234115   1.088   5.781  16.635 -0.7344  1.0024 -0.2013
 4234TIP3   OH234116   4.355   1.860  14.532  0.4928 -0.5928 -0.1426
 4234TIP3    H134117   4.377   1.814  14.613  0.9562 -1.8295 -0.9330
 4234TIP3    H234118   4.306   1.795  14.481  1.1259 -0.1984 -1.2782
 4235TIP3   OH234119   5.248   2.846  10.552 -0.4364 -0.4798  0.3817
 4235TIP3    H134120   5.241   2.934  10.590 -0.8439 -0.2536 -0.2123
 4235TIP3    H234121   5.318   2.804  10.603  0.1894  0.3912  0.2745
 4236TIP3   OH234122   6.487   1.235   5.219  0.1723 -0.1406 -0.0591
 4236TIP3    H134123   6.481   1.233   5.124  1.6138  1.6110 -0.2564
 4236TIP3    H234124   6.406   1.277   5.247  0.4676  0.8671 -0.6642
 4237TIP3   OH234125   2.416   1.537  12.826 -0.3604  0.6322 -0.1146
 4237TIP3    H134126   2.402   1.585  12.745 -1.4276  0.0794 -0.2662
 4237TIP3    H234127   2.343   1.563  12.882 -0.2718  0.1064  0.2479
 4238TIP3   OH234128   5.645   2.100  15.694  0.1879  0.2479 -0.1362
 4238TIP3    H134129   5.646   2.005  15.701 -0.0723  0.2050 -0.6372
 4238TIP3    H234130   5.715   2.129  15.753  0.5956 -0.2778 -0.3472
 4239TIP3   OH234131   1.126   0.968  12.124  0.1002  0.3829 -1.0915
 4239TIP3    H134132   1.116   0.931  12.212  0.4019 -0.0336 -1.2265
 4239TIP3    H234133   1.213   1.009  12.126  0.4918 -0.4069 -1.4642
 4240TIP3   OH234134   3.042   4.919   3.754 -0.5040  0.3826  0.8477
 4240TIP3    H134135   2.971   4.870   3.795  0.1795 -0.0274  1.5651
 4240TIP3    H234136   3.021   5.011   3.771 -0.9107  0.2695  0.9599
 4241TIP3   OH234137   4.959   2.836  12.674  0.1567 -0.3140 -0.2093
 4241TIP3    H134138   4.926   2.755  12.636  0.5243  0.1987 -1.6823
 4241TIP3    H234139   4.925   2.905  12.617  1.6053  0.4093 -0.2310
 4242TIP3   OH234140   4.136   2.223   4.467 -0.1333 -0.4540 -0.7236
 4242TIP3    H134141   4.105   2.200   4.379  0.1898 -0.4547 -0.8373
 4242TIP3    H234142   4.171   2.312   4.458 -0.7998 -0.1528 -0.4237
 4243TIP3   OH234143   2.827   0.507   2.652  0.6157 -0.1137  0.1782
 4243TIP3    H134144   2.896   0.569   2.630  0.7603  0.2521  1.5716
 4243TIP3    H234145   2.752   0.563   2.675 -0.1520 -0.5010 -1.2534
 4244TIP3   OH234146   5.780   2.955   2.843  0.2988  0.5216  0.3077
 4244TIP3    H134147   5.732   2.993   2.769 -1.2994 -1.8778 -0.0157
 4244TIP3    H234148   5.745   3.000   2.920 -0.2918  0.8903 -0.1657
 4245TIP3   OH234149   6.430   3.101   0.095  0.5474  0.2084 -0.3976
 4245TIP3    H134150   6.485   3.173   0.065  0.2607  0.4261 -0.4030
 4245TIP3    H234151   6.358   3.098   0.032  1.0312 -0.6772 -0.9399
 4246TIP3   OH234152   0.817   3.085  11.421  0.3345 -0.1345  0.1605
 4246TIP3    H134153   0.727   3.103  11.394  0.0792  0.6142  1.4157
 4246TIP3    H234154   0.861   3.058  11.341 -0.6619  0.8569 -0.7667
 4247TIP3   OH234155   2.007   2.194  11.580  0.0466 -0.2335 -0.3884
 4247TIP3    H134156   2.044   2.267  11.529 -0.1357  0.0863 -0.0709
 4247TIP3    H234157   2.048   2.116  11.543  1.9021  0.1712  0.6711
 4248TIP3   OH234158   1.772   4.295   3.186  0.1115 -0.3009 -0.0752
 4248TIP3    H134159   1.742   4.219   3.136  1.9783 -0.7280 -0.6236
 4248TIP3    H234160   1.755   4.272   3.277 -0.9344 -0.6112 -0.3336
 4249TIP3   OH234161   4.208   2.241   0.162 -0.0800 -0.3824  0.4877
 4249TIP3    H134162   4.188   2.237   0.255 -0.8815  0.8466  0.3931
 4249TIP3    H234163   4.246   2.328   0.150 -0.9631 -0.1102 -0.4947
 4250TIP3   OH234164   1.325   2.429   1.396  0.0018  0.0835 -0.3416
 4250TIP3    H134165   1.297   2.356   1.341 -0.4453  1.2946 -1.8235
 4250TIP3    H234166   1.318   2.505   1.338  0.4952  1.2874  1.1285
 4251TIP3   OH234167   6.153   2.036   5.372 -0.0471  0.3655  0.4021
 4251TIP3    H134168   6.244   2.009   5.386 -0.3017  0.3901  2.4721
 4251TIP3    H234169   6.103   1.990   5.440 -1.1526  2.4141  1.0816
 4252TIP3   OH234170   2.079   5.536  12.688 -0.5857  0.1147  0.3423
 4252TIP3    H134171   2.010   5.584  12.643 -0.6947 -0.3981 -0.0434
 4252TIP3    H234172   2.160   5.574  12.656 -0.6692 -0.0538 -0.0806
 4253TIP3   OH234173   4.124   5.714   2.667  0.2460  0.6020  0.7257
 4253TIP3    H134174   4.201   5.664   2.695  0.0869  0.0715  0.2373
 4253TIP3    H234175   4.131   5.717   2.572 -1.1156 -0.7722  0.5383
 4254TIP3   OH234176   6.267   4.682  10.777 -0.1667 -0.1356 -0.1325
 4254TIP3    H134177   6.320   4.656  10.702 -1.3851  0.1141 -1.1124
 4254TIP3    H234178   6.285   4.776  10.788 -0.5148 -0.0173 -0.5590
 4255TIP3   OH234179   5.675   0.148  11.234  0.2790 -0.9960 -0.7911
 4255TIP3    H134180   5.748   0.188  11.280  0.8300 -2.2800 -0.5023
 4255TIP3    H234181   5.695   0.162  11.141  0.4301 -0.5632 -0.6946
 4256TIP3   OH234182   5.237   3.258   5.304  0.2380 -0.0257 -0.4830
 4256TIP3    H134183   5.313   3.282   5.357  0.2449 -0.8678 -0.1011
 4256TIP3    H234184   5.206   3.175   5.341 -0.2727 -0.1949 -1.2510
 4257TIP3   OH234185   5.099   2.222   3.778  0.0659  0.6291 -0.2090
 4257TIP3    H134186   5.149   2.230   3.859 -0.3889 -0.6068  0.2217
 4257TIP3    H234187   5.041   2.298   3.778 -0.9040 -0.0586  1.3490
 4258TIP3   OH234188   1.698   6.100  16.416  0.0189 -0.6437  0.3946
 4258TIP3    H134189   1.658   6.158  16.482 -0.9169 -0.4603 -0.3104
 4258TIP3    H234190   1.782   6.076  16.454  0.3555  1.0163  0.8138
 4259TIP3   OH234191   1.017   3.757   0.252  0.0713 -0.0248  0.8958
 4259TIP3    H134192   0.938   3.806   0.232  0.4671 -0.4593 -2.1077
 4259TIP3    H234193   1.088   3.820   0.237  0.4165  0.4782  3.9065
 4260TIP3   OH234194   2.418   4.853   2.358 -0.4673 -0.0388 -0.4944
 4260TIP3    H134195   2.333   4.808   2.353 -0.1034 -0.6810 -0.9291
 4260TIP3    H234196   2.480   4.793   2.318  0.3118  0.1619  0.3790
 4261TIP3   OH234197   5.619   3.883   0.435  0.2667  0.5061 -0.6507
 4261TIP3    H134198   5.712   3.874   0.416  0.3675 -0.9330  0.3585
 4261TIP3    H234199   5.604   3.826   0.510 -1.5781  0.1318 -1.2510
 4262TIP3   OH234200   0.839   3.892   2.171 -0.4704 -0.2826 -0.3124
 4262TIP3    H134201   0.743   3.887   2.170 -0.5978  1.3763 -2.1307
 4262TIP3    H234202   0.865   3.849   2.090  0.2322  0.5300 -0.5240
 4263TIP3   OH234203   4.417   3.071   4.624 -0.1723 -0.3019  1.0245
 4263TIP3    H134204   4.446   2.979   4.621  1.0246  0.0737 -1.4504
 4263TIP3    H234205   4.325   3.068   4.600  0.0818 -0.8064  0.0707
 4264TIP3   OH234206   5.827   0.473   5.332  0.6629  0.2732 -0.1074
 4264TIP3    H134207   5.855   0.508   5.417  1.6612 -1.1973  0.2023
 4264TIP3    H234208   5.735   0.499   5.324  1.2746  2.7892  0.1521
 4265TIP3   OH234209   5.443   2.414  14.361 -0.4759  0.8763  0.0307
 4265TIP3    H134210   5.392   2.345  14.318  0.1126 -1.5783  2.9727
 4265TIP3    H234211   5.529   2.410  14.319 -0.4390 -0.2167  0.1964
 4266TIP3   OH234212   2.093   4.575  12.867  0.1077  0.3980  0.3456
 4266TIP3    H134213   2.037   4.526  12.807 -1.9750  0.6665  1.9450
 4266TIP3    H234214   2.179   4.574  12.826 -0.7614 -1.1617 -1.6102
 4267TIP3   OH234215   1.676   6.022   5.895  0.2151 -0.1401 -0.3773
 4267TIP3    H134216   1.661   6.116   5.880 -1.7580 -0.4763 -0.6959
 4267TIP3    H234217   1.721   6.019   5.980 -3.1207  0.9912  1.6352
 4268TIP3   OH234218   1.782   4.634  11.916 -0.8291 -0.6914 -0.1301
 4268TIP3    H134219   1.864   4.656  11.872 -1.0335  1.1509  0.3269
 4268TIP3    H234220   1.802   4.638  12.009 -1.6163  0.6825  0.0101
 4269TIP3   OH234221   0.903   1.968   5.673 -0.2204 -0.0893  0.1306
 4269TIP3    H134222   0.960   1.969   5.596  0.7329 -2.8799  0.6816
 4269TIP3    H234223   0.822   1.930   5.642 -0.5421  0.5795  0.1274
 4270TIP3   OH234224   4.909   5.179   3.760  0.1074  0.5471 -0.0428
 4270TIP3    H134225   4.887   5.088   3.740  0.3843  0.7161 -1.1590
 4270TIP3    H234226   4.967   5.206   3.689 -0.3588  1.7448  0.0043
 4271TIP3   OH234227   2.239   6.562   0.939  0.3602 -0.0940  0.3118
 4271TIP3    H134228   2.257   6.630   1.004  1.2424 -1.3224  1.3842
 4271TIP3    H234229   2.304   6.495   0.955 -0.8153 -1.4578 -0.3848
 4272TIP3   OH234230   5.177   0.079  16.676  0.4733 -0.1798 -0.2705
 4272TIP3    H134231   5.180  -0.007  16.634  1.2872 -0.5282  0.4812
 4272TIP3    H234232   5.089   0.084  16.713  0.5762 -0.8977  0.0911
 4273TIP3   OH234233   3.823   2.996  15.282 -0.2220  0.0090  0.1060
 4273TIP3    H134234   3.811   2.921  15.340  1.7244  0.2968  0.9680
 4273TIP3    H234235   3.916   2.993  15.257 -0.8614  0.2236 -2.5804
 4274TIP3   OH234236   5.341   5.129   4.103  0.3573  0.1429 -0.1931
 4274TIP3    H134237   5.306   5.054   4.055 -0.6736 -1.0207  2.2112
 4274TIP3    H234238   5.407   5.092   4.162 -1.7503  0.6235  2.6780
 4275TIP3   OH234239   3.712   0.748   5.678  0.4167 -0.0745  0.5967
 4275TIP3    H134240   3.776   0.753   5.607  0.7913  1.0916  0.9868
 4275TIP3    H234241   3.683   0.839   5.690  1.4483  0.0164  2.9093
 4276TIP3   OH234242   4.893   2.354  11.167 -0.1517  0.9801 -0.1961
 4276TIP3    H134243   4.807   2.314  11.162 -0.0233  0.8005 -1.2785
 4276TIP3    H234244   4.949   2.286  11.205 -0.1751  0.5292 -0.9449
 4277TIP3   OH234245   2.984   2.222  10.492  0.0515  0.1253 -0.0299
 4277TIP3    H134246   2.949   2.255  10.574  0.9471 -0.4238  0.5951
 4277TIP3    H234247   3.065   2.177  10.517 -0.1077 -0.8027 -1.0989
 4278TIP3   OH234248   3.956   2.906  12.580  0.3662  0.0082 -0.2157
 4278TIP3    H134249   3.962   2.999  12.563  0.5533  0.2514  1.0542
 4278TIP3    H234250   4.048   2.876  12.580  0.4100  0.1128  0.7833
 4279TIP3   OH234251   1.443   0.895  16.874  0.0288 -0.4027 -0.6296
 4279TIP3    H134252   1.381   0.866  16.807  0.0057  1.2018 -1.3435
 4279TIP3    H234253   1.529   0.870  16.840 -0.0586 -0.6229 -0.6935
 4280TIP3   OH234254   2.798   4.827   3.816 -0.5516 -0.3941  0.1270
 4280TIP3    H134255   2.711   4.859   3.839 -0.5978 -0.0227 -0.5360
 4280TIP3    H234256   2.783   4.739   3.782 -0.7091 -0.2066 -0.2939
 4281TIP3   OH234257   5.440   5.449   3.092 -0.6898  0.5572  0.4343
 4281TIP3    H134258   5.452   5.532   3.045 -0.7014  0.0863 -0.4268
 4281TIP3    H234259   5.356   5.460   3.138 -2.4112 -0.1402 -2.3152
 4282TIP3   OH234260   0.597   4.445  13.581  0.2940 -0.0914  0.5529
 4282TIP3    H134261   0.576   4.535  13.556 -0.6220 -0.0618  1.3656
 4282TIP3    H234262   0.550   4.391  13.518  1.4799 -0.0037 -0.4180
 4283TIP3   OH234263   3.806   6.276   0.275  0.0452 -0.1576  0.1463
 4283TIP3    H134264   3.740   6.342   0.293  1.8008  1.2264  2.0846
 4283TIP3    H234265   3.836   6.247   0.361  2.8214  0.2658 -0.5465
 4284TIP3   OH234266   5.006   1.861   3.929 -0.3023 -0.7661  0.0326
 4284TIP3    H134267   5.077   1.889   3.987  0.3052  1.1156 -1.5237
 4284TIP3    H234268   5.046   1.859   3.842 -2.2346  0.8378 -0.9568
 4285TIP3   OH234269   5.300   2.107   2.688 -0.2552  0.1205 -0.9336
 4285TIP3    H134270   5.256   2.038   2.738  0.4117  0.4773  0.1772
 4285TIP3    H234271   5.389   2.075   2.675 -0.1603  0.4396 -1.0770
 4286TIP3   OH234272   2.401   5.665  11.891  0.3149 -0.3651 -0.3255
 4286TIP3    H134273   2.406   5.728  11.819 -1.0191 -0.4402 -0.5222
 4286TIP3    H234274   2.312   5.630  11.885  0.3572 -0.7546  1.0451
 4287TIP3   OH234275   5.023   3.126   5.978  0.1197  0.3923 -0.2472
 4287TIP3    H134276   5.008   3.209   5.932 -0.1228  0.4520 -0.0619
 4287TIP3    H234277   4.939   3.106   6.019  0.5337  0.7349  0.8195
 4288TIP3   OH234278   6.385   5.434   1.971 -0.0674 -0.2120  0.1418
 4288TIP3    H134279   6.361   5.367   2.034  0.4898  0.5905  1.2527
 4288TIP3    H234280   6.481   5.427   1.965 -0.0626  0.1052 -0.1663
 4289TIP3   OH234281   4.265   4.640   1.192  0.5748  0.1676  0.4585
 4289TIP3    H134282   4.251   4.550   1.222  3.4275  0.0786  1.8324
 4289TIP3    H234283   4.276   4.633   1.098  0.8351 -0.9334  0.5634
 4290TIP3   OH234284   1.626   6.254  12.425  0.1622 -0.5401  0.5524
 4290TIP3    H134285   1.531   6.256  12.438  0.1881  1.0440  0.7317
 4290TIP3    H234286   1.662   6.223  12.508 -0.1726 -0.5712  0.6858
 4291TIP3   OH234287   2.122   5.760   1.970 -0.2768 -0.1402 -0.6869
 4291TIP3    H134288   2.093   5.851   1.973 -1.3726 -0.4915  1.2172
 4291TIP3    H234289   2.208   5.761   2.013 -0.9228 -0.1792  0.6497
 4292TIP3   OH234290   5.962   3.097  12.709 -0.1877  0.2430 -0.6521
 4292TIP3    H134291   6.016   3.143  12.773 -2.1556  1.3909  0.2919
 4292TIP3    H234292   5.969   3.005  12.733  1.1982  0.3819 -0.4668
 4293TIP3   OH234293   4.081   1.445  11.088 -0.3897 -0.0732 -0.0852
 4293TIP3    H134294   4.176   1.434  11.076 -0.8388 -2.9303 -2.3302
 4293TIP3    H234295   4.061   1.394  11.166 -0.2755 -1.1938 -0.7627
 4294TIP3   OH234296   1.513   3.599  15.834  0.0662  0.1936 -0.3739
 4294TIP3    H134297   1.465   3.678  15.811 -1.8777 -1.4065 -2.2630
 4294TIP3    H234298   1.487   3.581  15.924 -0.3238  1.1162 -0.2914
 4295TIP3   OH234299   5.348   4.912  14.227 -0.2809 -0.0529 -0.2498
 4295TIP3    H134300   5.402   4.916  14.148 -2.7664 -0.2516 -2.0561
 4295TIP3    H234301   5.320   4.821  14.233  2.3166 -0.8427  2.7396
 4296TIP3   OH234302   6.188   4.916   2.334  0.2974  0.2485 -0.1848
 4296TIP3    H134303   6.206   4.957   2.250 -0.9457  1.6492  0.1878
 4296TIP3    H234304   6.166   4.825   2.313  0.6432  0.4153 -1.2916
 4297TIP3   OH234305   1.074   4.916  13.625 -0.0864 -0.2864 -0.7770
 4297TIP3    H134306   1.134   4.990  13.623 -0.6216  0.1616 -0.3623
 4297TIP3    H234307   1.070   4.890  13.717  1.1548 -1.7092 -1.0933
 4298TIP3   OH234308   1.130   1.779   2.053 -0.6352 -0.3969 -0.6115
 4298TIP3    H134309   1.083   1.717   2.109 -1.8776 -0.0868 -1.2852
 4298TIP3    H234310   1.062   1.835   2.016  0.4559  1.3621 -0.0567
 4299TIP3   OH234311   4.535   3.236  13.825 -0.4171 -0.1999 -0.4051
 4299TIP3    H134312   4.599   3.287  13.873 -0.2252 -0.6305 -0.2056
 4299TIP3    H234313   4.485   3.189  13.892 -0.3190 -0.5981 -0.6058
 4300TIP3   OH234314   6.634   2.366  11.224 -0.4453 -0.0480 -0.4495
 4300TIP3    H134315   6.691   2.316  11.166  1.8610  0.9797  0.8299
 4300TIP3    H234316   6.600   2.300  11.285 -0.6683 -0.6727 -1.2269
 4301TIP3   OH234317   1.587   6.470   1.970 -0.4474  0.0602  0.2416
 4301TIP3    H134318   1.548   6.407   2.031  0.7781 -1.2460 -0.2715
 4301TIP3    H234319   1.646   6.522   2.025  0.1089 -0.6364  0.3291
 4302TIP3   OH234320   3.265   6.130   1.561 -0.4937 -0.2769 -0.1636
 4302TIP3    H134321   3.306   6.061   1.507  2.8776  0.0734  1.6539
 4302TIP3    H234322   3.240   6.197   1.498  1.4897 -0.7320 -1.5670
 4303TIP3   OH234323   6.571   2.546  11.465  0.6650 -0.4445 -0.7184
 4303TIP3    H134324   6.499   2.567  11.405  0.7392  0.1550 -0.6083
 4303TIP3    H234325   6.606   2.632  11.490  1.1681 -0.7209 -0.4680
 4304TIP3   OH234326   0.358   3.553   1.497  0.4277  0.6454  0.6824
 4304TIP3    H134327   0.298   3.533   1.425  2.2248 -0.4387 -0.5761
 4304TIP3    H234328   0.406   3.472   1.512  0.4178  0.9901  2.8196
 4305TIP3   OH234329   0.441   0.336  10.479 -0.2592  0.2112  0.2435
 4305TIP3    H134330   0.372   0.270  10.474  0.1310 -0.1608 -0.3990
 4305TIP3    H234331   0.422   0.396  10.407  0.1321  0.0588  0.0101
 4306TIP3   OH234332   2.093   3.019  12.534  0.4940  0.4769  1.0893
 4306TIP3    H134333   2.142   2.953  12.485 -0.3772  0.5168  0.1309
 4306TIP3    H234334   2.138   3.102  12.514  1.0273  0.3013  1.5485
 4307TIP3   OH234335   3.212   3.318  11.735  0.2419 -0.2202 -0.7147
 4307TIP3    H134336   3.270   3.377  11.687 -0.5788  0.5643 -0.7807
 4307TIP3    H234337   3.257   3.234  11.735  0.6897 -0.0001 -2.0430
 4308TIP3   OH234338   5.052   2.047  16.915  0.0438  0.1095 -0.1548
 4308TIP3    H134339   5.023   2.070  16.827  0.5484  0.5647 -0.2037
 4308TIP3    H234340   5.094   2.126  16.948 -1.7089  0.5264  1.1772
 4309TIP3   OH234341   1.817   5.641  10.950 -0.0021  0.1395 -0.1767
 4309TIP3    H134342   1.819   5.736  10.942 -0.4221  0.2909  1.3498
 4309TIP3    H234343   1.727   5.617  10.931  0.6193 -0.2649 -3.1607
 4310TIP3   OH234344   3.583   5.191   3.629 -0.1209 -0.0970 -0.4395
 4310TIP3    H134345   3.616   5.114   3.675  0.9640  1.2265  1.1359
 4310TIP3    H234346   3.559   5.252   3.699  0.6651  1.6337 -1.6102
 4311TIP3   OH234347   6.337   3.375  10.914 -0.5589  0.4640 -0.2548
 4311TIP3    H134348   6.412   3.331  10.875 -1.5322 -2.0576  0.5643
 4311TIP3    H234349   6.355   3.468  10.900  2.7337 -0.0056 -0.0245
 4312TIP3   OH234350   4.053   1.374  12.666 -0.2370  0.5671 -0.0139
 4312TIP3    H134351   4.001   1.433  12.720 -0.1529  0.0733  0.6237
 4312TIP3    H234352   3.989   1.315  12.626 -0.2145  0.2974  0.3464
 4313TIP3   OH234353   1.068   2.538  13.733 -0.2203  0.1710  0.3247
 4313TIP3    H134354   1.135   2.606  13.739 -0.6978  0.6027  0.8639
 4313TIP3    H234355   0.985   2.585  13.737 -0.5617 -0.4387  0.6215
 4314TIP3   OH234356   3.107   3.838   4.419  0.0341 -0.1515 -0.2518
 4314TIP3    H134357   3.154   3.813   4.499 -1.0598 -0.0242  0.4405
 4314TIP3    H234358   3.015   3.842   4.445 -0.3516 -0.2226 -1.5505
 4315TIP3   OH234359   0.177   6.536   3.006 -0.4431  0.2079  0.2278
 4315TIP3    H134360   0.164   6.594   2.931 -1.5229  1.2030  1.1571
 4315TIP3    H234361   0.235   6.585   3.065  2.1561 -1.4053 -0.7971
 4316TIP3   OH234362   6.697   4.555  11.191 -0.5712 -0.5651  0.3647
 4316TIP3    H134363   6.745   4.526  11.268 -0.7269 -0.4606  0.5007
 4316TIP3    H234364   6.765   4.569  11.124 -0.6579 -4.3021 -0.7339
 4317TIP3   OH234365   6.035   0.848   0.513  0.1072  0.1318 -0.5787
 4317TIP3    H134366   6.067   0.762   0.539 -1.3694  0.1471  1.5230
 4317TIP3    H234367   6.113   0.894   0.481  1.5836 -0.8672  1.3748
 4318TIP3   OH234368   4.557   5.653  16.166  0.3486 -0.4752 -0.0708
 4318TIP3    H134369   4.553   5.728  16.225  1.9356  0.2751 -0.8589
 4318TIP3    H234370   4.465   5.630  16.151 -0.1071 -0.3600  2.2297
 4319TIP3   OH234371   5.340   2.459  12.960 -0.2516  0.1405 -0.0769
 4319TIP3    H134372   5.275   2.436  13.026 -1.0843  0.4965 -0.7471
 4319TIP3    H234373   5.367   2.548  12.982 -0.1606  0.0797  0.0600
 4320TIP3   OH234374   0.962   1.246   0.627  0.5798 -0.0334  0.4119
 4320TIP3    H134375   1.027   1.176   0.617 -0.0726 -0.5830 -0.0781
 4320TIP3    H234376   0.966   1.295   0.546 -0.3773 -0.7429 -0.0852
 4321TIP3   OH234377   1.053   0.268   4.840  0.5183  0.0756 -0.0616
 4321TIP3    H134378   1.012   0.194   4.795 -0.1280  0.2833  0.1795
 4321TIP3    H234379   1.074   0.234   4.927 -1.4037  0.6693  0.6756
 4322TIP3   OH234380   4.652   3.992   3.402  0.1260 -0.4247 -0.2956
 4322TIP3    H134381   4.660   3.897   3.400 -2.0914 -0.6537 -1.2210
 4322TIP3    H234382   4.576   4.008   3.457  0.6239  0.8437  0.0532
 4323TIP3   OH234383   0.270   0.689  13.914 -0.0260  0.2359  0.0796
 4323TIP3    H134384   0.327   0.765  13.901 -0.4601  0.2514 -2.0517
 4323TIP3    H234385   0.250   0.658  13.826 -0.3595 -2.0063  0.8752
 4324TIP3   OH234386   2.298   3.823   3.309  0.1114  0.6403  0.3580
 4324TIP3    H134387   2.366   3.755   3.304  0.4143  1.0092 -1.1257
 4324TIP3    H234388   2.329   3.892   3.250 -0.7049  1.6109  1.0320
 4325TIP3   OH234389   5.907   1.025  14.438  0.0204 -0.2747 -0.6033
 4325TIP3    H134390   5.879   1.078  14.513 -1.5046 -0.5350 -0.9593
 4325TIP3    H234391   5.864   0.940  14.452  2.0122 -1.2774 -0.3111
 4326TIP3   OH234392   0.496   3.400   2.256 -0.1020  0.4218  0.2856
 4326TIP3    H134393   0.510   3.398   2.161  1.2289  0.0611  0.4716
 4326TIP3    H234394   0.473   3.310   2.278  2.7877 -0.3122  0.7084
 4327TIP3   OH234395   1.761   5.742  10.679 -0.4885 -0.1063 -0.0326
 4327TIP3    H134396   1.706   5.782  10.612 -1.1423 -3.6502 -1.8777
 4327TIP3    H234397   1.700   5.706  10.743 -0.1353 -0.7376 -0.0362
 4328TIP3   OH234398   4.334   2.795  16.285 -0.3872 -0.2301  0.1382
 4328TIP3    H134399   4.266   2.859  16.307 -0.3268  0.6519 -2.0233
 4328TIP3    H234400   4.308   2.761  16.200  0.6864 -1.5986  0.3221
 4329TIP3   OH234401   2.552   0.532   3.290 -0.4360  0.4385  0.1788
 4329TIP3    H134402   2.596   0.568   3.368 -3.9438 -1.0622  3.1606
 4329TIP3    H234403   2.584   0.442   3.284  0.1831  0.6935 -0.4611
 4330TIP3   OH234404   2.031   1.027   2.586  0.2877 -0.5053  0.7008
 4330TIP3    H134405   2.004   1.112   2.623  0.1977 -0.0605 -0.3558
 4330TIP3    H234406   1.963   0.966   2.615 -0.0053 -0.0803  0.9200
 4331TIP3   OH234407   5.801   6.618   4.288  0.2718  0.0241 -0.1117
 4331TIP3    H134408   5.835   6.669   4.214 -1.0060 -1.9981 -2.2091
 4331TIP3    H234409   5.707   6.635   4.288  0.2468 -0.0338  1.0735
 4332TIP3   OH234410   2.718   0.886   4.055  0.2259 -0.2015 -0.2370
 4332TIP3    H134411   2.693   0.861   3.966  2.7532 -2.3200 -0.4742
 4332TIP3    H234412   2.742   0.978   4.048 -1.1377  0.0902 -1.3741
 4333TIP3   OH234413   0.151   2.295   3.366  0.7384  0.1004 -0.0191
 4333TIP3    H134414   0.135   2.224   3.429 -0.7827 -0.0931 -0.5836
 4333TIP3    H234415   0.223   2.264   3.312  2.2901  0.3909  1.7663
 4334TIP3   OH234416   4.129   3.349  15.818 -0.0630  0.2048 -0.0994
 4334TIP3    H134417   4.099   3.275  15.871  0.0136  0.8333  0.8539
 4334TIP3    H234418   4.093   3.426  15.863 -2.0457  0.6869 -2.3011
 4335TIP3   OH234419   4.467   4.363   4.028  0.5069  0.1906  0.1580
 4335TIP3    H134420   4.410   4.296   3.992  0.4882 -0.5523  1.5178
 4335TIP3    H234421   4.413   4.442   4.031  0.2797  0.0831 -0.6757
 4336TIP3   OH234422   5.030   1.041   5.116 -0.1514 -0.3049  0.2649
 4336TIP3    H134423   5.026   1.076   5.205 -0.4691 -1.4472  0.7162
 4336TIP3    H234424   5.024   1.118   5.060  0.1092  0.4416  1.2269
 4337TIP3   OH234425   6.638   1.241  13.499 -0.2011  0.0188  0.0825
 4337TIP3    H134426   6.576   1.285  13.557 -0.2516  0.6021 -0.4077
 4337TIP3    H234427   6.587   1.173  13.456 -0.4276  0.2957 -0.0891
 4338TIP3   OH234428   3.357   6.196  13.604  0.3737  0.4147  0.4910
 4338TIP3    H134429   3.362   6.157  13.517  0.1882  1.1104  0.1647
 4338TIP3    H234430   3.292   6.265  13.596  2.1112  2.1481  0.5134
 4339TIP3   OH234431   4.104   6.108   5.174 -0.0980  0.1505  0.6392
 4339TIP3    H134432   4.170   6.051   5.135  0.7968  0.0366  2.2174
 4339TIP3    H234433   4.022   6.083   5.132  0.2035 -2.5378  1.4562
 4340TIP3   OH234434   3.038   3.514   5.307  0.3677 -0.3767  0.0131
 4340TIP3    H134435   3.035   3.601   5.268 -0.9641 -0.6877 -0.6244
 4340TIP3    H234436   3.131   3.492   5.308  0.5900  0.3668 -1.3805
 4341TIP3   OH234437   1.886   4.796  15.956 -0.0087  0.0667  0.4348
 4341TIP3    H134438   1.875   4.869  16.017 -2.3199 -0.3138  0.5643
 4341TIP3    H234439   1.935   4.832  15.883  2.5925  0.6130  2.3387
 4342TIP3   OH234440   6.661   1.767   6.041 -0.6930 -0.2510  0.1396
 4342TIP3    H134441   6.641   1.689   5.989  0.0315 -0.3230 -0.0512
 4342TIP3    H234442   6.722   1.736   6.108  1.8339  0.6214 -1.5992
 4343TIP3   OH234443   3.361   6.053   2.904  0.4027  0.5969  0.1479
 4343TIP3    H134444   3.411   6.130   2.931  1.1081 -0.2791  1.4464
 4343TIP3    H234445   3.380   5.987   2.971 -1.3726 -0.2359 -0.0988
 4344TIP3   OH234446   1.635   3.040  11.931  0.1681  0.3123  0.2804
 4344TIP3    H134447   1.588   3.121  11.909  0.6492  0.0474 -1.9711
 4344TIP3    H234448   1.566   2.975  11.944 -0.1862  0.2241 -1.7561
 4345TIP3   OH234449   1.532   1.631  12.046  0.1292 -0.3563 -0.3120
 4345TIP3    H134450   1.451   1.680  12.033  0.3620  0.6238  1.5207
 4345TIP3    H234451   1.600   1.688  12.010  0.3548  0.5880  1.4613
 4346TIP3   OH234452   5.916   2.822   3.851 -0.1996  0.0672 -0.0522
 4346TIP3    H134453   5.851   2.752   3.858 -0.6616  0.5563  0.8251
 4346TIP3    H234454   5.924   2.856   3.941  0.4964  0.7052 -0.3442
 4347TIP3   OH234455   2.489   0.231  15.191 -0.4876  0.1355  0.1460
 4347TIP3    H134456   2.462   0.214  15.282 -0.6414  1.3320  0.3376
 4347TIP3    H234457   2.528   0.318  15.194 -0.8461  0.3436 -1.0068
 4348TIP3   OH234458   0.674   1.808  12.687  0.1050  0.2460  0.1164
 4348TIP3    H134459   0.698   1.717  12.704  0.5960  0.6867  1.9879
 4348TIP3    H234460   0.689   1.819  12.593 -0.4503 -1.7222 -0.2571
 4349TIP3   OH234461   1.352   0.131   2.297 -0.2134  0.1095 -0.1519
 4349TIP3    H134462   1.377   0.174   2.215 -1.7498 -1.3251 -1.4523
 4349TIP3    H234463   1.300   0.196   2.344 -0.8289  0.3814 -1.1723
 4350TIP3   OH234464   3.183   6.719   5.817 -0.1266 -0.1262  0.7084
 4350TIP3    H134465   3.223   6.747   5.899 -0.2737  1.7877  0.1805
 4350TIP3    H234466   3.128   6.646   5.841  0.7055 -0.3393  2.1181
 4351TIP3   OH234467   0.140   4.599   1.886 -0.2291  0.4166 -0.3796
 4351TIP3    H134468   0.128   4.608   1.981 -0.0342 -0.3720 -0.2647
 4351TIP3    H234469   0.207   4.664   1.864 -0.9741  1.2713 -0.1457
 4352TIP3   OH234470   1.144   2.844  15.237 -0.3531  0.4952 -0.7006
 4352TIP3    H134471   1.072   2.784  15.219  0.3162 -0.5403 -0.0361
 4352TIP3    H234472   1.166   2.882  15.151 -2.0373  1.2771 -0.8285
 4353TIP3   OH234473   0.225   4.344   5.537  0.1458  0.6179 -0.1178
 4353TIP3    H134474   0.189   4.383   5.457  1.3894  0.3410 -0.8344
 4353TIP3    H234475   0.162   4.276   5.560 -1.7990  2.6344  0.8799
 4354TIP3   OH234476   6.731   1.460  16.190 -0.4631  0.0099  0.1124
 4354TIP3    H134477   6.812   1.486  16.147 -0.2700  0.0826  0.5128
 4354TIP3    H234478   6.760   1.406  16.264 -0.7193  0.8114  0.8176
 4355TIP3   OH234479   3.821   6.224  14.548 -0.0909 -0.5254 -0.2954
 4355TIP3    H134480   3.793   6.135  14.568  1.8382 -0.9387  0.7069
 4355TIP3    H234481   3.804   6.273  14.629 -1.1123  0.0385 -0.8315
 4356TIP3   OH234482   1.477   5.326   4.222 -0.0136  0.3014  0.3049
 4356TIP3    H134483   1.444   5.387   4.156 -1.0943 -0.6735 -0.0799
 4356TIP3    H234484   1.561   5.297   4.187 -0.9278 -0.8311 -1.1082
 4357TIP3   OH234485   6.275   1.284   0.821 -0.2981 -0.1428  0.4923
 4357TIP3    H134486   6.201   1.227   0.842 -1.0497  0.6896  0.1708
 4357TIP3    H234487   6.323   1.237   0.752 -1.3523 -0.0545 -0.3382
 4358TIP3   OH234488   1.186   1.149  11.311 -0.1666 -0.2322  0.2986
 4358TIP3    H134489   1.281   1.159  11.306 -0.1875 -0.4994 -1.4456
 4358TIP3    H234490   1.171   1.054  11.306 -0.5395 -0.1503 -0.3149
 4359TIP3   OH234491   4.061   4.753  13.727 -0.0417  0.5398  0.4613
 4359TIP3    H134492   4.156   4.762  13.722  0.0025 -0.5850 -2.0783
 4359TIP3    H234493   4.026   4.811  13.660 -1.2811  1.8116  2.1177
 4360TIP3   OH234494   2.342   3.978  15.538  1.2386  0.0379  0.4814
 4360TIP3    H134495   2.393   4.057  15.558  2.0952 -0.3699 -0.0155
 4360TIP3    H234496   2.306   3.993  15.451  0.8029  0.1711  0.6808
 4361TIP3   OH234497   0.101   1.345  11.338  0.2661 -0.3225 -0.9068
 4361TIP3    H134498   0.128   1.384  11.421 -0.4843  1.2335 -1.3621
 4361TIP3    H234499   0.169   1.372  11.276  1.7502 -2.8658 -0.5449
 4362TIP3   OH234500   2.070   2.591  17.065 -0.5137  0.1493 -0.2978
 4362TIP3    H134501   2.103   2.672  17.026  1.4665 -0.3202  0.3123
 4362TIP3    H234502   2.044   2.537  16.991 -0.6557  0.8404 -0.7599
 4363TIP3   OH234503   3.623   1.201   5.182  0.1197  0.2305 -0.3978
 4363TIP3    H134504   3.646   1.288   5.148  1.3921 -0.1359 -0.5169
 4363TIP3    H234505   3.635   1.143   5.107  1.4587 -0.3667  0.2548
 4364TIP3   OH234506   4.062   3.830  16.487  0.0942  0.1224  0.4452
 4364TIP3    H134507   3.971   3.861  16.481  0.0156 -0.0521  0.7190
 4364TIP3    H234508   4.061   3.769  16.561 -0.1457 -1.9651 -1.1918
 4365TIP3   OH234509   0.094   5.838  15.292 -0.4729  0.1906  0.3501
 4365TIP3    H134510   0.097   5.915  15.236 -0.9836 -0.5564 -0.7295
 4365TIP3    H234511   0.141   5.864  15.371  1.3183  0.8886 -0.8819
 4366TIP3   OH234512   6.375   1.509   3.229  0.4378  0.0997 -0.0485
 4366TIP3    H134513   6.446   1.462   3.185 -1.6232 -2.2190 -1.1148
 4366TIP3    H234514   6.334   1.444   3.285 -3.4840 -0.0831 -2.7086
 4367TIP3   OH234515   3.951   5.709  15.608  0.1867  0.1787 -0.2756
 4367TIP3    H134516   4.026   5.668  15.652  0.1653 -0.0881 -0.4850
 4367TIP3    H234517   3.930   5.785  15.663  0.9011  0.5250 -0.4609
 4368TIP3   OH234518   2.602   4.543  12.660 -0.5855  0.2001  0.6487
 4368TIP3    H134519   2.654   4.547  12.740 -2.1855 -0.8956  1.8092
 4368TIP3    H234520   2.629   4.461  12.618  0.7171  1.0884 -0.3080
 4369TIP3   OH234521   1.854   6.219  15.412  0.3360 -0.1094  0.1971
 4369TIP3    H134522   1.836   6.310  15.437 -2.3515 -0.7456  0.8576
 4369TIP3    H234523   1.847   6.217  15.317  0.1739  0.3261  0.2002
 4370TIP3   OH234524   2.989   2.355  14.432 -1.2204  0.2228 -0.1780
 4370TIP3    H134525   3.000   2.449  14.419  3.7356 -0.0629 -0.0835
 4370TIP3    H234526   2.998   2.343  14.527  0.7924 -0.4161 -0.3976
 4371TIP3   OH234527   1.666   4.814  13.928  0.5288  0.0641 -0.4314
 4371TIP3    H134528   1.687   4.733  13.881  0.2759  0.0451 -0.5129
 4371TIP3    H234529   1.575   4.832  13.905  0.4957  0.2154 -0.1797
 4372TIP3   OH234530   2.549   1.853  11.492  0.0504 -0.1225 -0.1751
 4372TIP3    H134531   2.519   1.849  11.583  0.1778  0.9560 -0.0710
 4372TIP3    H234532   2.525   1.769  11.455  0.8769 -0.9781  1.1342
 4373TIP3   OH234533   0.246   6.024  11.308  0.2681 -0.1069  0.8473
 4373TIP3    H134534   0.287   5.940  11.289  0.0253 -0.4878  1.9166
 4373TIP3    H234535   0.205   6.012  11.394 -0.7903  0.7287  0.4898
 4374TIP3   OH234536   1.636   0.259   5.709  0.8728 -0.2447 -0.3724
 4374TIP3    H134537   1.542   0.281   5.710  0.9107 -0.0126  1.1813
 4374TIP3    H234538   1.650   0.218   5.624 -0.3712  0.8448 -1.1455
 4375TIP3   OH234539   0.068   2.766   4.618  0.2720 -0.1915  0.7579
 4375TIP3    H134540   0.161   2.752   4.600  0.9086  1.3163  2.5061
 4375TIP3    H234541   0.040   2.687   4.664  0.6191 -0.7443  0.0406
 4376TIP3   OH234542   2.467   3.040   0.231 -0.3971  0.2610  0.2192
 4376TIP3    H134543   2.468   2.983   0.308 -0.0477  1.5852  1.2429
 4376TIP3    H234544   2.549   3.088   0.235 -0.0135 -0.1987 -1.4477
 4377TIP3   OH234545   3.726   6.244  16.400 -0.0287  0.2811  0.2291
 4377TIP3    H134546   3.636   6.244  16.366  0.2615  0.1259 -0.5604
 4377TIP3    H234547   3.721   6.296  16.480 -0.9987 -0.5046  0.6965
 4378TIP3   OH234548   5.612   1.444  12.467  0.3598  0.0197  0.3278
 4378TIP3    H134549   5.526   1.408  12.492 -0.3886  1.2934 -0.3344
 4378TIP3    H234550   5.646   1.482  12.548 -0.0709  0.2232  0.4197
 4379TIP3   OH234551   4.595   6.682  13.999  0.3815  0.2877 -0.6821
 4379TIP3    H134552   4.540   6.759  14.019 -0.5978 -0.2130 -1.3583
 4379TIP3    H234553   4.541   6.608  14.027  1.3315 -0.1652 -0.0196
 4380TIP3   OH234554   0.582   3.986  16.443  0.0673 -0.1691 -0.4397
 4380TIP3    H134555   0.501   4.017  16.403 -0.8601 -0.2468  1.2786
 4380TIP3    H234556   0.646   4.056  16.428 -0.6778  0.4594 -0.7125
 4381TIP3   OH234557   1.907   3.792  15.893  0.4087  0.5297  0.2645
 4381TIP3    H134558   1.905   3.737  15.814  0.6530 -0.8191  1.1698
 4381TIP3    H234559   1.991   3.772  15.934  0.2171  1.1109  0.9572
 4382TIP3   OH234560   4.114   3.764   1.633  0.1689 -0.1961 -0.1613
 4382TIP3    H134561   4.058   3.690   1.611 -0.5518  0.4966 -0.6980
 4382TIP3    H234562   4.089   3.833   1.572  4.7771 -1.2128 -3.7823
 4383TIP3   OH234563   4.695   4.891  16.917  0.2968 -0.3486 -0.4680
 4383TIP3    H134564   4.688   4.885  17.012 -2.0549 -0.2995 -0.5640
 4383TIP3    H234565   4.789   4.887  16.899  1.0015  1.9385  1.9895
 4384TIP3   OH234566   1.346   3.092   3.345  0.1549  0.1277  0.2921
 4384TIP3    H134567   1.298   3.009   3.348  0.0772  0.1054 -0.9077
 4384TIP3    H234568   1.426   3.076   3.395 -0.0568 -0.5435  0.4218
 4385TIP3   OH234569   2.748   1.412   3.427 -0.7534 -0.3791 -0.5667
 4385TIP3    H134570   2.689   1.342   3.455  0.9235 -0.8058  2.2423
 4385TIP3    H234571   2.790   1.378   3.348 -0.7458 -2.0845  0.1361
 4386TIP3   OH234572   6.184   5.330  14.940 -0.1204  0.0877 -0.0342
 4386TIP3    H134573   6.254   5.396  14.943  2.1327 -2.1050 -0.6058
 4386TIP3    H234574   6.180   5.296  15.030 -0.5423  0.2971  0.0256
 4387TIP3   OH234575   3.873   2.442  16.047  0.2617 -0.3519  0.8969
 4387TIP3    H134576   3.779   2.429  16.059 -0.1234  0.6722 -0.6998
 4387TIP3    H234577   3.897   2.504  16.117 -0.5532  0.4585  0.4965
 4388TIP3   OH234578   0.129   2.393  16.107  0.3008  0.4471 -0.6847
 4388TIP3    H134579   0.184   2.409  16.030  0.4763  0.4608 -0.5568
 4388TIP3    H234580   0.188   2.406  16.181  0.3855 -0.5501 -0.5666
 4389TIP3   OH234581   5.864   4.340   2.515 -0.1781 -0.2664  0.2421
 4389TIP3    H134582   5.824   4.368   2.433 -0.6230 -1.1845  0.1222
 4389TIP3    H234583   5.957   4.331   2.495  0.1149  1.7604  0.4836
 4390TIP3   OH234584   5.936   0.190   4.332  0.3931 -0.6410  0.1065
 4390TIP3    H134585   5.860   0.178   4.274  1.2308  0.2714 -1.2418
 4390TIP3    H234586   5.899   0.220   4.414 -0.7997 -1.4204 -0.1173
 4391TIP3   OH234587   1.658   3.163   3.744 -0.2710  0.0143  0.8838
 4391TIP3    H134588   1.571   3.180   3.779 -1.2727 -1.4874 -0.6747
 4391TIP3    H234589   1.714   3.152   3.821 -1.7200 -0.2047  1.9386
 4392TIP3   OH234590   5.862   3.464   0.887  0.1439  0.0175  0.1859
 4392TIP3    H134591   5.788   3.488   0.943 -1.4737 -1.2617 -1.2720
 4392TIP3    H234592   5.885   3.545   0.842 -0.9399  0.2622  0.0450
 4393TIP3   OH234593   5.982   2.864   6.824 -0.2346  0.5203 -0.1341
 4393TIP3    H134594   5.929   2.925   6.874 -0.5522  2.0049 -2.1726
 4393TIP3    H234595   5.929   2.784   6.819 -0.3795  0.4987  1.4442
 4394TIP3   OH234596   1.780   4.339   4.673 -0.0574  0.3900  0.3095
 4394TIP3    H134597   1.777   4.371   4.763  0.9779 -1.7618  1.1702
 4394TIP3    H234598   1.836   4.261   4.676 -1.0599 -0.5214 -1.9460
 4395TIP3   OH234599   5.294   1.398   1.497 -0.4579 -0.1580  0.1451
 4395TIP3    H134600   5.345   1.414   1.418  0.0961  0.0960  0.5543
 4395TIP3    H234601   5.203   1.402   1.468 -0.2606  0.2593 -0.4169
 4396TIP3   OH234602   4.620   3.630  12.272 -0.5885  0.1094  0.7282
 4396TIP3    H134603   4.688   3.667  12.328 -0.4593 -0.6146  1.0683
 4396TIP3    H234604   4.652   3.542  12.251 -0.3627  0.5800 -0.9819
 4397TIP3   OH234605   3.590   0.242  11.723  0.0349 -0.4026 -0.1178
 4397TIP3    H134606   3.639   0.163  11.697  1.1675  0.4943 -0.8500
 4397TIP3    H234607   3.617   0.308  11.659 -0.8639  0.5954  0.5076
 4398TIP3   OH234608   6.705   4.836  14.489  0.1569 -0.4659 -0.1551
 4398TIP3    H134609   6.718   4.794  14.574 -1.8039 -0.6461  0.1006
 4398TIP3    H234610   6.665   4.920  14.510 -0.0669 -0.3835 -0.8920
 4399TIP3   OH234611   1.473   6.164   1.605 -0.1465 -0.2642 -0.0989
 4399TIP3    H134612   1.458   6.106   1.530 -2.1086  0.1200 -0.0677
 4399TIP3    H234613   1.385   6.193   1.630  0.7014  1.9028  0.5485
 4400TIP3   OH234614   5.213   2.053  14.610  0.8430 -0.5875 -0.1979
 4400TIP3    H134615   5.298   2.059  14.568  1.2353  0.2917  0.6852
 4400TIP3    H234616   5.231   2.056  14.704 -0.1403 -0.5737  0.0110
 4401TIP3   OH234617   3.262   3.462   1.920 -0.7704 -0.0984 -0.0436
 4401TIP3    H134618   3.236   3.374   1.894 -1.2718  0.3081 -0.9703
 4401TIP3    H234619   3.183   3.500   1.958 -0.7939  0.2311 -0.4158
 4402TIP3   OH234620   6.514   3.610   4.368 -0.1190  0.0760  0.6626
 4402TIP3    H134621   6.525   3.556   4.446  1.3040 -0.9845 -0.2162
 4402TIP3    H234622   6.577   3.682   4.379 -1.0935  0.8619  1.2322
 4403TIP3   OH234623   4.366   1.966  15.588  0.5701 -0.2128  0.1729
 4403TIP3    H134624   4.291   1.940  15.536  1.1497 -0.3110 -0.6379
 4403TIP3    H234625   4.423   1.889  15.588  1.4681  0.4309 -0.7062
 4404TIP3   OH234626   1.155   1.661   1.805 -0.2846 -0.4420 -0.0399
 4404TIP3    H134627   1.244   1.696   1.808 -0.6329  0.7052 -1.6181
 4404TIP3    H234628   1.101   1.728   1.847 -0.5833 -0.4453 -0.4157
 4405TIP3   OH234629   6.209   2.031  14.298 -0.2503 -0.0885 -0.1005
 4405TIP3    H134630   6.298   2.055  14.270 -0.9098  1.7471 -0.7948
 4405TIP3    H234631   6.152   2.086  14.245 -1.7368  0.2991  1.7898
 4406TIP3   OH234632   3.360   4.502   1.418 -0.2027  0.0040  0.4518
 4406TIP3    H134633   3.431   4.502   1.481 -0.1294  1.2538  0.3874
 4406TIP3    H234634   3.295   4.561   1.455 -1.2149 -1.1030  0.4974
 4407TIP3   OH234635   6.684   0.891   2.825 -0.2333  0.3254 -0.5495
 4407TIP3    H134636   6.761   0.919   2.775 -1.0044  0.7653 -1.5232
 4407TIP3    H234637   6.666   0.802   2.794  0.2278 -0.0127  0.1208
 4408TIP3   OH234638   3.451   6.678   0.576  0.2228  0.3228  0.3443
 4408TIP3    H134639   3.436   6.724   0.493  2.7623 -1.3075 -1.1873
 4408TIP3    H234640   3.367   6.636   0.596 -0.3005  0.2138 -1.8187
 4409TIP3   OH234641   1.931   0.394  17.211  0.3609 -0.1581 -0.4919
 4409TIP3    H134642   1.897   0.452  17.279  1.8830  0.3671 -0.1374
 4409TIP3    H234643   1.853   0.363  17.164 -0.8095 -1.2352  2.0146
 4410TIP3   OH234644   2.783   1.102   4.585 -0.1557  0.1278  0.2521
 4410TIP3    H134645   2.780   1.111   4.490 -1.1905  1.2266  0.3579
 4410TIP3    H234646   2.756   1.188   4.617 -0.0952 -0.3187  1.5435
 4411TIP3   OH234647   4.795   4.625   4.637 -0.0593 -0.2887  0.1422
 4411TIP3    H134648   4.768   4.561   4.704 -1.5546 -0.1819 -0.3184
 4411TIP3    H234649   4.724   4.690   4.637 -0.4920 -0.6997 -2.0801
 4412TIP3   OH234650   4.412   0.201   4.733 -0.0294 -0.6033  1.1906
 4412TIP3    H134651   4.411   0.136   4.803 -1.3853 -0.2411  1.5500
 4412TIP3    H234652   4.363   0.275   4.769  2.1618  0.9777  1.0998
 4413TIP3   OH234653   5.657   2.299  16.861 -0.3401 -0.1869 -0.0705
 4413TIP3    H134654   5.613   2.215  16.874  1.3857 -0.8236  2.1654
 4413TIP3    H234655   5.698   2.291  16.774  1.5779 -2.5970  0.9284
 4414TIP3   OH234656   5.996   3.192   5.166  0.2907  0.0041  0.2714
 4414TIP3    H134657   5.994   3.123   5.100 -1.6285 -0.8233  1.1241
 4414TIP3    H234658   6.083   3.231   5.157  1.0121 -1.7625 -0.9985
 4415TIP3   OH234659   1.987   4.036   4.982  0.3381  0.1007 -0.2344
 4415TIP3    H134660   2.050   4.107   4.998  1.4974 -0.4637 -2.0507
 4415TIP3    H234661   1.929   4.070   4.915 -0.1046 -0.1022  0.0406
 4416TIP3   OH234662   1.219   5.505   2.871 -0.6926 -0.3350 -0.4693
 4416TIP3    H134663   1.190   5.558   2.796 -1.5445 -0.2720 -0.1093
 4416TIP3    H234664   1.268   5.566   2.926 -0.8268 -0.1556 -0.5457
 4417TIP3   OH234665   3.205   3.208   0.362 -0.1303 -0.2442  0.1623
 4417TIP3    H134666   3.146   3.283   0.353  0.1655 -0.0323 -0.0523
 4417TIP3    H234667   3.150   3.131   0.346 -0.4649 -0.0800  0.5131
 4418TIP3   OH234668   6.296   1.496  11.828  0.4175 -0.0797  0.0502
 4418TIP3    H134669   6.353   1.531  11.759  1.5639 -1.1285  0.4224
 4418TIP3    H234670   6.218   1.551  11.825  1.6286  1.7043 -0.1653
 4419TIP3   OH234671   1.430   4.387   0.676 -0.8714  0.7185 -0.1364
 4419TIP3    H134672   1.442   4.447   0.601 -0.6441  0.6646 -0.1429
 4419TIP3    H234673   1.518   4.367   0.705 -0.6075 -2.8873 -2.6969
 4420TIP3   OH234674   3.650   5.364  12.977  0.0500 -0.3537 -0.1068
 4420TIP3    H134675   3.705   5.425  12.927 -0.9447  1.0161  0.4061
 4420TIP3    H234676   3.697   5.280  12.972  1.1816  0.3043 -1.2999
 4421TIP3   OH234677   0.263   2.641  17.203  0.3858 -0.7998 -0.7003
 4421TIP3    H134678   0.253   2.641  17.108 -2.0459  0.0895 -0.5124
 4421TIP3    H234679   0.309   2.723  17.222 -0.4541 -0.2468 -1.0165
 4422TIP3   OH234680   0.151   4.266   4.009  0.2548 -0.2824 -1.0590
 4422TIP3    H134681   0.095   4.305   4.076 -0.3652 -0.6608 -1.3461
 4422TIP3    H234682   0.207   4.337   3.980  0.4782 -0.0953 -0.1987
 4423TIP3   OH234683   4.099   6.234   5.921  0.1067  0.1178  0.7227
 4423TIP3    H134684   4.118   6.290   5.996  1.5464 -1.2441  1.4360
 4423TIP3    H234685   4.171   6.170   5.920 -1.2983 -1.5331 -0.2162
 4424TIP3   OH234686   1.879   2.021   4.280  0.5255  0.1301 -0.2562
 4424TIP3    H134687   1.897   2.111   4.252 -0.3181  0.9901  1.7503
 4424TIP3    H234688   1.846   1.978   4.202  0.1834  1.7933 -1.0791
 4425TIP3   OH234689   0.850   0.296  14.010  0.3814 -0.2182 -0.5227
 4425TIP3    H134690   0.805   0.235  13.952 -1.5472  1.9630 -1.4762
 4425TIP3    H234691   0.788   0.311  14.081  2.0568 -1.5754  1.3550
 4426TIP3   OH234692   3.511   1.131   3.456 -0.1195  0.5009 -0.0654
 4426TIP3    H134693   3.547   1.074   3.388 -0.8541 -0.6132  0.4378
 4426TIP3    H234694   3.576   1.129   3.526  0.6595  1.6871 -0.7297
 4427TIP3   OH234695   4.535   4.532   0.555 -0.3070  0.0095  0.3804
 4427TIP3    H134696   4.472   4.584   0.505 -1.1658  1.5643  2.9056
 4427TIP3    H234697   4.500   4.443   0.550 -0.1593 -0.0011 -1.9526
 4428TIP3   OH234698   2.815   3.279  16.287  0.3053 -0.4366  0.3329
 4428TIP3    H134699   2.770   3.203  16.323 -3.3346  0.8939 -0.9651
 4428TIP3    H234700   2.797   3.349  16.350 -2.5596  0.9125 -1.7905
 4429TIP3   OH234701   1.933   0.660  13.009 -0.4986  0.0930 -0.2675
 4429TIP3    H134702   1.988   0.629  13.081 -1.2531 -2.2110 -0.5875
 4429TIP3    H234703   1.855   0.695  13.052 -0.3945 -0.0995  0.0845
 4430TIP3   OH234704   0.879   1.559  15.290 -0.2066  0.2181 -0.0418
 4430TIP3    H134705   0.830   1.639  15.272 -0.7856 -0.4686 -1.8089
 4430TIP3    H234706   0.825   1.511  15.352 -0.3784  0.7276  0.2042
 4431TIP3   OH234707   6.696   6.276   2.673  0.1533 -0.1544  0.3547
 4431TIP3    H134708   6.668   6.267   2.582  0.3303 -1.6910  0.4165
 4431TIP3    H234709   6.770   6.337   2.670 -0.4793  0.5943 -0.3763
 4432TIP3   OH234710   1.655   3.886   2.107 -0.0391  0.1120 -0.3505
 4432TIP3    H134711   1.717   3.957   2.127 -0.3256  0.5165 -0.8606
 4432TIP3    H234712   1.570   3.929   2.102 -0.2933 -0.3598 -0.1476
 4433TIP3   OH234713   2.242   3.167  11.133 -0.2877  0.0413 -0.8923
 4433TIP3    H134714   2.286   3.095  11.177 -2.1343 -0.3278  0.5054
 4433TIP3    H234715   2.301   3.194  11.063  2.4414  0.0653  1.2701
 4434TIP3   OH234716   4.983   1.480   4.581  0.0688 -0.1344 -0.2067
 4434TIP3    H134717   5.023   1.548   4.527  0.4363 -0.2165 -0.0373
 4434TIP3    H234718   4.996   1.399   4.531 -0.4145 -0.0765 -0.4330
 4435TIP3   OH234719   0.158   5.651   6.370 -0.5606  0.3120  0.3602
 4435TIP3    H134720   0.079   5.682   6.413 -1.0463  0.0837 -0.3560
 4435TIP3    H234721   0.166   5.560   6.396 -0.7820  0.2114  0.0828
 4436TIP3   OH234722   1.901   0.973   5.499  0.1292 -0.3053 -0.6753
 4436TIP3    H134723   1.908   1.068   5.511  1.0000 -0.2838 -1.2481
 4436TIP3    H234724   1.845   0.962   5.422 -0.5397 -0.2789 -0.1963
 4437TIP3   OH234725   2.495   2.116  15.371  0.1278  0.1630  0.1887
 4437TIP3    H134726   2.499   2.057  15.295  1.0432  0.5827 -0.1076
 4437TIP3    H234727   2.580   2.106  15.413 -0.6139 -0.6041  1.6068
 4438TIP3   OH234728   4.023   6.322  15.443  0.0707 -0.6379 -0.3952
 4438TIP3    H134729   3.992   6.413  15.449 -0.8239 -0.8692 -1.3866
 4438TIP3    H234730   4.045   6.310  15.351  1.6859 -0.9682 -0.0000
 4439TIP3   OH234731   3.309   4.694  15.141  0.0352 -0.2928 -0.0796
 4439TIP3    H134732   3.342   4.636  15.210 -0.2697 -1.5618 -0.9584
 4439TIP3    H234733   3.317   4.782  15.178  1.7985 -0.7679  0.7712
 4440TIP3   OH234734   0.329   1.219   1.529 -0.4351  0.3865  0.4799
 4440TIP3    H134735   0.254   1.168   1.558  1.2048 -0.5022  3.5961
 4440TIP3    H234736   0.310   1.309   1.556 -1.5046  0.7247 -1.2544
 4441TIP3   OH234737   5.283   5.236  13.552  0.3893  0.2891 -0.5501
 4441TIP3    H134738   5.339   5.221  13.628  0.7255  2.1128 -0.3711
 4441TIP3    H234739   5.328   5.193  13.479  0.9200 -0.0718 -0.0154
 4442TIP3   OH234740   5.558   3.813   0.696  0.4934  0.1931  0.1385
 4442TIP3    H134741   5.511   3.887   0.733  0.6914 -0.2620  1.3313
 4442TIP3    H234742   5.507   3.736   0.721  0.1894 -0.0826 -1.2420
 4443TIP3   OH234743   6.032   0.293   3.888 -0.5769 -0.2165 -0.1906
 4443TIP3    H134744   5.977   0.300   3.966  0.1080 -1.1956  0.4070
 4443TIP3    H234745   6.122   0.294   3.922 -0.2649 -3.3374 -0.6332
 4444TIP3   OH234746   2.463   0.951   4.427 -0.3697  0.6401 -0.3518
 4444TIP3    H134747   2.522   0.908   4.365  1.3130  0.7976  1.0674
 4444TIP3    H234748   2.478   1.045   4.414  0.8235  0.6718  0.9826
 4445TIP3   OH234749   1.211   0.073  15.711  0.4583 -0.7499 -0.2738
 4445TIP3    H134750   1.233  -0.010  15.669 -0.5699 -1.3989  0.4264
 4445TIP3    H234751   1.283   0.131  15.689  1.6841 -2.1070  0.0056
 4446TIP3   OH234752   4.760   0.281  16.780 -0.1274  0.0954 -0.2232
 4446TIP3    H134753   4.809   0.223  16.723 -2.0156 -2.1363  0.2597
 4446TIP3    H234754   4.819   0.300  16.852  1.0843  0.1243 -1.1866
 4447TIP3   OH234755   6.269   0.271   6.421  0.2726 -0.5059  0.0607
 4447TIP3    H134756   6.258   0.227   6.505  1.7019 -0.1286  0.4678
 4447TIP3    H234757   6.217   0.351   6.428  0.2151 -0.5835  0.5082
 4448TIP3   OH234758   2.867   6.276  14.306  0.2406  0.6107 -0.4400
 4448TIP3    H134759   2.937   6.340  14.316  0.6187  0.1189  0.1432
 4448TIP3    H234760   2.787   6.328  14.300  0.2520  1.1091  2.4456
 4449TIP3   OH234761   5.724   3.439  15.185  0.5394 -0.3153 -0.1249
 4449TIP3    H134762   5.726   3.534  15.193 -0.3180 -0.4015  1.8100
 4449TIP3    H234763   5.795   3.408  15.242  1.1440 -0.8470 -1.1280
 4450TIP3   OH234764   6.367   3.532   0.933  0.0242  0.5859  0.0312
 4450TIP3    H134765   6.426   3.489   0.871  0.1039  2.6779 -1.4447
 4450TIP3    H234766   6.422   3.552   1.009 -0.0290 -1.8281  0.7982
 4451TIP3   OH234767   4.121   0.078   2.897  0.5514  0.1082  0.1060
 4451TIP3    H134768   4.151   0.164   2.866 -1.8347  0.6990 -0.8491
 4451TIP3    H234769   4.131   0.083   2.992 -2.4817  2.8629  0.4886
 4452TIP3   OH234770   5.232   6.117  16.809 -0.3076  0.7032  0.2263
 4452TIP3    H134771   5.167   6.047  16.804  1.7214 -1.2691 -0.3758
 4452TIP3    H234772   5.193   6.189  16.759 -1.0574 -1.2934 -2.3330
 4453TIP3   OH234773   5.510   3.451  11.664  0.4592 -0.3204 -0.1025
 4453TIP3    H134774   5.445   3.437  11.595  0.3834 -0.9125  0.0812
 4453TIP3    H234775   5.584   3.395  11.639 -0.4361 -2.3100  1.4261
 4454TIP3   OH234776   5.409   2.042   1.833 -0.0951  0.1982  0.0604
 4454TIP3    H134777   5.405   2.062   1.740  2.6664  1.4765  0.1046
 4454TIP3    H234778   5.430   2.126   1.874  1.5182 -0.8519  1.4922
 4455TIP3   OH234779   2.186   2.764   1.438 -0.3325 -0.0212  0.0111
 4455TIP3    H134780   2.132   2.686   1.419  0.7882 -0.9171  0.3919
 4455TIP3    H234781   2.125   2.837   1.432 -1.6259 -1.0094  0.5529
 4456TIP3   OH234782   3.471   0.467  16.966 -1.1153 -0.1840 -0.5497
 4456TIP3    H134783   3.503   0.384  16.932  0.7324  0.0644  0.4297
 4456TIP3    H234784   3.450   0.450  17.058 -1.9623  0.1370 -0.6752
 4457TIP3   OH234785   4.007   4.491   2.373  0.7343 -0.1355  0.4567
 4457TIP3    H134786   4.086   4.438   2.383  0.2205 -0.6789  1.9910
 4457TIP3    H234787   3.990   4.491   2.279  1.6585 -1.3478  0.2596
 4458TIP3   OH234788   3.534   3.617   1.503  0.0535 -0.6591 -0.7866
 4458TIP3    H134789   3.600   3.585   1.441  0.8442  1.6688 -1.2704
 4458TIP3    H234790   3.585   3.662   1.571 -0.9533 -0.6743  0.0022
 4459TIP3   OH234791   3.458   4.528  15.636  0.0036 -0.5347  1.4528
 4459TIP3    H134792   3.429   4.443  15.603  0.8444 -0.2351 -0.1819
 4459TIP3    H234793   3.534   4.550  15.582  0.3587  0.8378  2.4589
 4460TIP3   OH234794   2.965   0.099  14.354  0.3645 -0.5445  0.7222
 4460TIP3    H134795   2.968   0.121  14.447  2.7097 -0.1679  0.6043
 4460TIP3    H234796   2.998   0.178  14.310 -0.5882 -0.7619 -0.4404
 4461TIP3   OH234797   3.149   1.984  10.893 -0.0435  0.6623 -0.6731
 4461TIP3    H134798   3.096   1.924  10.841  0.1318 -0.0324 -0.0647
 4461TIP3    H234799   3.130   1.960  10.984  2.4691 -0.6617 -0.4154
 4462TIP3   OH234800   1.511   6.023  15.833 -0.4746  0.5467 -0.3102
 4462TIP3    H134801   1.525   5.929  15.839 -1.2018  0.4956  0.6727
 4462TIP3    H234802   1.426   6.038  15.875  0.0348  1.7395  0.3394
 4463TIP3   OH234803   6.017   2.961   0.772  0.5448 -0.5419 -0.0159
 4463TIP3    H134804   6.100   2.916   0.785  0.5730 -0.2811  0.7778
 4463TIP3    H234805   6.038   3.054   0.780  0.0455 -0.5045  1.0285
 4464TIP3   OH234806   0.830   1.560  12.005  0.3518  0.0191 -0.3258
 4464TIP3    H134807   0.808   1.468  11.991  2.4221 -0.7339  0.9502
 4464TIP3    H234808   0.807   1.576  12.096 -0.9898  1.1212 -0.8234
 4465TIP3   OH234809   4.416   4.116  14.809 -0.4879 -0.0538 -0.5345
 4465TIP3    H134810   4.375   4.032  14.788 -0.6081 -0.8850  2.4479
 4465TIP3    H234811   4.343   4.176  14.819 -0.8251 -0.7193  1.5072
 4466TIP3   OH234812   2.153   0.655   4.639  0.0677 -0.0789 -0.3385
 4466TIP3    H134813   2.153   0.748   4.614  0.7366 -0.2414 -0.9757
 4466TIP3    H234814   2.182   0.609   4.560 -0.8902 -0.8949 -0.2242
 4467TIP3   OH234815   4.959   1.188  10.652  0.2334 -0.3145 -0.0305
 4467TIP3    H134816   4.980   1.256  10.588  1.0165  1.7004  2.2021
 4467TIP3    H234817   5.042   1.173  10.698 -0.8055  0.2583  2.1789
 4468TIP3   OH234818   4.384   0.012   6.716 -0.0116 -0.3747  0.2988
 4468TIP3    H134819   4.313   0.076   6.725  0.2824 -0.1928  1.6080
 4468TIP3    H234820   4.460   0.054   6.757  0.7592 -0.7251 -0.7399
 4469TIP3   OH234821   3.181   6.145   0.086  0.3130  0.3892  0.2259
 4469TIP3    H134822   3.211   6.079   0.023 -0.0490 -0.0798  0.5374
 4469TIP3    H234823   3.240   6.219   0.073  2.3170 -0.8924  1.5578
 4470TIP3   OH234824   4.573   3.421   5.665  0.4248 -0.3580 -0.2778
 4470TIP3    H134825   4.636   3.492   5.663 -1.5716  1.5265 -2.1612
 4470TIP3    H234826   4.527   3.432   5.748 -0.8269  1.5904 -1.1439
 4471TIP3   OH234827   5.062   2.917   4.465  0.0178 -0.0526 -0.6011
 4471TIP3    H134828   5.150   2.914   4.502  0.1341 -0.7764 -0.9287
 4471TIP3    H234829   5.041   2.826   4.446 -0.4791  0.2017 -1.2894
 4472TIP3   OH234830   4.928   4.382  12.012  0.0278 -0.5821  0.3721
 4472TIP3    H134831   4.844   4.366  11.969  0.2436 -1.1437  0.1525
 4472TIP3    H234832   4.906   4.399  12.103 -0.4565  0.8595  0.0088
 4473TIP3   OH234833   6.066   2.929  13.577  0.3447  0.1934  0.9419
 4473TIP3    H134834   6.008   2.853  13.581 -0.3516  0.7383  2.3837
 4473TIP3    H234835   6.110   2.929  13.662  1.5621  0.4802  0.3185
 4474TIP3   OH234836   5.125   2.255  11.464  0.1774 -0.3557  0.2221
 4474TIP3    H134837   5.199   2.224  11.517 -0.2862  0.8436  1.6428
 4474TIP3    H234838   5.166   2.311  11.398  0.7505 -1.7516 -0.6580
 4475TIP3   OH234839   4.703   2.449   3.063 -0.0718  0.3856 -0.5754
 4475TIP3    H134840   4.674   2.454   2.972  0.7308 -0.2867 -0.8915
 4475TIP3    H234841   4.799   2.446   3.057 -0.0230 -0.0269  0.2693
 4476TIP3   OH234842   5.827   2.601   3.385 -0.2042  0.4313 -0.3091
 4476TIP3    H134843   5.868   2.686   3.372 -0.0404  0.7835  2.0099
 4476TIP3    H234844   5.877   2.541   3.330  2.7766  1.0568  1.5188
 4477TIP3   OH234845   6.354   0.476  15.968 -0.4402 -0.1841 -0.0099
 4477TIP3    H134846   6.423   0.444  16.027  0.2097 -0.1380 -0.7173
 4477TIP3    H234847   6.275   0.429  15.996 -0.6947  1.4540  2.3138
 4478TIP3   OH234848   6.542   6.322   3.181  0.2054  0.1961  0.2745
 4478TIP3    H134849   6.543   6.415   3.204  2.6043 -0.2479  2.4170
 4478TIP3    H234850   6.594   6.280   3.249  0.2093 -2.5889 -1.3013
 4479TIP3   OH234851   4.758   4.176   5.507 -0.0572  0.4579  0.5119
 4479TIP3    H134852   4.810   4.207   5.581 -2.1125  2.2330  1.3126
 4479TIP3    H234853   4.667   4.184   5.536 -0.9004 -3.2575 -0.5149
 4480TIP3   OH234854   3.016   1.302  17.005  0.2495 -0.3304  0.2054
 4480TIP3    H134855   3.086   1.343  17.055 -0.2543  0.3472  0.3830
 4480TIP3    H234856   2.965   1.376  16.970  0.6190 -0.7834 -1.3572
 4481TIP3   OH234857   0.795   5.376  13.962 -0.4508 -0.4690 -0.2907
 4481TIP3    H134858   0.810   5.425  14.043  0.2673  0.6091 -1.0400
 4481TIP3    H234859   0.725   5.423  13.918 -2.4079 -2.3252  0.6550
 4482TIP3   OH234860   6.729   1.192  15.514  0.2210  0.6419  0.4905
 4482TIP3    H134861   6.675   1.155  15.445  1.1101  0.9740 -0.4270
 4482TIP3    H234862   6.699   1.150  15.595  1.5933 -2.6005 -0.5213
 4483TIP3   OH234863   0.891   0.673   2.275 -0.6070 -0.1664 -0.1317
 4483TIP3    H134864   0.812   0.711   2.238 -1.3431 -0.3467  1.2237
 4483TIP3    H234865   0.956   0.744   2.272 -1.6591  0.9126  1.3945
 4484TIP3   OH234866   4.146   0.203  16.845  0.3334 -0.2739  0.4219
 4484TIP3    H134867   4.181   0.116  16.859 -0.5128 -0.5055  1.1983
 4484TIP3    H234868   4.064   0.205  16.895  0.8753  1.3252  1.3359
 4485TIP3   OH234869   4.515   6.741   2.226 -0.0565 -0.1055  0.0294
 4485TIP3    H134870   4.484   6.762   2.138  0.9213  0.5858 -0.1773
 4485TIP3    H234871   4.436   6.730   2.278 -0.6622  1.5763 -0.4600
 4486TIP3   OH234872   1.786   3.266  11.445 -0.1723  0.4312 -0.4351
 4486TIP3    H134873   1.872   3.247  11.482 -1.3175 -1.9754  1.2045
 4486TIP3    H234874   1.743   3.320  11.511 -1.6607 -2.5985  1.2802
 4487TIP3   OH234875   3.896   1.078  15.189  0.3768 -0.2905  0.1733
 4487TIP3    H134876   3.867   1.086  15.280  2.1095 -1.2128  0.8574
 4487TIP3    H234877   3.844   1.006  15.153 -1.6978  1.3126 -0.2119
 4488TIP3   OH234878   2.417   0.290   0.366 -0.4107 -0.2028 -0.4887
 4488TIP3    H134879   2.384   0.379   0.362  0.9441  0.3641  0.1736
 4488TIP3    H234880   2.435   0.266   0.275 -0.6199  0.2584 -0.6514
 4489TIP3   OH234881   1.180   3.653  14.847  0.3262  0.1241  0.2922
 4489TIP3    H134882   1.127   3.636  14.770 -0.2516  2.1988  0.1537
 4489TIP3    H234883   1.270   3.662  14.814  0.0734  1.0624 -0.1720
 4490TIP3   OH234884   6.213   3.136   6.329  0.1750 -0.2208 -0.1495
 4490TIP3    H134885   6.276   3.207   6.340  0.9676 -0.9021 -0.1229
 4490TIP3    H234886   6.189   3.140   6.236 -0.4436  0.6052  0.0413
 4491TIP3   OH234887   1.045   6.145  13.665 -0.5340 -0.4512 -0.1197
 4491TIP3    H134888   1.099   6.224  13.669 -1.3597  0.1957 -1.2188
 4491TIP3    H234889   1.037   6.116  13.756  1.2439 -0.2917  0.1176
 4492TIP3   OH234890   1.017   0.257   0.780 -0.3532 -0.4180  0.0291
 4492TIP3    H134891   1.049   0.342   0.811 -1.8947  0.0944  0.3045
 4492TIP3    H234892   1.097   0.207   0.762  0.5925  0.6566  1.0209
 4493TIP3   OH234893   3.259   4.138   1.821  0.1580  0.0295  0.0361
 4493TIP3    H134894   3.301   4.118   1.905  0.1569 -0.7391 -0.1409
 4493TIP3    H234895   3.283   4.229   1.804  1.0245 -0.1238  0.3674
 4494TIP3   OH234896   2.646   5.993  15.005  0.3267 -0.8788 -0.0753
 4494TIP3    H134897   2.660   5.936  15.081 -0.9642  1.7209  2.2688
 4494TIP3    H234898   2.562   6.035  15.021  0.5016  0.5936 -2.4638
 4495TIP3   OH234899   3.854   6.389   2.653  0.4113 -0.8173  0.1671
 4495TIP3    H134900   3.909   6.377   2.576 -0.8043  0.3900 -0.9457
 4495TIP3    H234901   3.869   6.311   2.706  1.6437 -1.4448 -1.0556
 4496TIP3   OH234902   1.358   1.447  14.562 -0.0756  0.6405  0.0467
 4496TIP3    H134903   1.327   1.431  14.651 -0.1144 -2.3648 -0.4221
 4496TIP3    H234904   1.295   1.402  14.506  0.7838  1.2182 -1.4331
 4497TIP3   OH234905   4.449   0.790  17.061  0.3013 -0.4662  0.1374
 4497TIP3    H134906   4.439   0.711  17.115 -0.0983  0.1877  1.0470
 4497TIP3    H234907   4.418   0.764  16.974 -0.3158 -1.1617  0.5564
 4498TIP3   OH234908   2.177   3.871  16.795  0.7371  0.4287 -0.9472
 4498TIP3    H134909   2.102   3.915  16.756  1.4285  3.1318  0.4986
 4498TIP3    H234910   2.160   3.778  16.782 -2.3313  0.9663 -1.5637
 4499TIP3   OH234911   3.444   2.890  15.559 -0.1029  0.1572 -0.6454
 4499TIP3    H134912   3.437   2.985  15.568 -0.7725  0.0061  0.6516
 4499TIP3    H234913   3.370   2.866  15.503 -0.7013  0.2796  0.0699
 4500TIP3   OH234914   4.312   1.770   4.158 -0.6401  0.2779 -0.4479
 4500TIP3    H134915   4.377   1.826   4.118 -0.8164 -0.6186 -2.0586
 4500TIP3    H234916   4.232   1.822   4.159 -0.5870  0.3702 -1.1003
 4501TIP3   OH234917   5.407   4.352   3.331 -0.3649  0.0656 -0.1292
 4501TIP3    H134918   5.391   4.431   3.281 -0.1392  0.7469  0.8455
 4501TIP3    H234919   5.501   4.337   3.322  0.0521  1.3166  1.6567
 4502TIP3   OH234920   4.212   6.752   0.091 -0.1166  0.1665  0.5343
 4502TIP3    H134921   4.149   6.797   0.035 -0.3783  1.0825  1.5124
 4502TIP3    H234922   4.295   6.761   0.045 -0.0781  2.0800  0.8731
 4503TIP3   OH234923   1.477   4.757  14.883 -0.5819 -1.0934 -0.4243
 4503TIP3    H134924   1.569   4.762  14.912 -0.7106 -0.4339 -0.1127
 4503TIP3    H234925   1.468   4.668  14.850  0.0824 -1.2772 -0.1422
 4504TIP3   OH234926   4.216   3.045   6.038 -0.2485 -0.1531  0.2677
 4504TIP3    H134927   4.123   3.059   6.022 -0.9211 -0.8727  3.0424
 4504TIP3    H234928   4.231   2.953   6.017 -0.7829 -0.6964  2.0999
 4505TIP3   OH234929   1.097   5.977  11.101 -0.2063 -0.2161 -0.6592
 4505TIP3    H134930   1.125   5.895  11.061  0.7530 -1.0303  1.5085
 4505TIP3    H234931   1.011   5.958  11.138  0.3784 -0.5882  0.5990
 4506TIP3   OH234932   5.846   5.451  13.571 -0.2232  0.0963 -0.1003
 4506TIP3    H134933   5.851   5.355  13.565 -0.2829 -0.0060  1.1749
 4506TIP3    H234934   5.765   5.467  13.620 -0.8332  0.8619 -1.3039
 4507TIP3   OH234935   3.438   5.826   1.031 -0.7432  0.5144 -0.0248
 4507TIP3    H134936   3.478   5.824   0.944 -3.0429  0.9001 -1.1539
 4507TIP3    H234937   3.492   5.767   1.084 -0.1754 -0.8933 -2.0854
 4508TIP3   OH234938   3.031   6.353   5.187  0.6054  0.2460 -0.1241
 4508TIP3    H134939   2.945   6.382   5.157  0.6854 -0.4907 -1.1194
 4508TIP3    H234940   3.018   6.330   5.279 -0.8347 -2.0038 -0.8067
 4509TIP3   OH234941   0.192   2.965   5.124  0.1521  0.1168 -0.3477
 4509TIP3    H134942   0.144   2.903   5.069 -1.0881  0.8271 -0.0982
 4509TIP3    H234943   0.280   2.968   5.085 -0.9449  1.3368 -2.9264
 4510TIP3   OH234944   0.103   2.470  14.431 -0.2239 -0.2714 -0.8369
 4510TIP3    H134945   0.134   2.437  14.347  2.1314 -2.1761  0.6264
 4510TIP3    H234946   0.167   2.537  14.456 -0.5395 -0.1620 -0.2896
 4511TIP3   OH234947   4.023   0.796  15.874 -0.8587 -0.7075 -0.2986
 4511TIP3    H134948   4.098   0.839  15.834 -0.4080 -1.4614 -0.2974
 4511TIP3    H234949   4.058   0.713  15.907 -1.7045 -1.1099 -0.3736
 4512TIP3   OH234950   5.711   4.163  16.084 -0.5379  0.4551  0.5017
 4512TIP3    H134951   5.732   4.250  16.118 -0.9974  0.0948  1.7642
 4512TIP3    H234952   5.792   4.113  16.092 -0.5179  0.5070  0.6158
 4513TIP3   OH234953   6.385   3.413   3.805 -0.3460  0.3805 -0.5091
 4513TIP3    H134954   6.444   3.338   3.810 -0.7724  0.1187  2.4766
 4513TIP3    H234955   6.391   3.443   3.714  0.6961 -2.5487 -1.5201
 4514TIP3   OH234956   3.730   6.342  13.951  0.3522  0.0138 -0.5717
 4514TIP3    H134957   3.673   6.338  13.874  0.3895  0.6090 -0.6328
 4514TIP3    H234958   3.721   6.432  13.983  0.1666 -0.2897  0.2510
 4515TIP3   OH234959   2.007   1.266  10.759 -0.5632 -0.0813  0.7007
 4515TIP3    H134960   1.934   1.316  10.722  0.0715  0.5477  0.2627
 4515TIP3    H234961   2.084   1.319  10.739 -0.0822 -0.2765  1.9585
 4516TIP3   OH234962   0.775   5.792   5.429 -0.0095  0.0953  0.0634
 4516TIP3    H134963   0.824   5.852   5.486 -0.5251  0.4914  0.1035
 4516TIP3    H234964   0.772   5.837   5.344 -0.7535  0.3219  0.2057
 4517TIP3   OH234965   2.250   6.342  14.013 -0.0427 -0.0975 -0.2763
 4517TIP3    H134966   2.232   6.278  14.083  0.6593 -0.3118 -0.2822
 4517TIP3    H234967   2.175   6.334  13.954 -0.3833 -0.2971  0.1735
 4518TIP3   OH234968   5.180   1.143   1.967 -0.4661  0.3701 -0.5231
 4518TIP3    H134969   5.230   1.198   2.026  0.7800 -1.6565  0.4314
 4518TIP3    H234970   5.176   1.192   1.885 -0.5575  2.4005  0.6331
 4519TIP3   OH234971   6.310   6.148  12.762  0.3936  0.6680 -0.2018
 4519TIP3    H134972   6.365   6.168  12.839  0.0913  0.9551 -0.0598
 4519TIP3    H234973   6.286   6.234  12.728  1.7934  0.5729 -1.5401
 4520TIP3   OH234974   0.374   1.926  12.602 -0.1233  0.0411 -0.0287
 4520TIP3    H134975   0.311   1.867  12.560  0.6908 -0.9723  0.1362
 4520TIP3    H234976   0.420   1.967  12.528  0.1784 -0.4962 -0.1437
 4521TIP3   OH234977   2.159   6.678  15.098  0.1048 -0.0894  0.1059
 4521TIP3    H134978   2.237   6.629  15.074 -0.7530 -1.0350 -0.8892
 4521TIP3    H234979   2.187   6.770  15.101  1.8139 -0.6101  2.3360
 4522TIP3   OH234980   4.533   1.759  11.995 -0.3691 -0.4081  0.1155
 4522TIP3    H134981   4.482   1.838  12.010 -2.2966 -1.4735 -0.4080
 4522TIP3    H234982   4.544   1.755  11.900  3.8711  1.5932  0.2969
 4523TIP3   OH234983   2.737   2.123  12.034  0.1417 -0.5748  0.2099
 4523TIP3    H134984   2.786   2.041  12.047  1.1388 -0.3506 -1.7593
 4523TIP3    H234985   2.646   2.095  12.022  0.7130 -1.6571 -2.3203
 4524TIP3   OH234986   3.275   2.236   5.676  0.2058  0.1406  0.1811
 4524TIP3    H134987   3.359   2.239   5.630  0.0674  1.3897 -0.0211
 4524TIP3    H234988   3.299   2.226   5.769  0.5993  0.9211  0.1686
 4525TIP3   OH234989   4.462   3.030  13.612  0.3335  0.3546  0.0785
 4525TIP3    H134990   4.510   2.947  13.607  0.4815  0.4420  0.0757
 4525TIP3    H234991   4.481   3.064  13.699  0.4525  0.4984 -0.0041
 4526TIP3   OH234992   6.277   0.251  12.933 -0.3302  0.0254  0.5341
 4526TIP3    H134993   6.199   0.307  12.930 -0.5570 -0.3308 -1.2059
 4526TIP3    H234994   6.298   0.235  12.842  0.0735 -2.2889  0.9888
 4527TIP3   OH234995   0.978   5.112  14.241  0.5526 -0.4317 -0.7429
 4527TIP3    H134996   1.064   5.072  14.244  0.4773 -0.5965 -0.7777
 4527TIP3    H234997   0.918   5.040  14.224  0.1209 -0.7332  1.6978
 4528TIP3   OH234998   4.953   3.003  14.368 -0.4099 -0.1711 -0.4636
 4528TIP3    H134999   5.025   2.985  14.429 -0.5288 -0.3212 -0.3686
 4528TIP3    H235000   4.878   3.023  14.425 -0.4215  0.0696 -0.5626
 4529TIP3   OH235001   6.655   2.413  12.529 -0.9487  0.3046  0.0075
 4529TIP3    H135002   6.575   2.458  12.556 -1.5537  0.1014 -1.3844
 4529TIP3    H235003   6.684   2.459  12.450 -0.7249 -0.7582 -0.5467
 4530TIP3   OH235004   5.860   4.901   3.093  0.0120  0.2131  0.2771
 4530TIP3    H135005   5.830   4.989   3.072  0.0212 -0.1889 -1.6236
 4530TIP3    H235006   5.838   4.890   3.186 -0.1869  2.1113  0.5031
 4531TIP3   OH235007   6.039   1.897  14.812 -0.0213 -0.3878 -0.0826
 4531TIP3    H135008   6.095   1.845  14.755 -0.4611 -1.0617  0.0963
 4531TIP3    H235009   6.084   1.982  14.819 -0.4466  0.0531 -2.1893
 4532TIP3   OH235010   6.521   0.536  17.093 -0.4918  0.4256  0.5849
 4532TIP3    H135011   6.441   0.504  17.134 -0.0284 -1.9716 -0.2667
 4532TIP3    H235012   6.585   0.539  17.163 -0.8482  0.6452  0.9045
 4533TIP3   OH235013   1.431   4.742   4.194  0.1748 -0.1195 -0.3879
 4533TIP3    H135014   1.370   4.669   4.193  1.8501 -1.7036  2.0222
 4533TIP3    H235015   1.394   4.804   4.258  0.7015 -0.8089  0.6261
 4534TIP3   OH235016   2.426   6.100  11.195 -0.4464  0.0056 -0.3197
 4534TIP3    H135017   2.444   6.193  11.205  0.3908 -0.3491  2.1245
 4534TIP3    H235018   2.334   6.090  11.222  0.0306 -0.1064  1.3365
 4535TIP3   OH235019   1.130   0.982  14.889 -0.4396 -0.2776 -0.2297
 4535TIP3    H135020   1.047   0.961  14.846 -2.8504  0.5558  3.5409
 4535TIP3    H235021   1.121   1.073  14.917  0.8289 -0.7409  1.9814
 4536TIP3   OH235022   1.569   2.318  15.034 -0.2457  0.5732  0.3359
 4536TIP3    H135023   1.664   2.322  15.045 -0.3186 -0.7739  1.8435
 4536TIP3    H235024   1.556   2.296  14.942  0.9827 -1.0633  0.5112
 4537TIP3   OH235025   5.852   2.545   5.525  0.6406 -0.0609  0.0125
 4537TIP3    H135026   5.852   2.451   5.540 -0.9768  0.0475  0.9428
 4537TIP3    H235027   5.836   2.583   5.612 -0.6869  0.9693 -0.6378
 4538TIP3   OH235028   3.743   4.145  13.460 -0.1081  0.8028 -0.1581
 4538TIP3    H135029   3.770   4.058  13.489 -1.3815  0.5876  0.4261
 4538TIP3    H235030   3.777   4.204  13.527  1.1055  0.8251 -0.7595
 4539TIP3   OH235031   5.720   4.386   0.768  0.1597 -0.8036 -0.5270
 4539TIP3    H135032   5.736   4.292   0.769  0.0328 -0.8551  1.6356
 4539TIP3    H235033   5.806   4.425   0.784  0.1856 -0.5501 -1.2567
 4540TIP3   OH235034   1.037   0.645   4.219  0.2321  0.2056 -0.0305
 4540TIP3    H135035   1.008   0.600   4.299 -1.6376 -0.5706 -1.0808
 4540TIP3    H235036   0.957   0.681   4.182  0.5648 -1.7741 -2.9605
 4541TIP3   OH235037   6.460   2.473   0.121 -0.0867  0.2511  0.3652
 4541TIP3    H135038   6.399   2.426   0.177  2.5839 -0.5706  2.8510
 4541TIP3    H235039   6.447   2.437   0.034 -2.1631 -0.8229  1.0716
 4542TIP3   OH235040   2.338   3.946  17.076 -0.0030 -0.1101  0.1423
 4542TIP3    H135041   2.304   3.959  16.988  1.1824  1.5627 -0.1253
 4542TIP3    H235042   2.415   3.889  17.064 -0.7464 -1.1703  0.3171
 4543TIP3   OH235043   4.510   6.583  16.951  0.4133  0.3844 -0.3758
 4543TIP3    H135044   4.476   6.589  16.862  2.4086 -0.3873 -1.2459
 4543TIP3    H235045   4.510   6.489  16.971  1.7341  0.3799 -0.3093
 4544TIP3   OH235046   1.050   3.365   4.454  0.0710 -0.5144  0.6086
 4544TIP3    H135047   1.006   3.383   4.371  0.2358 -2.3477  0.0809
 4544TIP3    H235048   1.129   3.418   4.451 -0.2088 -0.1266 -0.1602
 4545TIP3   OH235049   6.738   5.092  14.935 -0.3491 -0.0347 -0.2865
 4545TIP3    H135050   6.643   5.092  14.922 -0.4805 -0.5273  0.5848
 4545TIP3    H235051   6.766   5.008  14.899 -0.0960  0.5207 -1.4340
 4546TIP3   OH235052   2.058   4.790  16.231 -0.2592  0.0902  0.1087
 4546TIP3    H135053   2.105   4.820  16.309 -0.0484 -0.7294  0.3086
 4546TIP3    H235054   2.015   4.869  16.197 -0.0983  0.5195  0.8720
 4547TIP3   OH235055   5.302   3.548   5.675 -0.1999  0.0869  0.6076
 4547TIP3    H135056   5.379   3.603   5.661 -0.6919  0.5078 -0.5306
 4547TIP3    H235057   5.229   3.609   5.682 -0.8218 -0.3938 -1.1750
 4548TIP3   OH235058   1.126   6.344  15.125 -0.6893 -0.1202 -0.4347
 4548TIP3    H135059   1.219   6.362  15.137 -0.5245 -1.3066  0.1811
 4548TIP3    H235060   1.094   6.324  15.213 -1.3072 -0.6943 -0.7812
 4549TIP3   OH235061   5.501   3.691  16.169 -0.1203 -0.3569  0.2344
 4549TIP3    H135062   5.468   3.780  16.174  0.7931  0.1039 -1.3663
 4549TIP3    H235063   5.451   3.650  16.099  0.7526 -0.5038 -0.3207
 4550TIP3   OH235064   3.596   4.501   1.562  0.2296 -0.3438 -0.2548
 4550TIP3    H135065   3.581   4.534   1.650 -0.7974 -0.3963 -0.3938
 4550TIP3    H235066   3.683   4.533   1.538  1.0361 -1.3321  1.2167
 4551TIP3   OH235067   2.869   0.882   6.420  0.0519  0.1729  0.1599
 4551TIP3    H135068   2.933   0.908   6.353 -0.2882  3.3510  0.9042
 4551TIP3    H235069   2.786   0.917   6.387 -0.4725 -0.0022  1.2713
 4552TIP3   OH235070   1.948   5.924   0.822 -0.3104 -0.0819  0.0550
 4552TIP3    H135071   1.858   5.925   0.789 -1.3765 -0.0850  2.6618
 4552TIP3    H235072   1.984   5.841   0.793 -0.9081  0.1917 -1.5575
 4553TIP3   OH235073   4.702   5.781   1.352 -0.0131  0.0482  0.3623
 4553TIP3    H135074   4.683   5.807   1.262  0.6705 -1.7445 -0.3630
 4553TIP3    H235075   4.775   5.837   1.379 -0.8074  1.2152  0.1547
 4554TIP3   OH235076   6.223   6.659   6.794 -0.6834  0.5689 -0.3887
 4554TIP3    H135077   6.147   6.628   6.844  0.0143 -0.5673  0.0145
 4554TIP3    H235078   6.284   6.692   6.860 -0.3198  0.3174 -0.5910
 4555TIP3   OH235079   0.807   5.651   4.436  0.0026  0.4767  0.2369
 4555TIP3    H135080   0.730   5.599   4.458 -1.1773  2.4219  0.9402
 4555TIP3    H235081   0.773   5.723   4.383  1.7919 -0.1438 -1.9187
 4556TIP3   OH235082   1.089   6.413   0.569  0.3929  0.4181  0.1656
 4556TIP3    H135083   1.013   6.355   0.566 -0.9062  2.0489 -1.9360
 4556TIP3    H235084   1.144   6.377   0.637 -2.6897 -0.3119  2.5064
 4557TIP3   OH235085   3.693   4.014   5.881 -0.1065 -0.6217  0.1564
 4557TIP3    H135086   3.768   3.957   5.899 -0.1531 -0.9317 -0.5683
 4557TIP3    H235087   3.648   4.024   5.965  0.0545 -1.4381  0.3423
 4558TIP3   OH235088   0.009   6.584  11.737 -0.7015  0.4847  0.1672
 4558TIP3    H135089  -0.051   6.592  11.810  0.0145 -0.8264  0.9309
 4558TIP3    H235090   0.075   6.651  11.752 -1.1979  0.9980  0.0733
 4559TIP3   OH235091   0.161   0.880  16.693 -0.4050  0.1284 -0.0448
 4559TIP3    H135092   0.091   0.944  16.678 -1.4362 -0.7940  0.7215
 4559TIP3    H235093   0.206   0.913  16.770 -0.5391  0.2730 -0.0261
 4560TIP3   OH235094   1.114   5.905   2.204  0.2894  0.4160 -0.0126
 4560TIP3    H135095   1.042   5.912   2.141 -1.0282 -0.4847  1.3257
 4560TIP3    H235096   1.146   5.994   2.214  0.3974  0.6088 -1.7745
 4561TIP3   OH235097   6.581   3.388   0.808 -0.1050  0.4145  0.1331
 4561TIP3    H135098   6.561   3.298   0.834  0.3541  0.4014  0.4625
 4561TIP3    H235099   6.669   3.383   0.771  0.7853  1.0436  2.0266
 4562TIP3   OH235100   0.876   6.529  15.236 -0.0406 -0.3049  0.7922
 4562TIP3    H135101   0.871   6.450  15.183  2.1380 -1.3298  1.9991
 4562TIP3    H235102   0.787   6.564  15.236 -0.6222 -1.5958 -1.4482
 4563TIP3   OH235103   3.542   0.151  10.901  0.1704 -0.3540 -0.1618
 4563TIP3    H135104   3.539   0.119  10.991 -1.6599  1.2306  0.3961
 4563TIP3    H235105   3.627   0.195  10.894  0.6504 -1.1302  0.5213
 4564TIP3   OH235106   1.033   3.310  14.582 -0.1247 -0.4053 -0.2687
 4564TIP3    H135107   1.052   3.290  14.491  1.0613  0.0481 -0.1361
 4564TIP3    H235108   1.044   3.226  14.628  0.6259 -0.3511 -0.3436
 4565TIP3   OH235109   1.590   1.965  10.822  0.0484  0.7221  0.2152
 4565TIP3    H135110   1.553   2.052  10.839 -0.7767  0.0864  1.9840
 4565TIP3    H235111   1.513   1.910  10.804  0.4883  0.1886 -0.0423
 4566TIP3   OH235112   5.172   2.472   3.951  0.3892  0.1652  0.1578
 4566TIP3    H135113   5.099   2.455   4.010 -0.2106 -0.2627 -0.6747
 4566TIP3    H235114   5.244   2.497   4.008 -0.3297  0.3305  1.0213
 4567TIP3   OH235115   5.689   4.997  16.799 -0.1757 -0.2823  0.0968
 4567TIP3    H135116   5.680   4.982  16.893 -0.7737 -4.3632 -0.4398
 4567TIP3    H235117   5.629   5.069  16.781 -2.5196 -1.4598  2.4407
 4568TIP3   OH235118   3.800   4.151  16.651  0.5182  0.1399  1.0828
 4568TIP3    H135119   3.896   4.146  16.654  0.5246  0.3041  1.2177
 4568TIP3    H235120   3.772   4.112  16.734  0.3750 -1.7419  0.2076
 4569TIP3   OH235121   5.726   4.683   4.184 -0.0929 -0.0803 -0.0120
 4569TIP3    H135122   5.673   4.603   4.176  1.0574 -0.6729 -3.3677
 4569TIP3    H235123   5.754   4.702   4.095  1.5945  2.8193  1.0019
 4570TIP3   OH235124   4.716   6.219  11.477  0.0811  0.6931  0.3704
 4570TIP3    H135125   4.693   6.137  11.520  1.2383  0.3710  0.4298
 4570TIP3    H235126   4.658   6.284  11.515 -2.2256 -0.3869 -1.0809
 4571TIP3   OH235127   5.259   3.937   1.713  0.0042  0.4165 -0.9910
 4571TIP3    H135128   5.244   4.022   1.673  0.6369  0.4883 -1.0860
 4571TIP3    H235129   5.232   3.873   1.646  0.4202  0.5384 -1.2770
 4572TIP3   OH235130   1.892   4.509  16.883  0.2012 -0.2120 -0.6849
 4572TIP3    H135131   1.812   4.524  16.934  0.6453 -1.5482  0.4933
 4572TIP3    H235132   1.944   4.588  16.895 -0.6119  0.3415 -0.8011
 4573TIP3   OH235133   0.153   3.949  17.169 -0.2206 -0.0813  0.2343
 4573TIP3    H135134   0.064   3.983  17.173 -0.9950 -1.2083 -3.3002
 4573TIP3    H235135   0.146   3.858  17.197 -0.0094  0.0666  0.7695
 4574TIP3   OH235136   4.852   4.626   5.404  0.5227  0.3040  0.3631
 4574TIP3    H135137   4.875   4.552   5.347 -1.9680 -0.4009  0.1487
 4574TIP3    H235138   4.832   4.586   5.489 -0.9372  0.6621  0.2215
 4575TIP3   OH235139   3.454   6.775   3.882  0.1294  0.1158  0.5586
 4575TIP3    H135140   3.480   6.795   3.972  0.4422 -1.2125  0.7899
 4575TIP3    H235141   3.448   6.679   3.880  2.1986 -0.0655 -1.3678
 4576TIP3   OH235142   0.804   3.484   2.838 -0.7319 -0.3530 -0.2471
 4576TIP3    H135143   0.823   3.392   2.856 -0.4880 -0.1228  0.7087
 4576TIP3    H235144   0.840   3.499   2.750 -2.3090 -1.6034 -1.1676
 4577TIP3   OH235145   3.269   5.479  12.284  0.0797  0.3531 -0.4322
 4577TIP3    H135146   3.301   5.569  12.272  1.7703 -0.0001  0.9743
 4577TIP3    H235147   3.190   5.474  12.231 -0.9280  3.1459  0.6427
 4578TIP3   OH235148   3.703   2.096  14.317  0.2535 -0.9890 -0.0727
 4578TIP3    H135149   3.796   2.103  14.297  0.5271 -1.4972  0.9704
 4578TIP3    H235150   3.690   2.004  14.341 -1.2924 -1.9402 -3.8036
 4579TIP3   OH235151   2.918   6.757  11.479 -0.3384  0.7529 -0.4698
 4579TIP3    H135152   3.004   6.753  11.520  0.0164 -0.1204 -1.2680
 4579TIP3    H235153   2.937   6.753  11.385 -1.2777  0.1631 -0.6377
 4580TIP3   OH235154   2.947   2.732  16.085 -0.0018 -0.2834 -0.5065
 4580TIP3    H135155   2.923   2.660  16.027 -0.4623  0.2611 -0.9996
 4580TIP3    H235156   3.032   2.707  16.121 -0.4503 -1.3661 -0.1799
 4581TIP3   OH235157   4.926   2.271  12.180  0.0651 -0.3365 -0.2392
 4581TIP3    H135158   4.837   2.295  12.153  0.1993 -0.3708 -0.7285
 4581TIP3    H235159   4.944   2.189  12.133  0.0399 -0.7890  0.5292
 4582TIP3   OH235160   0.455   3.588  12.138 -0.9918 -0.4099  0.5791
 4582TIP3    H135161   0.370   3.572  12.180 -1.2952  1.4491  0.7621
 4582TIP3    H235162   0.433   3.631  12.055 -0.2417  0.2695  0.7146
 4583TIP3   OH235163   5.462   5.092   0.892 -0.3502 -0.1768  0.8150
 4583TIP3    H135164   5.406   5.155   0.846 -0.1231 -0.9255 -0.5650
 4583TIP3    H235165   5.550   5.127   0.881  0.2734 -2.2885 -3.0415
 4584TIP3   OH235166   4.004   2.603  10.699  0.0445  0.6164  0.1299
 4584TIP3    H135167   3.992   2.692  10.732  1.3165 -0.2530  3.3475
 4584TIP3    H235168   4.098   2.586  10.711 -0.2076 -1.2149 -0.2341
 4585TIP3   OH235169   5.951   1.825   0.451  0.3483  0.3765  0.3398
 4585TIP3    H135170   5.995   1.908   0.432  0.2535  0.2645 -0.3827
 4585TIP3    H235171   5.858   1.846   0.448  0.3290  0.3417  0.6343
 4586TIP3   OH235172   2.195   1.379  17.219 -0.0387 -0.1287 -0.0335
 4586TIP3    H135173   2.101   1.399  17.210  0.5685  2.5100 -1.8052
 4586TIP3    H235174   2.209   1.307  17.157 -1.2345 -2.3297  2.0656
 4587TIP3   OH235175   2.033   1.572   3.630 -0.2357 -0.6869 -0.3156
 4587TIP3    H135176   1.965   1.638   3.616 -0.5609 -1.0314 -0.3649
 4587TIP3    H235177   2.045   1.532   3.544  1.3104  0.5819 -0.7550
 4588TIP3   OH235178   0.042   1.605   2.842  0.3013 -0.4425  0.3758
 4588TIP3    H135179   0.018   1.583   2.932  1.6383 -1.0517  0.6124
 4588TIP3    H235180   0.022   1.698   2.834  0.4854 -0.3031  1.4192
 4589TIP3   OH235181   2.377   0.450   3.613 -0.2282 -0.0263 -0.2798
 4589TIP3    H135182   2.352   0.386   3.546 -0.0616 -1.0837  0.6392
 4589TIP3    H235183   2.471   0.463   3.600 -0.4956  1.0037 -1.2680
 4590TIP3   OH235184   4.174   2.873   6.323 -0.2848 -0.2522 -0.8773
 4590TIP3    H135185   4.235   2.837   6.259 -0.1336 -0.4468 -0.6253
 4590TIP3    H235186   4.230   2.913   6.390 -0.4396 -0.2227 -0.7652
 4591TIP3   OH235187   3.939   2.174   4.249 -0.4331 -0.0398 -0.2286
 4591TIP3    H135188   3.932   2.256   4.297  0.2898 -0.0402 -0.1148
 4591TIP3    H235189   3.849   2.142   4.243 -0.6093  0.2984  0.5323
 4592TIP3   OH235190   4.711   2.328  14.674 -0.1638 -0.4940  0.1620
 4592TIP3    H135191   4.757   2.304  14.754  1.0260  0.1968 -0.2829
 4592TIP3    H235192   4.753   2.410  14.646 -0.4163 -0.8229 -1.2698
 4593TIP3   OH235193   3.535   3.876  13.447 -0.1108  0.5075  0.0550
 4593TIP3    H135194   3.498   3.956  13.408 -1.0014  0.4305  0.6969
 4593TIP3    H235195   3.498   3.874  13.535 -2.1864 -1.9100 -0.7347
 4594TIP3   OH235196   3.510   6.760   2.186 -0.1261  0.3588 -0.1792
 4594TIP3    H135197   3.441   6.792   2.129  1.4497  1.8946 -1.3392
 4594TIP3    H235198   3.504   6.664   2.179 -2.2358  0.4441 -0.0346
 4595TIP3   OH235199   1.493   4.756  13.285  0.1823 -0.3912  0.1701
 4595TIP3    H135200   1.418   4.811  13.262  0.4488 -0.2515 -0.3877
 4595TIP3    H235201   1.536   4.804  13.355  0.1813 -0.0856 -0.0344
 4596TIP3   OH235202   2.178   1.666  13.695 -0.0620  0.1136 -0.2634
 4596TIP3    H135203   2.184   1.734  13.763  0.7265 -0.0456 -0.1621
 4596TIP3    H235204   2.192   1.584  13.742 -2.2247 -0.2670 -0.1749
 4597TIP3   OH235205   5.953   1.014  16.644 -0.0467  0.3095  0.2596
 4597TIP3    H135206   5.926   1.024  16.552  2.2290 -0.0847 -0.5179
 4597TIP3    H235207   5.907   1.083  16.690 -1.7440  0.1348 -1.0461
 4598TIP3   OH235208   4.330   5.646  10.648  0.0571 -0.1075  0.0630
 4598TIP3    H135209   4.273   5.680  10.716 -2.2715 -0.8498 -1.3922
 4598TIP3    H235210   4.337   5.717  10.584  0.4397 -0.1743  0.0242
 4599TIP3   OH235211   1.738   5.100   5.690 -0.1377  0.3136  0.5418
 4599TIP3    H135212   1.678   5.087   5.617 -0.5097  2.3652  0.4298
 4599TIP3    H235213   1.805   5.032   5.679 -1.4236 -0.8589 -0.3623
 4600TIP3   OH235214   5.328   5.067  16.442  0.0145 -0.1899  0.2653
 4600TIP3    H135215   5.380   5.006  16.391  1.6742  0.5277  1.0123
 4600TIP3    H235216   5.267   5.106  16.379  0.5534 -0.8709 -0.6955
 4601TIP3   OH235217   2.541   0.860  15.494  0.0520 -0.1878 -0.0176
 4601TIP3    H135218   2.588   0.880  15.413  1.9955 -1.9176  0.5848
 4601TIP3    H235219   2.585   0.913  15.561 -1.0897  0.7089  0.0487
 4602TIP3   OH235220   1.969   2.439   0.518 -0.1602 -0.0661 -0.5843
 4602TIP3    H135221   1.932   2.515   0.562 -0.8261 -0.2200 -0.8646
 4602TIP3    H235222   2.059   2.434   0.550 -0.6533 -0.2472  0.8375
 4603TIP3   OH235223   6.305   4.078  14.102  0.3095  0.0655  0.1207
 4603TIP3    H135224   6.275   3.989  14.087  0.2253 -0.0507  0.9307
 4603TIP3    H235225   6.225   4.130  14.105  0.2422 -0.0794  1.2055
 4604TIP3   OH235226   3.737   4.885  11.591  0.1578  0.2138 -0.4871
 4604TIP3    H135227   3.761   4.815  11.651  0.8873  1.5611  0.8596
 4604TIP3    H235228   3.807   4.950  11.601  0.1515  0.6161 -2.5979
 4605TIP3   OH235229   0.847   0.925   1.820 -0.4123 -0.0864 -0.1017
 4605TIP3    H135230   0.819   0.982   1.749  1.3192  2.5202  1.1499
 4605TIP3    H235231   0.911   0.977   1.869  1.0206 -3.0019  1.3937
 4606TIP3   OH235232   0.482   5.948  11.924 -0.1232  0.1018  0.2609
 4606TIP3    H135233   0.432   5.984  11.997 -0.3945 -1.9168  1.1207
 4606TIP3    H235234   0.453   6.000  11.848 -1.4387  0.8083  1.2045
 4607TIP3   OH235235   4.503   3.020   3.950 -0.6402 -0.6336 -0.1264
 4607TIP3    H135236   4.594   3.027   3.980 -1.0830  0.2921  1.0967
 4607TIP3    H235237   4.490   3.097   3.895 -0.9418 -0.2663  0.4516
 4608TIP3   OH235238   1.723   2.673  16.617 -0.5680  0.3284  0.2441
 4608TIP3    H135239   1.770   2.599  16.577 -0.6236  0.0628  0.6609
 4608TIP3    H235240   1.658   2.699  16.552 -0.0067  0.5412 -0.2415
 4609TIP3   OH235241   5.629   4.824   4.897  0.2507  0.3976 -0.1083
 4609TIP3    H135242   5.715   4.865   4.891 -0.2084  1.3591 -0.2661
 4609TIP3    H235243   5.606   4.801   4.807  0.7981 -0.8580  0.0503
 4610TIP3   OH235244   1.466   1.426  11.850  0.3028 -0.1733  0.2160
 4610TIP3    H135245   1.487   1.402  11.940  0.4832  1.7629  0.7411
 4610TIP3    H235246   1.435   1.517  11.856  1.2473  0.3484 -1.7651
 4611TIP3   OH235247   4.129   0.446   2.127 -0.0888 -0.3530  0.5918
 4611TIP3    H135248   4.196   0.379   2.138 -0.3683 -0.5766  0.9529
 4611TIP3    H235249   4.107   0.472   2.217 -1.5986 -1.3941  0.5550
 4612TIP3   OH235250   5.082   1.017  15.936 -0.2581  0.0479 -0.2782
 4612TIP3    H135251   5.061   0.982  15.850  0.0768 -0.4999 -0.1459
 4612TIP3    H235252   5.176   1.036  15.932 -0.5805  1.7833 -0.6333
 4613TIP3   OH235253   1.459   2.728   2.184 -0.6682 -0.3430  0.0787
 4613TIP3    H135254   1.451   2.729   2.089  1.3088  2.3338 -0.2120
 4613TIP3    H235255   1.515   2.653   2.203  1.8380  1.0254 -1.3544
 4614TIP3   OH235256   1.380   5.906   3.328  1.3676 -0.4324  0.7091
 4614TIP3    H135257   1.296   5.859   3.329  1.7401 -1.2073  3.7514
 4614TIP3    H235258   1.442   5.845   3.367  2.7468  1.1639  1.1123
 4615TIP3   OH235259   3.469   3.173  16.005  0.3693  0.0379  0.0749
 4615TIP3    H135260   3.549   3.121  16.017  0.5040 -0.2742 -1.8126
 4615TIP3    H235261   3.402   3.125  16.054  1.0127 -0.5375  0.4250
 4616TIP3   OH235262   2.401   1.391   5.372  0.1155  0.6278  0.0378
 4616TIP3    H135263   2.462   1.424   5.438  1.3506 -0.1156 -0.7112
 4616TIP3    H235264   2.399   1.297   5.385  0.4071  0.4643 -1.0051
 4617TIP3   OH235265   3.323   3.524   1.626 -0.7506  0.1675  0.3719
 4617TIP3    H135266   3.330   3.562   1.714  0.4185 -0.6924  0.6897
 4617TIP3    H235267   3.396   3.562   1.578 -0.4686 -0.5033  0.2496
 4618TIP3   OH235268   5.984   0.978   1.291  0.7458 -0.2621  0.1976
 4618TIP3    H135269   5.905   1.031   1.294  0.0350 -1.2414 -0.5410
 4618TIP3    H235270   6.047   1.024   1.346  0.1949  1.3809 -0.5082
 4619TIP3   OH235271   4.361   0.779  11.908 -0.4277 -0.0101 -0.0401
 4619TIP3    H135272   4.343   0.858  11.857  0.0493  0.4161  0.4352
 4619TIP3    H235273   4.452   0.757  11.886 -0.8032 -0.8914 -0.7748
 4620TIP3   OH235274   0.393   2.333  14.748 -0.0187 -0.6058  0.0097
 4620TIP3    H135275   0.472   2.387  14.740 -1.4379  1.4862 -0.6749
 4620TIP3    H235276   0.327   2.392  14.785 -1.4500 -2.1129 -0.0237
 4621TIP3   OH235277   0.291   3.061  16.007 -0.7046  0.0030  0.0099
 4621TIP3    H135278   0.272   3.153  15.989  2.9903  1.3279  1.7414
 4621TIP3    H235279   0.271   3.050  16.099 -0.3433 -0.6936  0.0114
 4622TIP3   OH235280   5.160   2.904  10.982 -0.6843  0.2055 -0.4155
 4622TIP3    H135281   5.133   2.847  11.054  0.0269  1.0511  0.5575
 4622TIP3    H235282   5.079   2.923  10.935 -1.2469  0.0305  0.4563
 4623TIP3   OH235283   4.315   3.100  13.372 -0.1295 -0.2963 -0.1600
 4623TIP3    H135284   4.248   3.139  13.429 -0.3602 -1.5406  0.4622
 4623TIP3    H235285   4.380   3.065  13.433  0.1385 -0.7509 -0.7034
 4624TIP3   OH235286   0.730   4.468   2.231 -0.6852 -0.0823 -0.3948
 4624TIP3    H135287   0.636   4.466   2.212 -0.2095  2.6406 -4.2641
 4624TIP3    H235288   0.767   4.406   2.168  0.1886 -1.0893  1.0641
 4625TIP3   OH235289   5.623   3.480   0.609  0.2862 -0.3404  0.0929
 4625TIP3    H135290   5.573   3.463   0.689 -0.2143  0.1602 -0.1061
 4625TIP3    H235291   5.595   3.411   0.548  1.5080 -1.4185  0.6974
 4626TIP3   OH235292   5.246   0.368  11.444 -0.3508 -0.0395  0.3446
 4626TIP3    H135293   5.276   0.439  11.386  3.4271  0.0985  2.1316
 4626TIP3    H235294   5.282   0.289  11.405  1.4306 -0.0484  1.8840
 4627TIP3   OH235295   3.435   4.148   0.972  0.0156 -0.2031 -0.5066
 4627TIP3    H135296   3.428   4.144   1.067  1.7034 -1.6547 -0.4048
 4627TIP3    H235297   3.423   4.241   0.952 -0.2690  0.1458  1.1146
 4628TIP3   OH235298   4.376   5.363  16.103 -0.2188 -0.1008 -0.2167
 4628TIP3    H135299   4.313   5.293  16.121 -1.4507  0.7294 -1.1124
 4628TIP3    H235300   4.321   5.441  16.091  1.1758  1.3315  2.0890
 4629TIP3   OH235301   2.305   3.048   2.352 -0.2889 -0.0118 -0.4034
 4629TIP3    H135302   2.377   3.025   2.410  0.1505  0.2256 -0.8465
 4629TIP3    H235303   2.292   3.142   2.367 -0.5569 -0.0669 -0.2748
 4630TIP3   OH235304   5.057   1.470   2.168 -0.0286 -0.0278  0.3467
 4630TIP3    H135305   5.006   1.436   2.241 -1.9480  0.2309 -0.7948
 4630TIP3    H235306   5.032   1.562   2.162  1.5698  0.4479  0.5194
 4631TIP3   OH235307   2.737   2.591   2.548  0.0864  0.2506 -0.2125
 4631TIP3    H135308   2.819   2.586   2.500  0.9872 -0.8667  1.3574
 4631TIP3    H235309   2.724   2.504   2.584 -2.0548  0.2650 -0.7835
 4632TIP3   OH235310   1.903   3.940   5.404  0.7995  0.7530  0.7354
 4632TIP3    H135311   1.808   3.950   5.410  0.3413 -0.8014 -2.3170
 4632TIP3    H235312   1.934   3.964   5.491 -2.5317 -0.5845  2.4973
 4633TIP3   OH235313   0.208   2.200   1.021  0.2241  0.2440  0.4647
 4633TIP3    H135314   0.261   2.168   1.095  0.4253  1.7019  0.9832
 4633TIP3    H235315   0.153   2.268   1.060 -0.9960 -0.2415 -0.3751
 4634TIP3   OH235316   0.084   4.643  13.922 -0.0037 -0.7463 -0.4281
 4634TIP3    H135317   0.084   4.734  13.950 -0.1268 -0.5790 -0.9591
 4634TIP3    H235318   0.169   4.609  13.951  0.1124 -0.4143 -0.3728
 4635TIP3   OH235319   5.009   3.933   2.234  0.8719 -0.1623 -0.0576
 4635TIP3    H135320   5.081   3.951   2.174 -0.1111  0.2595 -1.1652
 4635TIP3    H235321   4.947   4.005   2.219  0.3863 -0.3013  1.1502
 4636TIP3   OH235322   3.057   1.140   3.339  0.4593 -0.1413  0.3193
 4636TIP3    H135323   3.085   1.072   3.278  1.9523  1.2910 -0.6618
 4636TIP3    H235324   3.017   1.207   3.284 -0.5991  0.0188  1.2290
 4637TIP3   OH235325   2.850   5.643   0.661 -0.8944  0.5925  1.3133
 4637TIP3    H135326   2.847   5.735   0.638 -0.5374  0.5105  0.9234
 4637TIP3    H235327   2.760   5.620   0.682 -1.6306  0.2790 -1.6577
 4638TIP3   OH235328   5.046   5.375  12.802  0.2159 -0.0181  0.5493
 4638TIP3    H135329   5.136   5.364  12.773  0.6810 -0.0933  1.9299
 4638TIP3    H235330   5.027   5.468  12.786  1.4290  0.6366  2.4820
 4639TIP3   OH235331   3.930   1.108   1.034 -0.2988 -0.3592  0.2003
 4639TIP3    H135332   3.942   1.166   0.959 -0.4191  0.5269  0.8557
 4639TIP3    H235333   3.871   1.040   1.003 -0.1613 -0.1339 -0.5734
 4640TIP3   OH235334   0.613   2.813   2.912 -0.1400 -0.8296  0.1953
 4640TIP3    H135335   0.591   2.891   2.862 -0.8599 -0.9829  0.2563
 4640TIP3    H235336   0.708   2.818   2.926 -0.0988 -0.2611 -0.2847
 4641TIP3   OH235337   3.121   4.642   4.028 -0.1227  0.4692 -0.2352
 4641TIP3    H135338   3.051   4.593   3.984 -0.0771  0.4644 -0.3018
 4641TIP3    H235339   3.191   4.647   3.964 -0.6043  1.7387 -0.6894
 4642TIP3   OH235340   6.113   3.918   1.852 -0.0238  0.0086 -0.0910
 4642TIP3    H135341   6.020   3.942   1.854 -0.2336 -0.6802 -0.6763
 4642TIP3    H235342   6.138   3.928   1.760  0.5170  0.3192  0.0880
 4643TIP3   OH235343   1.139   6.042   5.474  0.3239 -0.1168 -0.1442
 4643TIP3    H135344   1.143   6.129   5.435 -1.3750  0.2678  0.4449
 4643TIP3    H235345   1.183   5.985   5.411  0.0865  0.9176 -1.2765
 4644TIP3   OH235346   2.658   5.457   5.673 -0.2306 -0.1073 -0.1016
 4644TIP3    H135347   2.702   5.472   5.589  1.2824 -0.5178  0.5850
 4644TIP3    H235348   2.680   5.533   5.726 -1.1006  0.1002 -0.0248
 4645TIP3   OH235349   5.884   2.249  11.510  0.2536  0.5787  0.3289
 4645TIP3    H135350   5.816   2.227  11.573  0.7018 -2.1947 -0.0060
 4645TIP3    H235351   5.841   2.242  11.425  0.0657  2.6531  0.2048
 4646TIP3   OH235352   5.521   0.881  13.342 -0.2013  0.3719  0.7182
 4646TIP3    H135353   5.463   0.955  13.326 -0.8164 -0.3003 -0.3002
 4646TIP3    H235354   5.501   0.854  13.431 -1.6171  0.0421  0.3227
 4647TIP3   OH235355   2.556   5.569  11.270 -0.0117 -0.0212  0.4627
 4647TIP3    H135356   2.586   5.651  11.230 -1.7303  0.2494 -0.3861
 4647TIP3    H235357   2.602   5.565  11.353 -1.0548  2.6466  1.2814
 4648TIP3   OH235358   1.399   2.233   0.734  0.3360  0.2090  0.7886
 4648TIP3    H135359   1.374   2.267   0.820 -1.4488 -0.5620  0.6168
 4648TIP3    H235360   1.482   2.187   0.750  1.1583  1.8995  1.6335
 4649TIP3   OH235361   3.339   5.084   3.548 -0.1590  0.3656 -0.2000
 4649TIP3    H135362   3.325   5.097   3.642 -1.6265  1.5430 -0.5532
 4649TIP3    H235363   3.429   5.113   3.533 -0.6358  2.3014  0.4782
 4650TIP3   OH235364   2.237   4.282  14.387  0.1017  0.8205  0.1554
 4650TIP3    H135365   2.324   4.247  14.407 -0.7468 -0.9774  0.9475
 4650TIP3    H235366   2.194   4.212  14.339 -1.0534  1.5423  0.1103
 4651TIP3   OH235367   2.992   2.551  15.743  0.4698 -0.6691  0.2799
 4651TIP3    H135368   3.059   2.486  15.721  0.5259 -0.7372  0.6422
 4651TIP3    H235369   2.966   2.528  15.833  1.2873  0.4843  0.8434
 4652TIP3   OH235370   5.570   6.746  13.729 -0.4621 -0.1242 -0.2754
 4652TIP3    H135371   5.509   6.702  13.668 -0.6393 -1.8806  1.0992
 4652TIP3    H235372   5.657   6.725  13.695 -0.5010 -2.6242  0.9837
 4653TIP3   OH235373   1.813   3.373   3.846  0.2322 -0.5245  0.1341
 4653TIP3    H135374   1.813   3.413   3.933 -0.0826 -0.6568  0.1928
 4653TIP3    H235375   1.866   3.294   3.857  1.9109  0.4986 -0.2681
 4654TIP3   OH235376   3.337   3.482  14.670 -0.2931  0.4185 -0.9791
 4654TIP3    H135377   3.341   3.415  14.738  0.1651 -0.0671 -1.4795
 4654TIP3    H235378   3.382   3.558  14.709  0.2887  0.0249 -0.8662
 4655TIP3   OH235379   5.573   3.210  11.461 -0.0741  0.1290  0.1569
 4655TIP3    H135380   5.603   3.134  11.412  0.5830  0.5649 -0.1246
 4655TIP3    H235381   5.645   3.229  11.522 -0.7867 -0.2802  1.1695
 4656TIP3   OH235382   6.681   0.615   3.773  0.5414 -0.1005  0.1404
 4656TIP3    H135383   6.729   0.597   3.853  0.1159 -2.4584 -0.0684
 4656TIP3    H235384   6.727   0.566   3.705 -0.8882 -0.7049 -0.4510
 4657TIP3   OH235385   5.992   3.003   1.977 -0.2671  0.3548  0.0606
 4657TIP3    H135386   5.987   2.908   1.985 -3.4559  0.4291  0.1690
 4657TIP3    H235387   5.995   3.019   1.883  0.2175  0.1662  0.0416
 4658TIP3   OH235388   1.038   3.927   1.585 -0.3501  0.4165  0.1735
 4658TIP3    H135389   1.064   3.865   1.652  1.4670 -1.8226 -2.3572
 4658TIP3    H235390   0.991   3.875   1.520  0.1761  1.8792 -1.4854
 4659TIP3   OH235391   3.460   6.479  14.193 -0.6741  0.5331  0.3033
 4659TIP3    H135392   3.541   6.528  14.180 -0.6499  0.1894 -0.9325
 4659TIP3    H235393   3.466   6.446  14.283  1.4231 -1.0433 -0.3423
 4660TIP3   OH235394   5.305   2.412   3.138  1.0922  0.1023 -0.3487
 4660TIP3    H135395   5.389   2.377   3.168  1.3269  1.0852  0.1774
 4660TIP3    H235396   5.258   2.435   3.218 -0.0547 -1.2219 -0.5993
 4661TIP3   OH235397   3.258   3.921  16.276  0.5254 -0.0243  0.6338
 4661TIP3    H135398   3.300   3.835  16.285 -4.2115 -2.7952 -0.2361
 4661TIP3    H235399   3.227   3.942  16.364 -2.7661 -2.0486  0.1255
 4662TIP3   OH235400   3.510   6.447   0.853 -0.1979  0.0425  0.4001
 4662TIP3    H135401   3.598   6.466   0.884  0.0495  0.2255 -0.3834
 4662TIP3    H235402   3.458   6.523   0.880  0.2034  0.6036 -0.3693
 4663TIP3   OH235403   1.446   1.926  13.606 -0.2074 -0.4547 -0.3572
 4663TIP3    H135404   1.466   2.004  13.658 -1.2345  0.2534 -0.9941
 4663TIP3    H235405   1.483   1.854  13.656  0.6116  0.4176  0.3344
 4664TIP3   OH235406   3.009   0.364   1.840 -0.3732 -0.4511 -0.1930
 4664TIP3    H135407   2.967   0.384   1.756  3.1035  1.5335 -1.7104
 4664TIP3    H235408   3.099   0.396   1.829  1.6024 -4.2447  2.7129
 4665TIP3   OH235409   0.378   3.860   5.899 -0.2580 -0.6667  0.0756
 4665TIP3    H135410   0.293   3.816   5.898 -1.2343  1.1192  0.4593
 4665TIP3    H235411   0.442   3.789   5.896 -1.7439 -2.0093 -2.1210
 4666TIP3   OH235412   0.885   0.212   5.675  0.1230 -0.0616 -0.2663
 4666TIP3    H135413   0.854   0.292   5.719 -0.2922  0.6711 -1.8110
 4666TIP3    H235414   0.947   0.173   5.736 -1.9695 -0.2388  1.8747
 4667TIP3   OH235415   0.843   5.079   6.493 -0.1956 -0.2123 -0.0400
 4667TIP3    H135416   0.905   5.152   6.487 -0.7176  0.1607 -0.9658
 4667TIP3    H235417   0.842   5.040   6.405 -0.3773 -0.9642  0.2837
 4668TIP3   OH235418   6.394   5.754  14.376  0.1400 -0.0009  0.2657
 4668TIP3    H135419   6.385   5.846  14.402  0.2366  0.2683 -0.6141
 4668TIP3    H235420   6.482   5.729  14.403 -0.0036  0.0596  0.8039
 4669TIP3   OH235421   3.164   0.172  11.459  0.0691 -0.2965 -0.4422
 4669TIP3    H135422   3.206   0.249  11.422  0.7225  0.5437  1.8532
 4669TIP3    H235423   3.111   0.207  11.531 -0.3085 -1.9115  0.0999
 4670TIP3   OH235424   0.245   5.417   2.859  0.3262  0.1526 -0.1912
 4670TIP3    H135425   0.333   5.409   2.895  0.1115 -2.3490 -0.0188
 4670TIP3    H235426   0.204   5.487   2.909  2.1817  1.3381 -0.2539
 4671TIP3   OH235427   5.739   1.583  13.355  0.2184  1.1250  0.2331
 4671TIP3    H135428   5.761   1.613  13.267  0.4266 -0.5139 -0.3204
 4671TIP3    H235429   5.650   1.615  13.369  0.5200  2.1975 -0.1842
 4672TIP3   OH235430   2.694   6.611   5.432 -0.4850  0.2737  0.1565
 4672TIP3    H135431   2.729   6.640   5.517 -0.7282  0.0394  0.3395
 4672TIP3    H235432   2.737   6.668   5.368 -0.4608  0.5993  0.4548
 4673TIP3   OH235433   1.419   1.502  11.389 -0.4388 -0.1322 -0.4769
 4673TIP3    H135434   1.468   1.420  11.384 -0.7329 -0.2582 -1.7799
 4673TIP3    H235435   1.486   1.571  11.384 -0.1098 -0.2533  1.5685
 4674TIP3   OH235436   0.471   1.541  12.395 -0.2620  0.5296 -0.4089
 4674TIP3    H135437   0.415   1.569  12.467  0.4793  0.6559  0.1347
 4674TIP3    H235438   0.510   1.459  12.425  1.0838  1.2619 -0.0917
 4675TIP3   OH235439   4.160   3.788  12.526  0.2081  0.1832 -0.4944
 4675TIP3    H135440   4.122   3.874  12.539  0.2497 -0.1723  2.8407
 4675TIP3    H235441   4.234   3.784  12.586  1.0894 -1.6893 -1.5882
 4676TIP3   OH235442   1.126   3.119   2.998  0.1470 -0.1646  0.5021
 4676TIP3    H135443   1.216   3.101   3.026  0.7361  0.9040 -0.6255
 4676TIP3    H235444   1.078   3.038   3.018  1.0161 -0.2621  2.4269
 4677TIP3   OH235445   5.736   4.579  15.980 -0.7299  0.0213  0.1585
 4677TIP3    H135446   5.713   4.664  15.944 -0.7253 -0.9846 -2.4889
 4677TIP3    H235447   5.688   4.516  15.926 -1.3463 -1.6750  2.5202
 4678TIP3   OH235448   1.834   6.035   3.311 -0.1480 -0.4094 -0.2138
 4678TIP3    H135449   1.870   6.050   3.223 -1.6379  1.3142 -0.5950
 4678TIP3    H235450   1.775   5.960   3.300  2.1561 -2.3812  0.1237
 4679TIP3   OH235451   6.697   4.990  16.782 -0.7862 -0.4470  0.1182
 4679TIP3    H135452   6.686   4.946  16.866  0.1616 -1.7636 -0.4223
 4679TIP3    H235453   6.620   5.047  16.775 -1.3444 -0.9914  1.4499
 4680TIP3   OH235454   1.712   1.577  16.538 -0.0280 -0.1448 -0.1973
 4680TIP3    H135455   1.619   1.601  16.533 -0.1222 -0.1012  1.2241
 4680TIP3    H235456   1.739   1.606  16.625  1.2380 -0.4601 -0.4718
 4681TIP3   OH235457   2.737   5.577   0.941 -0.2351  0.2773  0.2232
 4681TIP3    H135458   2.718   5.591   1.034  0.4953  0.2742  0.3792
 4681TIP3    H235459   2.727   5.664   0.902 -2.1822 -0.0099 -0.0175
 4682TIP3   OH235460   5.664   0.343  12.634 -0.7090  0.0684  0.3737
 4682TIP3    H135461   5.576   0.317  12.661 -0.9799  0.1201 -0.4226
 4682TIP3    H235462   5.713   0.352  12.716 -1.2431 -0.6649  0.7801
 4683TIP3   OH235463   5.195   4.797   3.066  0.0649 -0.3131  0.1138
 4683TIP3    H135464   5.220   4.780   2.975  0.9072  0.6918  0.1362
 4683TIP3    H235465   5.129   4.865   3.061  1.6434  1.3025  0.3181
 4684TIP3   OH235466   0.478   5.540   0.379 -0.0984  0.1489 -0.2829
 4684TIP3    H135467   0.484   5.455   0.335 -1.3438 -1.4212  2.3731
 4684TIP3    H235468   0.567   5.556   0.410  0.2215  0.0293 -1.0924
 4685TIP3   OH235469   3.239   1.635  12.939  0.0958  0.2342 -0.3497
 4685TIP3    H135470   3.283   1.551  12.950 -0.8716 -0.3932 -1.0934
 4685TIP3    H235471   3.191   1.647  13.021  0.9579  0.5179  0.1250
 4686TIP3   OH235472   4.691   4.166   4.915  0.0757 -0.4908  0.0405
 4686TIP3    H135473   4.690   4.260   4.896  1.4598 -0.5204 -0.3283
 4686TIP3    H235474   4.753   4.130   4.851 -0.6910 -1.7094 -0.0373
 4687TIP3   OH235475   4.519   1.536   3.280  0.8694 -0.5600 -0.1435
 4687TIP3    H135476   4.593   1.502   3.230  1.7021  0.2259  0.4979
 4687TIP3    H235477   4.546   1.526   3.371  0.8114  1.0252  0.0742
 4688TIP3   OH235478   1.010   3.862  14.387  0.2105  0.4456  0.2666
 4688TIP3    H135479   1.001   3.812  14.468  1.2864  0.4117  0.3798
 4688TIP3    H235480   1.103   3.855  14.364 -0.1245  0.1857 -1.1457
 4689TIP3   OH235481   2.861   1.336  15.640  0.0507 -0.3449  0.5683
 4689TIP3    H135482   2.927   1.389  15.596 -1.7345 -0.3848 -2.4125
 4689TIP3    H235483   2.895   1.247  15.638  0.6739 -0.1132  0.7093
 4690TIP3   OH235484   1.376   0.754   6.252  0.3200 -0.5647  0.0143
 4690TIP3    H135485   1.315   0.788   6.318 -0.4999 -2.3437  0.2334
 4690TIP3    H235486   1.446   0.712   6.302  2.0412  1.8108 -0.2289
 4691TIP3   OH235487   1.092   2.690   2.294 -0.1996 -0.3869 -0.3876
 4691TIP3    H135488   1.034   2.616   2.280 -0.1665 -0.5349  0.2075
 4691TIP3    H235489   1.159   2.681   2.226 -0.0081 -1.0992 -0.1234
 4692TIP3   OH235490   3.016   4.180  12.614 -0.5684 -0.0089  0.1557
 4692TIP3    H135491   3.067   4.261  12.603 -1.0360  0.4575  1.3777
 4692TIP3    H235492   2.925   4.207  12.603 -0.6095 -0.8354 -1.9578
 4693TIP3   OH235493   0.067   5.652  11.356 -0.4673  0.6170  0.1682
 4693TIP3    H135494  -0.005   5.589  11.346  0.4826 -0.2894 -1.3619
 4693TIP3    H235495   0.026   5.737  11.342 -1.4510  0.2237  0.4966
 4694TIP3   OH235496   2.927   4.844   5.582  0.1621  0.6930 -0.2289
 4694TIP3    H135497   2.988   4.842   5.508  0.0362  1.9443 -0.3921
 4694TIP3    H235498   2.847   4.804   5.549  0.6980 -0.4554 -0.1834
 4695TIP3   OH235499   1.565   4.075  15.116 -0.0287 -0.3620 -0.1163
 4695TIP3    H135500   1.533   4.051  15.204 -1.7515 -1.5395 -1.0115
 4695TIP3    H235501   1.565   4.171  15.116 -0.1383 -0.3421  1.1160
 4696TIP3   OH235502   1.281   6.456   4.642  0.0276 -0.6876  0.0254
 4696TIP3    H135503   1.343   6.400   4.594 -1.7925 -1.2843 -1.7464
 4696TIP3    H235504   1.203   6.458   4.587 -1.3528  0.5014  1.9234
 4697TIP3   OH235505   3.233   4.869   1.938  0.0128 -0.0700  0.0910
 4697TIP3    H135506   3.247   4.858   2.032  0.6315 -1.4856 -0.1451
 4697TIP3    H235507   3.254   4.783   1.900 -2.4184 -0.2347 -1.0894
 4698TIP3   OH235508   6.687   5.187   0.432  0.1413  0.1082 -0.3552
 4698TIP3    H135509   6.701   5.096   0.407 -2.6181 -0.2159 -1.1067
 4698TIP3    H235510   6.678   5.234   0.348  1.1438  1.0093  0.0244
 4699TIP3   OH235511   3.581   6.256  11.612 -0.1029 -0.1661  0.0586
 4699TIP3    H135512   3.559   6.306  11.533  0.4176  1.6769  1.0080
 4699TIP3    H235513   3.541   6.170  11.599  1.0792 -0.3875 -2.7774
 4700TIP3   OH235514   5.339   0.449  11.082  0.1313  0.1764 -0.5479
 4700TIP3    H135515   5.392   0.499  11.021 -0.4564  0.7784 -0.5713
 4700TIP3    H235516   5.340   0.501  11.163  0.4380 -0.3316 -0.2190
 4701TIP3   OH235517   5.861   3.030   0.443  0.1788  0.1911 -0.0567
 4701TIP3    H135518   5.856   2.956   0.502 -1.0251  0.1244 -0.2208
 4701TIP3    H235519   5.774   3.069   0.444 -0.1509 -0.3030 -2.3982
 4702TIP3   OH235520   2.305   1.457  14.840  0.1266 -0.5836  0.1199
 4702TIP3    H135521   2.257   1.484  14.918  0.0549 -0.9802  0.2151
 4702TIP3    H235522   2.315   1.362  14.849  2.1317 -0.3542  0.7892
 4703TIP3   OH235523   0.782   0.491   0.678 -0.0947 -0.1129  0.7833
 4703TIP3    H135524   0.816   0.455   0.759 -0.9955 -1.0417  0.7635
 4703TIP3    H235525   0.702   0.538   0.704  1.1352  2.1069  0.8453
 4704TIP3   OH235526   3.277   3.049   4.935  0.1182 -0.3566 -0.4400
 4704TIP3    H135527   3.256   3.080   5.023  3.9606  0.3415  0.3958
 4704TIP3    H235528   3.271   3.127   4.880  0.6232 -0.1596 -0.2131
 4705TIP3   OH235529   2.257   1.635   2.891  0.9198 -0.0742 -0.0593
 4705TIP3    H135530   2.300   1.663   2.972  0.4317  0.3656  0.0530
 4705TIP3    H235531   2.300   1.685   2.822  0.9617 -0.0424 -0.0095
 4706TIP3   OH235532   2.439   0.470   1.971 -0.1878  0.4105 -0.1789
 4706TIP3    H135533   2.495   0.478   2.048  0.1742 -1.0396 -0.2490
 4706TIP3    H235534   2.358   0.433   2.005  0.6989 -2.2343 -0.6994
 4707TIP3   OH235535   2.522   4.151   5.605 -0.3154 -0.5223  0.0298
 4707TIP3    H135536   2.558   4.133   5.518  4.6876 -2.1804  2.0768
 4707TIP3    H235537   2.576   4.224   5.638  0.1631 -2.0127  2.7757
 4708TIP3   OH235538   2.428   1.465   0.721  0.4031  0.2019  0.7353
 4708TIP3    H135539   2.439   1.373   0.745 -0.0831  0.0805  0.5024
 4708TIP3    H235540   2.450   1.513   0.800 -0.5166 -0.1656  1.2275
 4709TIP3   OH235541   2.184   0.067  14.055  0.3297  0.1052 -0.0122
 4709TIP3    H135542   2.200  -0.021  14.023  2.2060  0.6682 -0.7253
 4709TIP3    H235543   2.156   0.116  13.977 -1.1420  0.0840  0.4623
 4710TIP3   OH235544   2.326   3.313   5.038 -0.0735 -0.0451 -0.3622
 4710TIP3    H135545   2.279   3.249   5.091  0.9822 -0.8095 -0.3155
 4710TIP3    H235546   2.310   3.397   5.081 -0.5380 -0.4345  0.2330
 4711TIP3   OH235547   6.587   3.809  17.080 -0.3627 -0.0455  0.3234
 4711TIP3    H135548   6.655   3.859  17.034 -0.2082  0.4748  1.0879
 4711TIP3    H235549   6.635   3.756  17.143 -0.4634 -1.7723 -0.9792
 4712TIP3   OH235550   5.081   1.428  17.230  0.4365  0.5040  0.0097
 4712TIP3    H135551   5.038   1.501  17.274  0.6468  0.7755 -0.2266
 4712TIP3    H235552   5.174   1.452  17.230  0.4133  0.6607 -0.8415
 4713TIP3   OH235553   3.621   6.604  16.465  0.7890  0.5853  0.1949
 4713TIP3    H135554   3.640   6.579  16.374 -3.9902 -5.0392  0.1422
 4713TIP3    H235555   3.548   6.666  16.458  1.0500  0.9023  0.2471
 4714TIP3   OH235556   2.439   3.594   5.760 -0.1739  0.3494 -0.4814
 4714TIP3    H135557   2.369   3.561   5.816  0.2230 -0.9744 -0.7348
 4714TIP3    H235558   2.450   3.527   5.692  2.3808 -0.3045  0.4441
 4715TIP3   OH235559   2.521   2.106  12.509 -0.4883 -0.7516  0.1288
 4715TIP3    H135560   2.431   2.094  12.538 -0.6698 -0.0599 -0.1217
 4715TIP3    H235561   2.562   2.159  12.578 -0.9686  1.0437 -0.8771
 4716TIP3   OH235562   5.576   3.481   2.515 -0.0550  0.7747 -0.4055
 4716TIP3    H135563   5.544   3.544   2.451  2.3037  1.7046 -0.7591
 4716TIP3    H235564   5.626   3.418   2.464 -0.5448 -0.1437  0.2099
 4717TIP3   OH235565   5.785   3.121  14.074  0.3655 -0.0245 -0.2242
 4717TIP3    H135566   5.823   3.188  14.017 -1.0779  0.7949 -0.2969
 4717TIP3    H235567   5.840   3.044  14.061 -0.3485 -0.1511 -3.4137
 4718TIP3   OH235568   4.687   0.226   2.820  0.0422  0.1326  0.6779
 4718TIP3    H135569   4.677   0.135   2.847  0.1117 -0.1975 -0.3398
 4718TIP3    H235570   4.764   0.257   2.866  0.4684 -0.5702  0.4538
 4719TIP3   OH235571   0.681   4.146   0.677  0.9369  0.0335 -0.1380
 4719TIP3    H135572   0.589   4.124   0.660  0.8005  1.4244 -1.3621
 4719TIP3    H235573   0.702   4.099   0.758 -0.2987 -1.7734 -0.7948
 4720TIP3   OH235574   3.394   6.200  13.016 -0.0765 -0.1791 -1.0209
 4720TIP3    H135575   3.373   6.113  12.983  0.3481 -0.4078 -0.6918
 4720TIP3    H235576   3.489   6.202  13.021 -0.1284 -0.7391  1.6905
 4721TIP3   OH235577   4.138   2.006  14.700  0.3145  0.1605  0.5827
 4721TIP3    H135578   4.220   1.972  14.664 -0.6705 -0.6011 -1.0177
 4721TIP3    H235579   4.107   2.068  14.634 -0.8106 -0.1617  0.7969
 4722TIP3   OH235580   6.208   6.570   3.611  0.2083 -0.1069  0.7884
 4722TIP3    H135581   6.204   6.581   3.516  0.4042  0.2857  0.8212
 4722TIP3    H235582   6.299   6.545   3.628 -0.2711 -2.1260  0.6931
 4723TIP3   OH235583   2.211   1.919   3.348 -0.3310 -0.6500 -0.0755
 4723TIP3    H135584   2.177   1.963   3.271 -0.0956  1.6155  1.0140
 4723TIP3    H235585   2.140   1.924   3.412  0.8789  1.4568  1.2330
 4724TIP3   OH235586   6.597   2.653   5.579  0.7930 -0.4665  0.1555
 4724TIP3    H135587   6.597   2.603   5.660  1.6659 -0.4949  0.1392
 4724TIP3    H235588   6.557   2.736   5.602  2.6738  0.2439  1.0685
 4725TIP3   OH235589   4.320   5.981   3.884 -0.4319 -0.0422  0.4359
 4725TIP3    H135590   4.294   6.053   3.826 -1.0769 -0.5727  0.0549
 4725TIP3    H235591   4.269   5.995   3.964  0.0513  0.3788  0.6779
 4726TIP3   OH235592   3.824   4.532  12.522 -0.1637  0.1738  0.3545
 4726TIP3    H135593   3.853   4.581  12.445  0.9677 -0.7287  0.1701
 4726TIP3    H235594   3.894   4.546  12.586  0.4039 -1.5046  0.1481
 4727TIP3   OH235595   5.410   2.708  14.919 -0.0329  0.4164 -0.0951
 4727TIP3    H135596   5.431   2.614  14.913 -1.0921  0.2151 -1.0854
 4727TIP3    H235597   5.495   2.752  14.908  0.7764 -0.4195  2.2676
 4728TIP3   OH235598   2.952   1.458  11.035  0.3470 -0.1578 -0.1677
 4728TIP3    H135599   3.011   1.470  10.961  0.0724  2.5009 -0.0432
 4728TIP3    H235600   2.889   1.529  11.027 -0.2207 -0.3359  2.1229
 4729TIP3   OH235601   4.810   2.225  15.348 -0.4292 -0.7996  0.1352
 4729TIP3    H135602   4.761   2.153  15.308 -1.5875 -1.2604  2.2558
 4729TIP3    H235603   4.881   2.182  15.396  0.3025 -0.3275 -0.4954
 4730TIP3   OH235604   1.015   0.009   2.567  0.1364  0.1695  0.0439
 4730TIP3    H135605   0.986   0.027   2.657 -2.0168 -1.1291 -0.3058
 4730TIP3    H235606   1.089  -0.050   2.578 -1.0455 -1.2161  1.0159
 4731TIP3   OH235607   0.927   0.081   5.158  0.1629  0.5221  0.3670
 4731TIP3    H135608   0.884   0.149   5.211 -0.8115  0.9519 -0.9248
 4731TIP3    H235609   1.007   0.123   5.126 -0.1516  0.8845  0.0412
 4732TIP3   OH235610   3.206   4.109  11.284  0.2449  0.2026 -0.3736
 4732TIP3    H135611   3.124   4.121  11.236  1.3455  0.8442 -2.1760
 4732TIP3    H235612   3.272   4.149  11.229  1.7648 -0.0997  1.1535
 4733TIP3   OH235613   1.891   6.785  13.404 -0.0051  0.4500 -0.2435
 4733TIP3    H135614   1.861   6.848  13.339 -1.2195  0.9015  0.7194
 4733TIP3    H235615   1.831   6.796  13.478  2.9119  1.8913  2.1179
 4734TIP3   OH235616   6.214   1.066   2.275  0.2022 -0.6390  0.0545
 4734TIP3    H135617   6.279   1.133   2.296  1.3792 -1.8214  0.3044
 4734TIP3    H235618   6.154   1.109   2.213  0.6261  0.7821  0.5871
 4735TIP3   OH235619   4.199   3.386   4.211  0.3097  0.3742  0.0340
 4735TIP3    H135620   4.267   3.334   4.254  0.5702  0.6548 -0.0366
 4735TIP3    H235621   4.162   3.440   4.281  0.4166  0.4932 -0.0006
 4736TIP3   OH235622   6.669   1.674   0.607 -0.0269 -0.1296 -0.3570
 4736TIP3    H135623   6.693   1.633   0.690  0.0116  0.2965 -0.1516
 4736TIP3    H235624   6.681   1.606   0.542  0.0016 -0.4522 -0.0179
 4737TIP3   OH235625   6.044   2.238  16.522 -0.2829 -0.0613 -0.7090
 4737TIP3    H135626   6.046   2.144  16.504 -2.9154 -0.2326 -0.4915
 4737TIP3    H235627   6.077   2.278  16.442  3.0096 -1.1310 -0.0357
 4738TIP3   OH235628   1.343   5.242  15.839 -0.5032  0.3934  0.5388
 4738TIP3    H135629   1.308   5.175  15.780 -0.0248  1.0302 -0.4922
 4738TIP3    H235630   1.430   5.261  15.805 -0.1562  0.6762  1.5519
 4739TIP3   OH235631   1.307   0.687  12.352  0.3190 -0.4391 -0.2542
 4739TIP3    H135632   1.375   0.695  12.418  0.6114 -2.6423 -0.2269
 4739TIP3    H235633   1.348   0.718  12.271  0.4683  0.7329  0.2418
 4740TIP3   OH235634   0.165   0.074   4.223  0.4766  0.2014  0.1054
 4740TIP3    H135635   0.100   0.039   4.285 -0.0051 -1.4588 -1.2552
 4740TIP3    H235636   0.239   0.098   4.278  0.0142 -1.0661  1.3622
 4741TIP3   OH235637   1.245   6.051  15.458 -0.3872 -0.3759  0.8843
 4741TIP3    H135638   1.277   6.001  15.383 -0.1161  0.5278  0.3907
 4741TIP3    H235639   1.325   6.077  15.504 -0.5396 -0.5875  1.2778
 4742TIP3   OH235640   2.288   1.823  14.356 -0.2640  0.5734 -1.0376
 4742TIP3    H135641   2.246   1.757  14.300  0.7641  0.1053 -1.2943
 4742TIP3    H235642   2.227   1.896  14.357 -1.4737 -0.4069 -0.6887
 4743TIP3   OH235643   1.607   1.840   5.668 -0.3690  0.0479  0.6284
 4743TIP3    H135644   1.677   1.779   5.646  0.7064  1.1618  0.8926
 4743TIP3    H235645   1.601   1.835   5.764 -1.7020 -1.1477  0.5203
 4744TIP3   OH235646   1.554   0.932  13.841 -0.2441  0.5163  0.1923
 4744TIP3    H135647   1.462   0.948  13.857  0.1282  0.9294  2.1024
 4744TIP3    H235648   1.570   0.844  13.875 -0.1458 -0.0057 -1.1415
 4745TIP3   OH235649   2.555   5.752   0.261  0.3242 -0.2305 -0.3748
 4745TIP3    H135650   2.649   5.737   0.247  0.2938 -1.4766  0.5706
 4745TIP3    H235651   2.530   5.813   0.192  1.9339  0.5309 -0.3349
 4746TIP3   OH235652   5.493   5.487  14.860  1.0378  0.4137  0.2259
 4746TIP3    H135653   5.491   5.514  14.952  2.7464  0.6925  0.2105
 4746TIP3    H235654   5.427   5.542  14.818  0.6239  0.6715  1.1672
 4747TIP3   OH235655   3.315   4.349  12.295 -0.1447  0.1634 -0.6713
 4747TIP3    H135656   3.251   4.419  12.306 -1.4895 -0.8925 -1.4184
 4747TIP3    H235657   3.268   4.269  12.319  0.1786 -0.8906 -3.1969
 4748TIP3   OH235658   5.196   2.966  15.862 -0.6546 -0.0248 -0.1189
 4748TIP3    H135659   5.232   2.879  15.852 -1.9058 -0.6097  0.2076
 4748TIP3    H235660   5.201   2.983  15.956 -0.4496  0.2463 -0.1767
 4749TIP3   OH235661   2.291   0.984  13.149  0.9352  0.6633  0.3175
 4749TIP3    H135662   2.311   1.005  13.058 -1.2243 -0.4145 -0.4512
 4749TIP3    H235663   2.371   0.943  13.182  1.2584 -0.2673 -1.5348
 4750TIP3   OH235664   0.095   0.970  11.853  0.0497  0.2033 -0.0839
 4750TIP3    H135665   0.083   0.908  11.925 -0.9750 -1.5135 -1.6499
 4750TIP3    H235666   0.189   0.986  11.851  0.4079 -1.6455  0.1163
 4751TIP3   OH235667   4.734   4.486  14.453  0.0106  0.1442  0.4985
 4751TIP3    H135668   4.745   4.470  14.359 -0.3897  1.4126  0.2219
 4751TIP3    H235669   4.677   4.563  14.458  1.5436  1.2563  1.7526
 4752TIP3   OH235670   0.413   3.948  11.504  0.6001  0.0948 -0.0311
 4752TIP3    H135671   0.476   3.889  11.548 -0.6432 -0.7362  0.7025
 4752TIP3    H235672   0.429   3.934  11.411  1.8976  0.3483  0.1249
 4753TIP3   OH235673   6.679   5.286  13.998 -0.4931 -0.0423  0.8528
 4753TIP3    H135674   6.669   5.324  14.085 -1.0318  1.3348  0.2259
 4753TIP3    H235675   6.754   5.333  13.960 -0.5784 -0.2731  0.3968
 4754TIP3   OH235676   1.836   3.809  12.675  0.5043  0.8670 -0.0043
 4754TIP3    H135677   1.783   3.732  12.653 -0.4569  0.9095  1.8887
 4754TIP3    H235678   1.796   3.880  12.626 -0.5704  0.7032  0.6027
 4755TIP3   OH235679   2.635   6.587  14.886  0.2086 -0.2062 -0.4580
 4755TIP3    H135680   2.721   6.582  14.926  1.5408  2.9273 -2.5297
 4755TIP3    H235681   2.587   6.650  14.939 -0.4820 -1.1737  0.0921
 4756TIP3   OH235682   1.277   4.426   6.344  0.0729 -0.4260 -0.1090
 4756TIP3    H135683   1.277   4.351   6.405  0.8627 -3.4258 -3.4423
 4756TIP3    H235684   1.369   4.435   6.319 -0.3556  0.0066 -1.5950
 4757TIP3   OH235685   4.797   4.136  15.762 -0.1432 -0.1291 -0.1547
 4757TIP3    H135686   4.750   4.203  15.813  0.5634 -0.6659  1.2721
 4757TIP3    H235687   4.730   4.095  15.708 -1.0519  0.1249  0.7416
 4758TIP3   OH235688   6.613   0.148   6.783  0.0825  0.0384 -0.2949
 4758TIP3    H135689   6.612   0.241   6.758 -1.9561 -0.2282 -1.4424
 4758TIP3    H235690   6.661   0.105   6.711  0.9636  0.1670  0.2009
 4759TIP3   OH235691   0.178   3.985   1.974 -0.0107 -0.0615  0.4980
 4759TIP3    H135692   0.254   3.927   1.980  0.6245  0.3661 -2.1174
 4759TIP3    H235693   0.103   3.926   1.970  0.2329 -0.5178  1.8861
 4760TIP3   OH235694   1.202   0.233   2.963  0.1063 -0.1649 -0.1526
 4760TIP3    H135695   1.145   0.227   2.886  0.2810 -0.3599 -0.2663
 4760TIP3    H235696   1.266   0.163   2.951 -0.1524 -0.5054  0.4087
 4761TIP3   OH235697   6.262   5.205  15.187  0.0417 -0.2446  0.3967
 4761TIP3    H135698   6.280   5.116  15.157  0.6048  0.1754 -0.5811
 4761TIP3    H235699   6.321   5.217  15.261 -1.8975 -1.5552  2.2638
 4762TIP3   OH235700   2.003   2.703   4.374  0.3294 -0.2884 -0.5997
 4762TIP3    H135701   2.029   2.794   4.389  0.3416 -0.4872  0.6494
 4762TIP3    H235702   2.057   2.674   4.300  3.3114 -0.5043  1.5089
 4763TIP3   OH235703   2.133   3.426  14.472 -0.1399 -0.2218 -0.2856
 4763TIP3    H135704   2.216   3.411  14.426 -0.0679 -1.4376  0.2225
 4763TIP3    H235705   2.136   3.519  14.496  2.4168 -0.8136  2.2334
 4764TIP3   OH235706   5.278   3.166  12.855 -0.6649  0.2333 -0.0351
 4764TIP3    H135707   5.354   3.192  12.804  0.9139 -0.0906  2.0414
 4764TIP3    H235708   5.289   3.072  12.868 -0.0895  0.5741  2.2873
 4765TIP3   OH235709   4.089   4.965  15.491 -0.2039 -0.0209 -0.1134
 4765TIP3    H135710   4.019   4.964  15.556 -0.5428 -0.7458 -0.4766
 4765TIP3    H235711   4.086   5.054  15.454 -1.5761 -0.3168 -0.7979
 4766TIP3   OH235712   2.724   2.848   5.192 -0.0599 -0.0992 -0.3035
 4766TIP3    H135713   2.673   2.768   5.196 -0.3234  0.1032  0.5912
 4766TIP3    H235714   2.779   2.846   5.271  0.7618  0.0557 -0.8551
 4767TIP3   OH235715   0.483   6.700   2.827  0.6804  0.2562  0.1560
 4767TIP3    H135716   0.544   6.736   2.763 -1.1639 -0.0699 -1.8827
 4767TIP3    H235717   0.423   6.773   2.847 -0.4527 -0.4279 -0.6748
 4768TIP3   OH235718   2.113   3.245  11.357  0.2745 -0.1476 -0.2282
 4768TIP3    H135719   2.161   3.207  11.284 -3.1415  0.2212 -2.9172
 4768TIP3    H235720   2.078   3.170  11.405  1.0698 -0.3676  0.0319
 4769TIP3   OH235721   3.654   1.647   2.381 -0.1909  0.4956 -0.3519
 4769TIP3    H135722   3.672   1.605   2.465  0.2803 -0.2213 -0.8044
 4769TIP3    H235723   3.724   1.711   2.370  0.2843 -0.0748 -0.6394
 4770TIP3   OH235724   0.621   0.849   2.011 -0.2665  0.2896  0.1305
 4770TIP3    H135725   0.668   0.825   1.931 -1.4851  1.5178 -1.0154
 4770TIP3    H235726   0.672   0.921   2.049 -0.9365  1.3534 -0.8975
 4771TIP3   OH235727   3.416   1.984   3.768  0.1011 -0.5855 -0.4964
 4771TIP3    H135728   3.321   1.969   3.764  0.1195 -1.1276  0.7291
 4771TIP3    H235729   3.454   1.909   3.721  0.0042 -2.0225  1.5741
 4772TIP3   OH235730   1.107   2.254   0.468 -0.3578 -1.4433 -0.4237
 4772TIP3    H135731   1.085   2.182   0.409 -1.6613 -1.6741  0.2826
 4772TIP3    H235732   1.022   2.288   0.496  0.1605  1.6606 -2.2233
 4773TIP3   OH235733   1.430   2.339   1.638  0.0470  0.1028  0.5186
 4773TIP3    H135734   1.358   2.368   1.694 -1.4119  0.8352 -1.6081
 4773TIP3    H235735   1.399   2.355   1.549  1.8487 -1.9527 -0.5784
 4774TIP3   OH235736   4.210   0.229   5.562 -0.2972 -0.2254  0.6054
 4774TIP3    H135737   4.254   0.308   5.531 -1.1239  0.3060  0.7543
 4774TIP3    H235738   4.156   0.201   5.488 -0.2650 -0.4625  0.6696
 4775TIP3   OH235739   4.005   4.189  15.320  0.3402 -0.1580  0.8200
 4775TIP3    H135740   3.990   4.106  15.364  1.8447 -1.1888 -0.5029
 4775TIP3    H235741   3.924   4.206  15.272  0.1733 -1.0878  0.7640
 4776TIP3   OH235742   3.807   4.297   3.252  0.6627  0.8871 -0.7644
 4776TIP3    H135743   3.820   4.295   3.347  1.3502 -1.2308 -0.8618
 4776TIP3    H235744   3.896   4.306   3.217  0.5198  0.5624 -1.2113
 4777TIP3   OH235745   0.363   1.181   4.479 -0.4337 -0.4048 -0.5875
 4777TIP3    H135746   0.405   1.113   4.426  0.6563  0.4362 -0.8457
 4777TIP3    H235747   0.293   1.214   4.424 -0.4528 -0.7688 -0.7870
 4778TIP3   OH235748   5.779   6.611  12.767 -0.0554  0.6284 -0.2015
 4778TIP3    H135749   5.738   6.610  12.680  1.0099  1.7044 -0.7551
 4778TIP3    H235750   5.706   6.600  12.828 -0.9213  0.6088 -1.2079
 4779TIP3   OH235751   6.210   3.733  16.897 -0.2579  0.4113  0.3111
 4779TIP3    H135752   6.257   3.727  16.814  0.8962  1.4271  0.8741
 4779TIP3    H235753   6.217   3.824  16.922 -3.7764  0.9804 -0.2607
 4780TIP3   OH235754   0.315   5.939  14.124 -0.3357  0.6919  0.2480
 4780TIP3    H135755   0.223   5.917  14.136 -0.0044 -0.6017  0.5172
 4780TIP3    H235756   0.325   6.024  14.167 -1.0855  0.1561  1.5304
 4781TIP3   OH235757   1.797   6.478  11.378 -0.2456 -0.3673  0.6099
 4781TIP3    H135758   1.855   6.408  11.409  0.1432 -0.9048 -1.1980
 4781TIP3    H235759   1.717   6.467  11.430  0.4652 -0.9869  1.6229
 4782TIP3   OH235760   0.928   4.714   0.304 -0.2041 -0.4998  0.0326
 4782TIP3    H135761   0.920   4.665   0.222  2.1239  0.8845 -1.1079
 4782TIP3    H235762   0.990   4.664   0.356  1.0181  0.3798 -0.5274
 4783TIP3   OH235763   6.716   3.225   4.414  0.6676  0.3644 -0.0608
 4783TIP3    H135764   6.651   3.221   4.483  1.2768 -0.0685  0.4999
 4783TIP3    H235765   6.694   3.152   4.356 -1.1096  1.9425 -1.5103
 4784TIP3   OH235766   3.686   4.567  14.701 -0.1131  0.3860  0.7479
 4784TIP3    H135767   3.642   4.507  14.641  0.2620  2.0416 -1.3286
 4784TIP3    H235768   3.623   4.581  14.771 -0.6833 -1.4366  0.6573
 4785TIP3   OH235769   2.479   4.206  16.377  0.2954 -0.1770 -0.2980
 4785TIP3    H135770   2.434   4.190  16.295 -0.7578 -2.0474  0.5753
 4785TIP3    H235771   2.414   4.250  16.432 -0.6464 -2.9843  1.0049
 4786TIP3   OH235772   3.154   5.625  16.273 -0.1826  0.4867 -0.2405
 4786TIP3    H135773   3.203   5.553  16.313 -0.2045  0.3022 -0.5450
 4786TIP3    H235774   3.086   5.647  16.337  1.5686  2.1513  1.1540
 4787TIP3   OH235775   6.563   6.206  17.057  0.4813 -0.2023 -0.3403
 4787TIP3    H135776   6.635   6.234  17.114 -1.6625  2.0957  1.4745
 4787TIP3    H235777   6.509   6.151  17.113 -0.7912  0.6903 -0.6652
 4788TIP3   OH235778   5.660   0.262  14.170 -0.6006  0.4188 -0.5633
 4788TIP3    H135779   5.706   0.181  14.188  0.0445  0.3756 -2.2344
 4788TIP3    H235780   5.616   0.284  14.252  0.7321 -0.6162  0.4635
 4789TIP3   OH235781   5.067   4.097  12.297 -0.2089  0.2609 -0.6663
 4789TIP3    H135782   5.002   4.073  12.363  1.4969  0.1201  1.0456
 4789TIP3    H235783   5.081   4.191  12.309 -1.9839  0.9047 -2.8660
 4790TIP3   OH235784   2.073   0.008  11.800  0.5627 -0.3937  0.3223
 4790TIP3    H135785   1.998  -0.051  11.815  0.0895  0.1921  0.2749
 4790TIP3    H235786   2.062   0.037  11.710  0.5270  0.1447  0.4998
 4791TIP3   OH235787   4.875   6.723   3.127 -0.3722 -0.1962 -0.1595
 4791TIP3    H135788   4.966   6.698   3.146 -0.8629 -2.0568 -0.1275
 4791TIP3    H235789   4.822   6.665   3.181 -1.6060  0.7102 -0.3501
 4792TIP3   OH235790   3.782   2.948  11.982 -0.0233  0.4650 -0.9740
 4792TIP3    H135791   3.871   2.966  12.012 -0.1586 -1.3140  0.7376
 4792TIP3    H235792   3.729   3.018  12.019  0.0493 -0.8987  1.9791
 4793TIP3   OH235793   3.984   5.014   2.923 -0.6188 -0.5121 -0.1759
 4793TIP3    H135794   3.898   5.006   2.966 -0.5386 -0.4348 -0.0034
 4793TIP3    H235795   4.033   4.938   2.954 -0.6870 -0.6574 -0.4180
 4794TIP3   OH235796   1.774   5.789   5.394 -0.0798  0.1017  0.2013
 4794TIP3    H135797   1.848   5.745   5.435  0.0811  0.7572  0.6255
 4794TIP3    H235798   1.700   5.771   5.452 -1.2938 -4.0482 -2.2414
 4795TIP3   OH235799   4.701   6.131   0.750 -0.2129 -0.3380 -0.2623
 4795TIP3    H135800   4.642   6.206   0.755 -2.2059 -1.8635  0.4147
 4795TIP3    H235801   4.654   6.067   0.698  1.8043 -0.8768 -1.5194
 4796TIP3   OH235802   0.624   0.586  13.508 -0.2920  0.0533 -0.2874
 4796TIP3    H135803   0.609   0.515  13.571  0.6801 -0.3621 -0.5027
 4796TIP3    H235804   0.569   0.658  13.539  1.1920  0.3644  1.8644
 4797TIP3   OH235805   3.543   1.657   0.677  0.5006 -0.2581  0.1113
 4797TIP3    H135806   3.554   1.585   0.739 -2.6308 -1.0064 -0.0413
 4797TIP3    H235807   3.605   1.639   0.607  0.4403 -2.3111  0.5389
 4798TIP3   OH235808   0.122   4.978  12.048  0.3388 -0.0546  0.2273
 4798TIP3    H135809   0.171   5.028  11.983 -1.4681  0.1203 -1.0543
 4798TIP3    H235810   0.116   4.890  12.012  0.3927 -0.2879  0.7699
 4799TIP3   OH235811   4.347   0.790  16.410  0.0184 -0.1743 -0.0689
 4799TIP3    H135812   4.287   0.770  16.482 -0.4881 -0.1875 -0.4887
 4799TIP3    H235813   4.294   0.838  16.347  1.0846  2.0778  0.6621
 4800TIP3   OH235814   4.831   2.919   0.996  0.4778 -0.1930 -0.3024
 4800TIP3    H135815   4.817   2.838   0.947  1.7001  0.3997 -1.7322
 4800TIP3    H235816   4.910   2.902   1.048  0.6868  0.0322 -0.5395
 4801TIP3   OH235817   4.352   1.523  16.689 -0.2158  0.6516 -0.2341
 4801TIP3    H135818   4.353   1.547  16.782 -0.2942 -3.4278  1.0077
 4801TIP3    H235819   4.430   1.565  16.653 -0.4674  2.7741  1.4683
 4802TIP3   OH235820   4.323   3.714   4.883  0.1687 -0.1936  0.0303
 4802TIP3    H135821   4.267   3.673   4.817 -0.9810  0.8213  0.3363
 4802TIP3    H235822   4.270   3.713   4.963  1.1739 -0.5517  0.7172
 4803TIP3   OH235823   4.377   4.419   1.648 -0.4043  0.3201  0.3609
 4803TIP3    H135824   4.462   4.451   1.678 -0.4272 -0.2499  1.0726
 4803TIP3    H235825   4.327   4.405   1.728  0.1881 -3.1080  0.2541
 4804TIP3   OH235826   2.109   5.333  15.298 -0.0604 -0.3235  0.1744
 4804TIP3    H135827   2.184   5.273  15.294  0.0236 -0.1758 -3.5968
 4804TIP3    H235828   2.034   5.277  15.314  0.4454 -0.9372  0.4457
 4805TIP3   OH235829   0.067   0.673  16.496 -0.5586  0.0758  0.0838
 4805TIP3    H135830   0.082   0.712  16.582 -0.1525  1.0183 -0.3961
 4805TIP3    H235831  -0.018   0.707  16.469  0.5728  2.1519 -1.1026
 4806TIP3   OH235832   5.198   5.435  12.510  0.1849  0.0907 -0.8490
 4806TIP3    H135833   5.105   5.451  12.526  0.2073 -0.6647  0.0281
 4806TIP3    H235834   5.200   5.391  12.425 -0.3085 -0.4670 -0.5770
 4807TIP3   OH235835   1.656   0.185   1.221  0.1371  0.6560  0.0086
 4807TIP3    H135836   1.730   0.150   1.172 -1.4555  0.2550 -2.2309
 4807TIP3    H235837   1.633   0.115   1.283  1.3610  0.6533  0.4941
 4808TIP3   OH235838   2.429   1.813  15.662  0.4476 -0.2425 -0.3957
 4808TIP3    H135839   2.444   1.764  15.581  1.4277  0.7873 -0.8648
 4808TIP3    H235840   2.341   1.848  15.653 -0.0083 -1.3355 -0.3506
 4809TIP3   OH235841   2.074   2.821  11.746  0.5634  0.2350  0.2606
 4809TIP3    H135842   2.018   2.769  11.804 -0.8362 -0.0739 -1.2871
 4809TIP3    H235843   2.072   2.909  11.784 -0.5976  0.1196  0.5143
 4810TIP3   OH235844   6.751   3.330  15.200 -0.1409  0.1066  0.2430
 4810TIP3    H135845   6.757   3.415  15.156 -0.2301 -0.4182 -0.8156
 4810TIP3    H235846   6.810   3.273  15.150 -0.9308 -0.7389  0.2471
 4811TIP3   OH235847   5.971   3.961  13.683  0.2136 -0.2821 -0.0582
 4811TIP3    H135848   5.965   3.889  13.746  0.1008  0.6970  1.0718
 4811TIP3    H235849   6.064   3.964  13.660  0.4190 -0.0498  0.7786
 4812TIP3   OH235850   0.026   0.113   2.545  0.7767  0.4430 -0.5039
 4812TIP3    H135851   0.059   0.076   2.463  1.4198 -1.7115  0.6432
 4812TIP3    H235852  -0.059   0.072   2.558  1.6824 -1.1061  1.0022
 4813TIP3   OH235853   1.537   3.086  10.405  0.0976 -0.7813  0.1554
 4813TIP3    H135854   1.452   3.066  10.366  0.4777  0.1372 -1.1890
 4813TIP3    H235855   1.526   3.172  10.444  0.3647 -0.7358  0.1327
 4814TIP3   OH235856   4.059   3.147   5.567 -0.1536 -0.7267 -0.0364
 4814TIP3    H135857   3.964   3.155   5.558  0.1746  2.0902 -4.1076
 4814TIP3    H235858   4.087   3.230   5.606  0.7248 -0.9105 -0.2357
 4815TIP3   OH235859   3.041   5.860   5.586 -0.5634 -0.2919 -0.1868
 4815TIP3    H135860   2.997   5.837   5.504  1.3423  0.8975 -1.6229
 4815TIP3    H235861   2.983   5.925   5.626 -0.7339  0.3756 -1.4498
 4816TIP3   OH235862   3.012   5.526   3.894 -0.2608 -0.0382  0.4815
 4816TIP3    H135863   3.063   5.458   3.850 -0.9445 -0.3351  0.1427
 4816TIP3    H235864   3.066   5.605   3.886 -0.9366  0.2406 -2.1077
 4817TIP3   OH235865   2.184   5.423  16.649 -0.2396  0.1609  0.3825
 4817TIP3    H135866   2.170   5.496  16.709  0.4485 -0.8251  1.8178
 4817TIP3    H235867   2.143   5.348  16.692  3.1438 -1.3214  1.4206
 4818TIP3   OH235868   0.076   2.980  12.986  0.4060  0.5207 -0.6717
 4818TIP3    H135869   0.092   2.907  13.047  1.1720  1.7075  0.5863
 4818TIP3    H235870   0.142   2.969  12.918  0.9896  0.4450 -0.1027
 4819TIP3   OH235871   5.468   4.988  13.105  0.3706  0.2897  0.1375
 4819TIP3    H135872   5.512   4.904  13.101 -1.5018 -0.7664  0.4990
 4819TIP3    H235873   5.487   5.029  13.021 -0.3252 -1.3858 -0.8821
 4820TIP3   OH235874   4.561   4.489   1.277  0.2493 -0.2820 -0.0320
 4820TIP3    H135875   4.616   4.514   1.352 -1.3441  3.0774  0.1840
 4820TIP3    H235876   4.612   4.514   1.200  0.6248 -0.9105  0.0026
 4821TIP3   OH235877   1.298   5.818   4.709  0.0208 -0.1773 -0.1083
 4821TIP3    H135878   1.332   5.797   4.622  1.0789  0.2766  0.1819
 4821TIP3    H235879   1.208   5.846   4.693  0.2501  0.0389 -1.0781
 4822TIP3   OH235880   3.470   2.502   5.416  0.1543 -0.3423 -0.5931
 4822TIP3    H135881   3.502   2.560   5.347 -0.2580  1.6062  0.7451
 4822TIP3    H235882   3.394   2.459   5.379 -0.3533  1.0354 -1.2177
 4823TIP3   OH235883   1.278   5.318   5.484 -0.2673  0.1376 -0.1895
 4823TIP3    H135884   1.349   5.291   5.542  0.6706  0.4991 -1.1379
 4823TIP3    H235885   1.317   5.315   5.396 -1.1029  1.4297 -0.6201
 4824TIP3   OH235886   5.467   5.970  15.991 -0.1394 -0.6353 -0.1352
 4824TIP3    H135887   5.542   5.918  15.963 -0.0101 -1.1617  1.1223
 4824TIP3    H235888   5.410   5.908  16.037 -1.4541 -0.2896 -1.2024
 4825TIP3   OH235889   1.742   1.544   2.074  0.1231 -0.2762  0.0715
 4825TIP3    H135890   1.701   1.550   1.987  0.6949 -1.8824 -0.3292
 4825TIP3    H235891   1.819   1.601   2.068 -1.4157  2.0104  0.5303
 4826TIP3   OH235892   3.618   1.495  16.380  0.2729  0.0573  0.1406
 4826TIP3    H135893   3.618   1.458  16.291 -1.5227  1.5198 -0.5235
 4826TIP3    H235894   3.703   1.468  16.416  0.6073 -1.5053 -1.5988
 4827TIP3   OH235895   6.151   2.585  16.082 -0.0756  0.2091  0.0170
 4827TIP3    H135896   6.224   2.625  16.035 -0.7099  0.8059 -0.4920
 4827TIP3    H235897   6.113   2.657  16.133 -0.3479 -0.0780  0.2214
 4828TIP3   OH235898   1.262   3.415   3.844 -0.6162 -0.1254 -0.1430
 4828TIP3    H135899   1.277   3.507   3.825 -1.0162  0.2064  1.0596
 4828TIP3    H235900   1.174   3.412   3.883 -0.0579 -0.7930  1.1467
 4829TIP3   OH235901   5.916   4.935  13.768  0.1649  0.3657 -0.2465
 4829TIP3    H135902   5.961   4.930  13.852  2.9733 -0.0726 -1.6364
 4829TIP3    H235903   5.860   4.857  13.765  1.6622 -0.7735  0.4026
 4830TIP3   OH235904   6.100   6.548  14.029  0.5082 -0.1279  0.6276
 4830TIP3    H135905   6.106   6.576  14.120 -3.8102 -0.7883  1.3422
 4830TIP3    H235906   6.053   6.464  14.033  0.5443 -0.3876 -2.1918
 4831TIP3   OH235907   5.149   5.131  16.638  0.0853 -0.6728  0.0335
 4831TIP3    H135908   5.129   5.063  16.702  1.1036 -1.3564 -0.3516
 4831TIP3    H235909   5.198   5.086  16.569  0.7800  0.4334 -0.2259
 4832TIP3   OH235910   0.648   2.104   3.170  0.2867 -0.4023 -0.1777
 4832TIP3    H135911   0.720   2.075   3.226  3.1388  1.3715 -2.5917
 4832TIP3    H235912   0.602   2.169   3.223  1.5964 -0.2790  0.8678
 4833TIP3   OH235913   3.999   4.830   2.080  0.3481 -0.0062  0.3513
 4833TIP3    H135914   4.008   4.879   1.998 -2.1375 -0.4547 -0.2621
 4833TIP3    H235915   4.011   4.895   2.149  1.1242  0.6368 -0.3595
 4834TIP3   OH235916   0.575   0.952  14.701 -0.1331 -0.2785  0.0134
 4834TIP3    H135917   0.616   0.981  14.783 -1.3909 -1.8601  1.2540
 4834TIP3    H235918   0.576   0.857  14.706  0.4655 -0.4383 -2.2094
 4835TIP3   OH235919   2.920   5.148  14.547  0.4526  0.4201  0.2530
 4835TIP3    H135920   2.987   5.215  14.559  0.5095  0.4563 -0.2475
 4835TIP3    H235921   2.887   5.131  14.635 -1.7051  3.2457  0.1345
 4836TIP3   OH235922   0.642   4.226   1.779  0.1968  0.1054  0.7364
 4836TIP3    H135923   0.615   4.278   1.703  1.0353  0.8528  0.9234
 4836TIP3    H235924   0.702   4.161   1.744 -1.8198 -1.6192  0.3058
 4837TIP3   OH235925   5.159   0.687  12.588  0.0341  0.0677  0.2153
 4837TIP3    H135926   5.224   0.631  12.632  0.6599 -0.2896 -1.1234
 4837TIP3    H235927   5.082   0.683  12.645  0.7032 -0.6497  1.1018
 4838TIP3   OH235928   4.681   1.748  12.525  0.3007  0.1978 -0.2490
 4838TIP3    H135929   4.731   1.803  12.585  3.1715 -0.7429 -1.5420
 4838TIP3    H235930   4.656   1.806  12.454  1.8151  0.2505 -0.7783
 4839TIP3   OH235931   1.231   5.559   3.612 -0.3329  0.6613  0.0161
 4839TIP3    H135932   1.243   5.603   3.696  0.0987  0.2750  0.1609
 4839TIP3    H235933   1.318   5.527   3.589 -0.2873  1.4672 -0.9818
 4840TIP3   OH235934   3.661   3.016   3.166 -0.2919 -0.3659 -0.8503
 4840TIP3    H135935   3.754   3.041   3.161 -0.5959  0.5979 -2.2143
 4840TIP3    H235936   3.653   2.973   3.251  1.3741 -0.3426 -0.6378
 4841TIP3   OH235937   2.605   0.596   0.904 -0.1662 -0.6973  0.0571
 4841TIP3    H135938   2.530   0.616   0.960 -0.0472 -0.5384  0.1611
 4841TIP3    H235939   2.579   0.626   0.817 -0.2891 -0.7989  0.0578
 4842TIP3   OH235940   3.440   1.901   5.457  0.3752  0.5106 -0.7534
 4842TIP3    H135941   3.485   1.914   5.540 -0.0085  2.0471 -0.7567
 4842TIP3    H235942   3.510   1.875   5.396  0.8828  0.6754 -0.2487
 4843TIP3   OH235943   4.315   4.940  14.014 -0.6459 -0.0745  0.7366
 4843TIP3    H135944   4.277   5.027  14.030 -0.4179  0.2691 -0.4664
 4843TIP3    H235945   4.407   4.958  13.996 -0.2841 -0.7249  1.8474
 4844TIP3   OH235946   1.120   4.205   4.926  0.2882  0.0434 -0.2924
 4844TIP3    H135947   1.054   4.260   4.884  0.3807  1.1219  0.8881
 4844TIP3    H235948   1.168   4.266   4.983  0.0972 -1.3539  1.4418
 4845TIP3   OH235949   6.315   5.366  13.177  0.0142  0.0440 -0.7943
 4845TIP3    H135950   6.246   5.427  13.153  0.9464  1.0934 -0.8765
 4845TIP3    H235951   6.357   5.407  13.253  0.7787 -0.3890 -0.9746
 4846TIP3   OH235952   0.937   0.024  13.042  0.1945  0.2062  0.0168
 4846TIP3    H135953   0.988  -0.024  13.108 -0.9394  0.8803  1.4318
 4846TIP3    H235954   0.875   0.076  13.093 -2.3440 -1.0182 -1.6164
 4847TIP3   OH235955   2.267   2.079   3.689  0.4852  0.2244  0.3776
 4847TIP3    H135956   2.279   2.082   3.784 -0.7565 -3.5653  0.8447
 4847TIP3    H235957   2.301   1.993   3.664 -1.4597  0.0741 -2.1872
 4848TIP3   OH235958   3.974   4.856   5.685 -0.4277  0.3861 -0.2201
 4848TIP3    H135959   3.931   4.940   5.702 -0.1966  0.3582  0.5934
 4848TIP3    H235960   3.903   4.792   5.682 -0.5402  0.4962  0.0212
 4849TIP3   OH235961   6.574   0.011   4.849  0.0051 -0.6075 -0.6282
 4849TIP3    H135962   6.539   0.034   4.936 -1.1765 -1.4748 -0.8558
 4849TIP3    H235963   6.668   0.002   4.864  0.1383  1.4299  0.0827
 4850TIP3   OH235964   6.079   1.893  15.668 -0.3602 -0.5078 -0.3652
 4850TIP3    H135965   6.003   1.931  15.712 -0.1181 -0.6599  0.1923
 4850TIP3    H235966   6.142   1.878  15.738  0.7218  0.8820 -0.9995
 4851TIP3   OH235967   2.685   2.627  14.822  0.1489  0.4100 -0.8767
 4851TIP3    H135968   2.719   2.715  14.841  0.1401  0.4119 -0.8695
 4851TIP3    H235969   2.656   2.594  14.907 -0.4614  0.6574 -0.9840
 4852TIP3   OH235970   5.900   3.110   1.337 -0.4685  0.1204 -0.3829
 4852TIP3    H135971   5.842   3.162   1.282 -1.3799 -0.2850  0.1647
 4852TIP3    H235972   5.850   3.030   1.354 -1.4351  1.3369  3.2985
 4853TIP3   OH235973   3.772   3.971  14.212 -0.2703  0.5639 -0.8069
 4853TIP3    H135974   3.825   3.891  14.208 -1.9067 -0.5580 -1.3169
 4853TIP3    H235975   3.724   3.963  14.295  0.2780  1.5084 -0.3932
 4854TIP3   OH235976   5.706   5.727  11.767  0.4451 -0.1617 -0.0034
 4854TIP3    H135977   5.666   5.814  11.763  1.8963  0.5066 -3.0967
 4854TIP3    H235978   5.631   5.667  11.769 -0.6746  1.1212 -0.8070
 4855TIP3   OH235979   0.685   1.090  13.237 -0.2264 -0.1739  0.6649
 4855TIP3    H135980   0.680   1.186  13.234  0.3583 -0.1233  1.1353
 4855TIP3    H235981   0.766   1.072  13.284  1.1420 -0.8948 -1.7596
 4856TIP3   OH235982   2.509   0.760   3.852  0.1226  0.1088  0.5565
 4856TIP3    H135983   2.446   0.702   3.895  1.0694 -0.3345  1.3749
 4856TIP3    H235984   2.455   0.814   3.794 -0.8053 -1.4788 -0.1309
 4857TIP3   OH235985   4.674   3.185   0.348 -0.0081 -0.0610 -0.5012
 4857TIP3    H135986   4.725   3.133   0.411  1.8383  1.3598 -0.7431
 4857TIP3    H235987   4.669   3.128   0.271  1.4424 -0.1872 -0.5467
 4858TIP3   OH235988   4.025   3.866  13.826  0.2771 -0.4476  0.3416
 4858TIP3    H135989   3.993   3.807  13.757  1.0320  1.3641 -1.6809
 4858TIP3    H235990   3.951   3.922  13.847 -0.3096 -1.7566  1.9461
 4859TIP3   OH235991   1.428   6.349  11.791 -0.1294 -0.3713 -0.4957
 4859TIP3    H135992   1.348   6.398  11.770 -0.0651 -0.9073 -2.1871
 4859TIP3    H235993   1.418   6.324  11.883 -1.2285  0.8054 -0.2702
 4860TIP3   OH235994   1.979   5.014   4.840  0.5089 -0.4847 -0.2052
 4860TIP3    H135995   1.928   5.004   4.919 -0.2809  0.8881 -0.5083
 4860TIP3    H235996   1.929   4.969   4.772  0.5477 -0.5821 -0.1689
 4861TIP3   OH235997   3.054   3.319  11.220 -0.1886  0.0192 -0.2604
 4861TIP3    H135998   3.106   3.242  11.195 -1.3228 -0.7069 -0.4717
 4861TIP3    H235999   3.111   3.394  11.200  0.3181 -0.6843 -1.6088
 4862TIP3   OH236000   3.090   1.777   2.747 -0.1235 -0.4648  0.7545
 4862TIP3    H136001   3.049   1.699   2.783 -2.0910  0.1243 -0.1090
 4862TIP3    H236002   3.036   1.801   2.671 -0.4645  2.5295  1.7846
 4863TIP3   OH236003   2.413   6.058   5.185 -0.7658 -0.6319 -0.3626
 4863TIP3    H136004   2.324   6.070   5.217  0.2365  0.8921  2.0939
 4863TIP3    H236005   2.415   5.969   5.150 -3.3333 -0.5415 -0.8701
 4864TIP3   OH236006   6.011   0.572   3.150  0.8596  0.1361 -0.1848
 4864TIP3    H136007   5.974   0.582   3.238 -1.7490  2.6159 -1.4065
 4864TIP3    H236008   6.079   0.638   3.144  1.2667 -0.2556  0.0476
 4865TIP3   OH236009   0.517   1.276  14.877  0.0416  0.3876 -0.6747
 4865TIP3    H136010   0.563   1.197  14.907  0.6010  0.6049 -0.9330
 4865TIP3    H236011   0.474   1.310  14.955 -0.8788 -0.6128 -0.7317
 4866TIP3   OH236012   5.015   2.278  13.112 -0.3312 -0.3007  0.0228
 4866TIP3    H136013   4.961   2.354  13.135 -1.6204 -0.8614 -0.9876
 4866TIP3    H236014   4.992   2.260  13.021  1.5093 -0.6522 -0.4020
 4867TIP3   OH236015   1.056   1.609   0.360  0.0017  0.5036 -0.3534
 4867TIP3    H136016   1.111   1.614   0.282  1.7942  0.7355  0.8575
 4867TIP3    H236017   0.988   1.674   0.346  0.1539  0.3795 -1.8076
 4868TIP3   OH236018   2.499   6.149  11.590 -0.4571  0.3448  0.3090
 4868TIP3    H136019   2.548   6.167  11.510 -1.0968  1.9877  0.2436
 4868TIP3    H236020   2.519   6.223  11.648 -0.8047 -0.2971  1.2772
 4869TIP3   OH236021   6.780   3.034   5.326 -0.2249  0.2412 -0.0332
 4869TIP3    H136022   6.863   2.987   5.334 -1.1762 -1.3823  0.7132
 4869TIP3    H236023   6.716   2.967   5.302 -1.3849  1.4145 -0.3330
 4870TIP3   OH236024   3.805   2.025   5.301  0.5952 -0.3631  0.4145
 4870TIP3    H136025   3.861   1.981   5.237  1.9810 -0.7073  1.7976
 4870TIP3    H236026   3.720   1.983   5.291  0.4500  0.3348 -1.9204
 4871TIP3   OH236027   3.666   0.186   3.037  0.3923  0.4445  0.4612
 4871TIP3    H136028   3.578   0.222   3.045  0.4597  0.6150  0.4282
 4871TIP3    H236029   3.653   0.091   3.037  0.0811  0.4739 -1.0470
 4872TIP3   OH236030   2.717   3.816  16.800  0.1311  0.2181  0.2668
 4872TIP3    H136031   2.705   3.908  16.825  0.3270  0.5273 -0.7164
 4872TIP3    H236032   2.674   3.809  16.714  0.1193 -0.6092  0.3321
 4873TIP3   OH236033   3.105   2.821   2.584  0.4024 -0.0949 -0.5490
 4873TIP3    H136034   3.139   2.735   2.557  1.0061 -0.0285 -0.0247
 4873TIP3    H236035   3.153   2.841   2.665  0.5979  0.9400 -0.9092
 4874TIP3   OH236036   2.152   2.453   2.933  0.1076 -0.3257  0.5097
 4874TIP3    H136037   2.156   2.527   2.871  0.0617 -1.2680 -0.6495
 4874TIP3    H236038   2.061   2.424   2.930  0.2284 -0.7177  0.6086
 4875TIP3   OH236039   1.166   1.552  13.272  0.5039 -0.5550  0.2120
 4875TIP3    H136040   1.093   1.552  13.334 -1.0596 -1.6873 -1.5262
 4875TIP3    H236041   1.125   1.567  13.187  2.6928  2.0561 -0.5038
 4876TIP3   OH236042   3.566   2.930   3.861 -0.2000  0.1515 -0.5216
 4876TIP3    H136043   3.599   2.894   3.779 -0.9660  0.7100 -1.0929
 4876TIP3    H236044   3.499   2.993   3.834 -3.2986 -2.3888  0.5875
 4877TIP3   OH236045   6.008   6.262  11.258 -0.5712  0.0654  0.1584
 4877TIP3    H136046   6.050   6.292  11.177 -0.6914 -0.6416 -0.1667
 4877TIP3    H236047   6.014   6.167  11.255 -0.4406  0.0357  1.0585
 4878TIP3   OH236048   0.144   0.185  15.491  0.0355  0.2855 -0.2065
 4878TIP3    H136049   0.205   0.161  15.422  0.2792  0.4560 -0.0556
 4878TIP3    H236050   0.127   0.103  15.538  1.0358  0.4368  0.4451
 4879TIP3   OH236051   5.313   1.368   4.750 -0.0096  0.4805 -0.2283
 4879TIP3    H136052   5.367   1.313   4.694 -1.2084 -1.6555  0.6058
 4879TIP3    H236053   5.376   1.423   4.797  1.2139  0.0354 -1.2928
 4880TIP3   OH236054   1.143   3.981  15.366 -0.1799 -0.1289  0.1685
 4880TIP3    H136055   1.177   4.012  15.282 -0.3299  0.3664  0.2825
 4880TIP3    H236056   1.099   3.899  15.347 -2.8309  1.3815 -0.8078
 4881TIP3   OH236057   3.104   4.609  10.785 -0.0256 -0.1553  0.4711
 4881TIP3    H136058   3.135   4.679  10.727  0.6845 -0.9817 -0.1720
 4881TIP3    H236059   3.009   4.609  10.774  0.1281 -0.6951 -1.1973
 4882TIP3   OH236060   2.925   6.293   1.821  0.1218  0.0191 -0.0994
 4882TIP3    H136061   2.837   6.289   1.781 -0.9874 -1.2484  2.2562
 4882TIP3    H236062   2.977   6.345   1.759 -2.3228  0.9945 -1.4896
 4883TIP3   OH236063   3.103   2.221   2.744  0.0872 -0.3394  0.0148
 4883TIP3    H136064   3.101   2.316   2.756 -1.2669 -0.6451  3.4200
 4883TIP3    H236065   3.030   2.204   2.684  0.2645  0.7371 -0.5449
 4884TIP3   OH236066   1.838   0.915  14.127 -0.7904 -0.5002  0.5843
 4884TIP3    H136067   1.910   0.948  14.074 -0.8672  1.5242  1.6563
 4884TIP3    H236068   1.836   0.821  14.108 -0.1938 -0.0436 -2.1791
 4885TIP3   OH236069   0.121   4.276   3.407  0.0761  0.5204  0.1448
 4885TIP3    H136070   0.098   4.310   3.320  1.5774  1.6579  0.1587
 4885TIP3    H236071   0.214   4.258   3.402  0.1330  0.3611  1.4589
 4886TIP3   OH236072   2.241   3.513  16.934  0.2328 -0.0826 -0.0094
 4886TIP3    H136073   2.318   3.475  16.891  0.0989 -0.1939 -0.1516
 4886TIP3    H236074   2.204   3.441  16.985  1.1213  0.3772  1.3182
 4887TIP3   OH236075   0.574   1.628  14.649 -0.0871  0.0400 -0.2203
 4887TIP3    H136076   0.582   1.549  14.596  0.6424  0.9813 -1.5644
 4887TIP3    H236077   0.658   1.636  14.693  0.4840  0.9713 -1.4307
 4888TIP3   OH236078   4.032   0.327   6.409 -0.0161  0.1771 -0.4297
 4888TIP3    H136079   3.979   0.350   6.333  0.1667  0.7107 -0.4044
 4888TIP3    H236080   4.119   0.361   6.388 -0.1999  1.2347  0.4316
 4889TIP3   OH236081   3.281   2.716  10.831 -0.2330 -0.3325  0.0891
 4889TIP3    H136082   3.290   2.655  10.904 -0.2631  0.0310  0.3988
 4889TIP3    H236083   3.304   2.801  10.868 -0.0323 -0.1822 -0.3799
 4890TIP3   OH236084   3.063   6.662   1.228  0.6890  0.0512  0.3343
 4890TIP3    H136085   3.057   6.726   1.158  0.3568 -0.7665 -0.4005
 4890TIP3    H236086   3.143   6.612   1.209  0.3019 -0.5356  0.2171
 4891TIP3   OH236087   6.254   0.627   5.477 -0.7142 -0.6088  0.6035
 4891TIP3    H136088   6.181   0.646   5.536 -1.5091 -0.1331 -0.5039
 4891TIP3    H236089   6.323   0.688   5.503 -1.0379 -0.4306  1.0555
 4892TIP3   OH236090   2.501   2.756  12.001 -0.1396  0.1492 -0.5141
 4892TIP3    H136091   2.556   2.795  12.070 -2.4415  0.5612  1.2242
 4892TIP3    H236092   2.479   2.670  12.035 -0.4936 -0.0378 -1.2219
 4893TIP3   OH236093   4.627   4.264  13.473  0.5116  0.3603  0.3474
 4893TIP3    H136094   4.578   4.247  13.553 -0.6341  0.9344 -0.1944
 4893TIP3    H236095   4.667   4.350  13.487  1.3467 -0.0995  0.7840
 4894TIP3   OH236096   5.011   3.585   5.245  0.0569  0.0982 -0.2778
 4894TIP3    H136097   5.006   3.593   5.149  0.5907  0.5759 -0.2767
 4894TIP3    H236098   4.950   3.514   5.267 -0.4039  0.2808 -0.9278
 4895TIP3   OH236099   4.767   0.516   3.239 -0.5543  0.0606  0.1390
 4895TIP3    H136100   4.708   0.525   3.315  1.1986 -0.8906  1.7041
 4895TIP3    H236101   4.774   0.421   3.226 -1.4155  0.2181 -1.7535
 4896TIP3   OH236102   4.097   4.769  15.303  0.0634 -0.1652  0.3516
 4896TIP3    H136103   4.115   4.833  15.372 -2.0567 -1.1515  1.9390
 4896TIP3    H236104   4.033   4.709  15.342 -2.6099  0.1754 -3.0066
 4897TIP3   OH236105   6.292   2.895  13.396  0.7531  0.3609  0.0074
 4897TIP3    H136106   6.288   2.955  13.321 -1.5476  1.9239  1.2733
 4897TIP3    H236107   6.221   2.923  13.454  0.5957 -2.5990  1.4579
 4898TIP3   OH236108   5.249   5.289   2.847  0.3186  0.3279 -0.4939
 4898TIP3    H136109   5.298   5.227   2.794  0.4050 -0.6013  0.6306
 4898TIP3    H236110   5.292   5.373   2.831  1.6308 -0.2889 -0.3273
 4899TIP3   OH236111   4.180   0.011   4.437 -0.3040 -0.1380  0.0574
 4899TIP3    H136112   4.245  -0.041   4.390  1.1699  0.6694  1.1034
 4899TIP3    H236113   4.196  -0.010   4.530  0.1361  1.9000  0.4881
 4900TIP3   OH236114   2.515   2.877  11.437  0.2924  0.6572 -0.1258
 4900TIP3    H136115   2.447   2.857  11.502  0.3482 -1.0082 -0.5535
 4900TIP3    H236116   2.583   2.812  11.452  0.7713  0.8970 -1.1876
 4901TIP3   OH236117   3.342   5.842   0.313  0.0297 -0.3439 -0.4385
 4901TIP3    H136118   3.278   5.814   0.378  0.7035  0.0107  0.3988
 4901TIP3    H236119   3.426   5.838   0.358  0.5053 -0.0199 -1.2641
 4902TIP3   OH236120   5.308   6.188   2.420  0.1808 -0.8644 -0.7275
 4902TIP3    H136121   5.340   6.167   2.332  1.5535 -1.6232 -0.0738
 4902TIP3    H236122   5.384   6.225   2.465 -0.3849 -0.9098  0.2919
 4903TIP3   OH236123   6.350   1.025  11.761  0.1943 -0.3990 -0.0261
 4903TIP3    H136124   6.395   1.090  11.815 -1.0230 -0.9135  1.6996
 4903TIP3    H236125   6.420   0.987  11.707  1.2230  1.0906  0.1981
 4904TIP3   OH236126   2.963   1.740   1.934  0.2374  0.6427 -0.0828
 4904TIP3    H136127   2.962   1.644   1.927  2.3677  0.6652 -1.6717
 4904TIP3    H236128   2.940   1.757   2.026  0.5689 -1.4162  0.4440
 4905TIP3   OH236129   1.202   6.157  15.842  0.4541 -0.0189  0.3298
 4905TIP3    H136130   1.183   6.224  15.777  1.3998  2.1895  2.2258
 4905TIP3    H236131   1.153   6.080  15.811  0.2076  1.1401 -2.5058
 4906TIP3   OH236132   5.323   4.106   3.851  0.4161 -0.8000  0.3565
 4906TIP3    H136133   5.301   4.181   3.906  1.2285 -0.2449 -0.0424
 4906TIP3    H236134   5.376   4.050   3.908  1.6630  0.0033  0.0443
 4907TIP3   OH236135   3.812   6.222   1.029 -0.1473  0.1773 -0.4982
 4907TIP3    H136136   3.832   6.129   1.027 -0.4336  0.1293 -1.4277
 4907TIP3    H236137   3.719   6.225   1.052 -0.1825  0.2314 -0.6511
 4908TIP3   OH236138   5.990   0.864   2.011 -0.7417  0.0878  0.7734
 4908TIP3    H136139   5.901   0.851   1.981 -0.9147  1.2036  0.7587
 4908TIP3    H236140   5.987   0.946   2.061 -0.0597 -0.6920  2.1467
 4909TIP3   OH236141   5.586   5.003   5.681  0.1069 -0.1899  0.3234
 4909TIP3    H136142   5.609   4.919   5.642 -4.0214 -1.0055 -0.8888
 4909TIP3    H236143   5.611   5.068   5.614 -0.0432 -0.8401 -0.3828
 4910TIP3   OH236144   0.585   6.091   3.273  0.3582 -0.1920 -0.2811
 4910TIP3    H136145   0.674   6.065   3.251  0.6625  0.8993 -0.4335
 4910TIP3    H236146   0.531   6.050   3.205  0.8976  0.1630 -0.9458
 4911TIP3   OH236147   0.978   0.591  15.408 -0.3397 -0.7899  0.2366
 4911TIP3    H136148   0.884   0.591  15.428 -0.7265  0.2796 -1.3232
 4911TIP3    H236149   0.988   0.664  15.346  2.1062  1.3227  2.8425
 4912TIP3   OH236150   5.993   6.120   1.370 -0.3668 -0.2115  0.4380
 4912TIP3    H136151   5.983   6.027   1.348  0.6771 -0.5430  1.3148
 4912TIP3    H236152   5.978   6.165   1.287 -1.8685 -1.0781  0.1904
 4913TIP3   OH236153   3.407   3.623  11.467 -0.5758 -0.0139 -0.2640
 4913TIP3    H136154   3.320   3.646  11.434 -0.0580  1.1419 -0.8861
 4913TIP3    H236155   3.467   3.676  11.415  0.4296  0.1003  0.9665
 4914TIP3   OH236156   2.258   4.156   4.200 -0.3446 -0.6841 -0.4165
 4914TIP3    H136157   2.285   4.218   4.267 -2.1237 -0.4982  0.1857
 4914TIP3    H236158   2.337   4.107   4.178  0.8276  0.9595 -0.0256
 4915TIP3   OH236159   4.659   4.539  16.590  0.1006 -0.4879 -0.1880
 4915TIP3    H136160   4.659   4.584  16.675  0.4818 -1.2531  0.2280
 4915TIP3    H236161   4.745   4.559  16.553  0.0871 -0.4823 -0.2179
 4916TIP3   OH236162   5.572   6.305   5.344  0.0537  0.1718  0.4773
 4916TIP3    H136163   5.516   6.378   5.368  0.7544  0.4049  1.5033
 4916TIP3    H236164   5.660   6.344   5.336  0.8374 -0.8081  3.0634
 4917TIP3   OH236165   2.312   4.520  12.688  0.0852  0.3292  0.6809
 4917TIP3    H136166   2.304   4.432  12.652  1.7618  0.1623  0.6594
 4917TIP3    H236167   2.393   4.518  12.739 -0.0951  1.7340  1.0591
 4918TIP3   OH236168   0.634   5.868  12.672  0.3390  0.3231  0.6873
 4918TIP3    H136169   0.703   5.928  12.643  0.3777  0.5740  1.2957
 4918TIP3    H236170   0.650   5.856  12.765 -0.2321  0.1049  0.7596
 4919TIP3   OH236171   5.592   5.022   2.358 -0.0299  0.2450  0.4603
 4919TIP3    H136172   5.611   4.960   2.429 -4.9434 -1.7752  0.3877
 4919TIP3    H236173   5.547   5.095   2.401  0.3432  0.8746 -0.1927
 4920TIP3   OH236174   3.831   4.217   5.709 -0.2934  0.0195  0.4699
 4920TIP3    H136175   3.810   4.147   5.771  2.3786 -1.3523 -0.0055
 4920TIP3    H236176   3.878   4.282   5.762 -0.5609  0.2447  0.4311
 4921TIP3   OH236177   5.897   4.246  15.116  0.0441 -0.0628  0.1487
 4921TIP3    H136178   5.871   4.294  15.038 -0.5105 -2.1573 -1.0418
 4921TIP3    H236179   5.984   4.212  15.096  0.0460 -0.3246  0.5776
 4922TIP3   OH236180   3.283   1.183  12.292 -0.6167  0.4546  0.1910
 4922TIP3    H136181   3.319   1.236  12.363 -0.8549 -0.1122  0.7466
 4922TIP3    H236182   3.273   1.095  12.330 -0.7463  0.1418 -0.5424
 4923TIP3   OH236183   6.308   6.349  17.097  0.6265  0.2443 -0.2632
 4923TIP3    H136184   6.341   6.435  17.073  0.8851  0.0064 -0.7910
 4923TIP3    H236185   6.380   6.289  17.076  0.5417 -0.0757  0.3241
 4924TIP3   OH236186   6.411   2.098  13.265 -0.3295 -0.3682 -0.5160
 4924TIP3    H136187   6.431   2.159  13.194 -1.5239 -1.5744 -1.9632
 4924TIP3    H236188   6.342   2.141  13.315 -0.4303 -0.0796 -0.8970
 4925TIP3   OH236189   1.906   4.710  16.620  0.3924 -0.0481 -0.3617
 4925TIP3    H136190   1.856   4.774  16.569  0.8599  1.9516  1.5347
 4925TIP3    H236191   1.884   4.730  16.711  2.3238 -1.1121  0.3883
 4926TIP3   OH236192   2.458   3.793   0.637 -0.6595  0.7249 -0.4109
 4926TIP3    H136193   2.395   3.722   0.621 -0.5785  0.3377  0.9138
 4926TIP3    H236194   2.531   3.774   0.577 -1.0123  0.1731 -0.6735
 4927TIP3   OH236195   0.382   0.671   2.017 -0.5322  0.7699  0.5646
 4927TIP3    H136196   0.376   0.765   1.998 -0.7309  0.6140 -0.1658
 4927TIP3    H236197   0.463   0.644   1.974 -1.1698  0.3405 -0.3976
 4928TIP3   OH236198   0.468   4.561  15.584 -0.0496  0.2019 -0.0025
 4928TIP3    H136199   0.535   4.546  15.518 -0.0218  0.2122  0.0233
 4928TIP3    H236200   0.432   4.648  15.563 -0.0457  0.2019 -0.0088
 4929TIP3   OH236201   4.976   2.167  14.710 -0.4443 -0.8885  0.4038
 4929TIP3    H136202   5.005   2.256  14.692 -0.9847 -0.4148  1.7436
 4929TIP3    H236203   5.016   2.114  14.641  0.3304  0.3042 -0.0927
 4930TIP3   OH236204   0.852   5.336   0.014  0.0085 -0.0856  0.2115
 4930TIP3    H136205   0.879   5.424  -0.011  0.0929 -0.8360 -2.6273
 4930TIP3    H236206   0.921   5.305   0.073  1.8265  0.5218 -1.5057
 4931TIP3   OH236207   6.120   5.920   3.530  0.1785 -0.0953  0.4692
 4931TIP3    H136208   6.197   5.960   3.490  0.1292 -0.4004  0.0658
 4931TIP3    H236209   6.052   5.927   3.463  0.8166 -3.1262 -0.6670
 4932TIP3   OH236210   6.146   1.314  15.985 -0.3805  0.1456  0.0528
 4932TIP3    H136211   6.109   1.226  15.998 -2.2474  0.5542 -1.9136
 4932TIP3    H236212   6.113   1.365  16.059 -2.0232 -0.0514 -0.5078
 4933TIP3   OH236213   1.694   3.529   3.614  0.5599 -0.0322 -0.5790
 4933TIP3    H136214   1.744   3.493   3.687  0.4129 -1.4699 -1.1569
 4933TIP3    H236215   1.712   3.470   3.541 -1.7445 -0.4323 -0.8800
 4934TIP3   OH236216   0.990   3.748  15.305 -0.1957  0.0924  0.1531
 4934TIP3    H136217   0.956   3.805  15.236  1.6256  0.9995 -0.0547
 4934TIP3    H236218   1.052   3.691  15.260  0.4471  0.1829  0.8988
 4935TIP3   OH236219   0.075   0.746   2.263 -0.4492  0.5299 -0.2012
 4935TIP3    H136220   0.072   0.707   2.351  1.7048  1.4261  0.3201
 4935TIP3    H236221   0.071   0.671   2.204  0.2167 -0.2540  0.7124
 4936TIP3   OH236222   2.809   5.243   2.196 -0.4966 -0.2006 -0.1230
 4936TIP3    H136223   2.892   5.207   2.228  0.2366  0.8122 -0.8003
 4936TIP3    H236224   2.783   5.305   2.264 -0.3270 -0.0209 -0.2171
 4937TIP3   OH236225   2.237   3.715   0.485 -0.1335 -0.1692  0.3697
 4937TIP3    H136226   2.215   3.800   0.446  0.4234  0.7079  1.8749
 4937TIP3    H236227   2.154   3.681   0.518  0.1886  2.3686  4.5713
 4938TIP3   OH236228   2.956   2.933   3.166  0.8475  0.1604  0.0274
 4938TIP3    H136229   3.016   2.974   3.104  1.2144  0.1785  0.3965
 4938TIP3    H236230   2.924   2.854   3.121  1.5178 -0.1097  0.0231
 4939TIP3   OH236231   6.437   6.214  13.048 -0.3276 -0.0348 -0.0017
 4939TIP3    H136232   6.357   6.266  13.053 -0.5021 -0.2824 -0.2194
 4939TIP3    H236233   6.490   6.246  13.121 -0.1252  0.9527 -0.5588
 4940TIP3   OH236234   6.037   4.768   4.289 -0.4086 -0.2696  0.4103
 4940TIP3    H136235   6.002   4.709   4.356  0.0886 -0.0731  0.8524
 4940TIP3    H236236   5.965   4.779   4.227 -1.1602  0.1695  1.3245
 4941TIP3   OH236237   5.573   0.613   5.316 -0.4033  0.2393 -0.0735
 4941TIP3    H136238   5.544   0.642   5.402 -2.4483  1.4516 -1.0929
 4941TIP3    H236239   5.567   0.691   5.261  1.4920 -0.3388 -1.2053
 4942TIP3   OH236240   2.653   5.333  17.028 -0.3516 -0.2374  0.5878
 4942TIP3    H136241   2.672   5.361  16.938 -1.4113  0.4623  0.5560
 4942TIP3    H236242   2.583   5.393  17.057 -1.6234 -1.8842  1.0825
 4943TIP3   OH236243   3.029   3.921  13.294  0.0864 -0.4428 -0.0870
 4943TIP3    H136244   3.042   3.951  13.384  0.6088 -0.2834 -0.2141
 4943TIP3    H236245   3.068   3.834  13.291 -0.0794 -0.5177 -0.1190
 4944TIP3   OH236246   2.906   1.253   2.915 -0.0537 -0.5051 -0.2507
 4944TIP3    H136247   2.998   1.271   2.896 -0.0902  0.6248  0.5275
 4944TIP3    H236248   2.865   1.244   2.829  0.8985 -1.7436 -0.6031
 4945TIP3   OH236249   0.299   0.307  14.675  0.0305  0.3068 -0.1632
 4945TIP3    H136250   0.225   0.298  14.735  0.1738  2.6526  0.4740
 4945TIP3    H236251   0.266   0.274  14.592 -1.1098 -0.3902  0.5359
 4946TIP3   OH236252   1.917   3.372  13.440  0.2232 -0.0467  0.2986
 4946TIP3    H136253   1.930   3.426  13.361 -0.0943 -0.0995  0.2089
 4946TIP3    H236254   1.901   3.284  13.406  4.4579 -1.1341  0.4487
 4947TIP3   OH236255   4.147   0.035  15.182  0.3110 -0.0309 -0.0776
 4947TIP3    H136256   4.142   0.061  15.090  1.2956 -0.8859 -0.3856
 4947TIP3    H236257   4.126  -0.059  15.182 -0.4170  0.1222  0.6642
 4948TIP3   OH236258   3.295   2.042  14.544  0.2706 -0.4519  0.9959
 4948TIP3    H136259   3.207   2.063  14.577  0.0082  0.0255  0.0148
 4948TIP3    H236260   3.283   2.030  14.450  1.3187 -0.0660  0.8090
 4949TIP3   OH236261   1.062   3.240   5.217  0.2456 -0.1167 -0.2738
 4949TIP3    H136262   1.131   3.298   5.249 -0.2541  0.6820 -0.6052
 4949TIP3    H236263   1.099   3.152   5.226  1.3304  0.2903 -0.5073
 4950TIP3   OH236264   5.568   5.173  16.120 -0.0858  0.0704 -0.9542
 4950TIP3    H136265   5.581   5.090  16.167 -0.7522  1.1984  1.3847
 4950TIP3    H236266   5.657   5.205  16.103  0.2914  0.7957  1.8839
 4951TIP3   OH236267   1.746   3.169   0.942 -0.1335  0.0097 -0.3049
 4951TIP3    H136268   1.833   3.143   0.972 -0.7890  0.1036  1.8094
 4951TIP3    H236269   1.763   3.241   0.881  1.3329 -1.1661 -1.3847
 4952TIP3   OH236270   3.915   0.094   4.248 -0.0418 -0.4372 -0.3101
 4952TIP3    H136271   3.985   0.154   4.221 -1.1658  0.0344 -2.4214
 4952TIP3    H236272   3.957   0.007   4.245  0.9993  0.0085  0.5786
 4953TIP3   OH236273   4.196   2.687  17.162  0.3887 -0.2290  0.2528
 4953TIP3    H136274   4.194   2.615  17.099 -0.3106 -1.9325  2.0877
 4953TIP3    H236275   4.273   2.739  17.138  0.0776 -0.7307 -2.0143
 4954TIP3   OH236276   6.018   5.673  10.661  0.5854  0.2164  0.8472
 4954TIP3    H136277   5.972   5.631  10.589  1.1489  0.7470  0.1695
 4954TIP3    H236278   5.964   5.654  10.738 -0.1006 -0.2242  0.2709
 4955TIP3   OH236279   2.647   3.291   2.537 -0.7321  0.0958  0.2492
 4955TIP3    H136280   2.697   3.366   2.504 -2.0858  0.7590 -0.3538
 4955TIP3    H236281   2.682   3.216   2.489 -0.6036  0.6123 -0.4833
 4956TIP3   OH236282   5.317   4.678   5.436 -0.5460 -0.4704 -0.2467
 4956TIP3    H136283   5.266   4.698   5.514 -0.3358 -0.0992 -0.2018
 4956TIP3    H236284   5.281   4.594   5.405 -0.5169 -0.7093  0.3402
 4957TIP3   OH236285   4.418   4.467  17.222 -0.0261 -0.1129 -0.1176
 4957TIP3    H136286   4.501   4.422  17.204 -0.7014 -1.2055 -0.5920
 4957TIP3    H236287   4.402   4.519  17.143  0.3657  0.3771  0.1165
 4958TIP3   OH236288   0.614   0.719   3.466  0.2236 -0.1234 -0.2222
 4958TIP3    H136289   0.603   0.801   3.418  1.7464  0.9129  1.0840
 4958TIP3    H236290   0.661   0.662   3.406  0.8655  0.6551 -0.4836
 4959TIP3   OH236291   6.006   1.984  16.399 -0.3876 -0.0621  0.1250
 4959TIP3    H136292   6.027   1.997  16.307  0.1595 -0.2818  0.2155
 4959TIP3    H236293   5.989   1.890  16.406 -2.3225  0.2191 -0.1245
 4960TIP3   OH236294   4.591   0.257   1.819  0.2600  0.0133 -0.1988
 4960TIP3    H136295   4.534   0.221   1.751 -1.6789 -0.0692  1.3931
 4960TIP3    H236296   4.610   0.346   1.789  0.4318 -0.4045 -1.4012
 4961TIP3   OH236297   4.277   2.450   4.328  0.2906  0.0601 -0.3665
 4961TIP3    H136298   4.309   2.521   4.384  1.4190 -1.0608  0.4613
 4961TIP3    H236299   4.249   2.494   4.248  1.3684  1.4107 -0.0453
 4962TIP3   OH236300   1.338   6.768  16.015 -0.3871  0.4522 -0.1090
 4962TIP3    H136301   1.415   6.749  16.069 -0.3384 -0.9332 -0.6148
 4962TIP3    H236302   1.298   6.683  15.999 -0.4633  0.8058 -2.1462
 4963TIP3   OH236303   5.375   0.339  12.340 -0.6744 -0.1882 -0.3353
 4963TIP3    H136304   5.303   0.350  12.278 -3.5196 -0.8137  2.5724
 4963TIP3    H236305   5.395   0.428  12.369 -1.2783 -0.1217 -0.1178
 4964TIP3   OH236306   0.432   3.373  13.273  0.2397 -0.6283  0.3849
 4964TIP3    H136307   0.491   3.321  13.327  1.6537  2.2899  1.9338
 4964TIP3    H236308   0.345   3.357  13.309  1.0868  0.8607  3.4327
 4965TIP3   OH236309   6.369   0.733   5.167  0.2336 -0.0231  0.2778
 4965TIP3    H136310   6.409   0.648   5.152  0.8800  0.5980 -1.8919
 4965TIP3    H236311   6.435   0.782   5.216  0.1276 -0.5219  0.9393
 4966TIP3   OH236312   3.298   5.986   6.381  0.2308  0.8784 -0.8489
 4966TIP3    H136313   3.262   6.042   6.313 -0.2303 -0.7197 -1.9738
 4966TIP3    H236314   3.244   5.907   6.379  1.0423  0.2421  0.4736
 4967TIP3   OH236315   5.626   2.779   0.411  0.3493  0.2216  0.5212
 4967TIP3    H136316   5.675   2.754   0.489 -1.3681  1.1112  1.9836
 4967TIP3    H236317   5.565   2.847   0.442 -0.5153  0.4876 -1.5680
 4968TIP3   OH236318   3.016   3.304  11.954  0.1306  0.3778 -0.2575
 4968TIP3    H136319   2.978   3.392  11.951  0.2223  0.3963 -1.2849
 4968TIP3    H236320   3.067   3.298  11.873 -0.1168 -0.7320 -0.3373
 4969TIP3   OH236321   5.691   0.338   0.356  0.3150 -0.5510  0.3005
 4969TIP3    H136322   5.671   0.317   0.265  1.0592 -0.1040  0.0234
 4969TIP3    H236323   5.636   0.414   0.376  1.1103  0.1828 -0.2101
 4970TIP3   OH236324   5.620   2.463   5.182  0.0069 -0.2878  0.1892
 4970TIP3    H136325   5.574   2.413   5.115  0.2598 -1.4741  0.8764
 4970TIP3    H236326   5.562   2.459   5.258  0.1927  0.1824  0.3585
 4971TIP3   OH236327   3.880   1.701  15.102  0.1364  0.1341 -0.4201
 4971TIP3    H136328   3.802   1.690  15.047  0.5807 -1.4921 -0.7750
 4971TIP3    H236329   3.953   1.708  15.041  0.4812 -0.2971 -0.0705
 4972TIP3   OH236330   2.919   5.086   4.089  0.3262 -0.0175  0.2389
 4972TIP3    H136331   2.937   5.119   4.177  0.7493 -1.4447  0.7260
 4972TIP3    H236332   2.923   4.991   4.099 -0.3899 -0.2127 -1.1739
 4973TIP3   OH236333   1.312   5.496  11.809  0.4006  0.1987  0.3841
 4973TIP3    H136334   1.347   5.585  11.804 -1.8049  1.0899 -3.9084
 4973TIP3    H236335   1.324   5.461  11.721 -1.3406 -2.7344  1.1907
 4974TIP3   OH236336   5.762   5.969  14.350 -0.4476 -0.2912 -1.0088
 4974TIP3    H136337   5.804   5.977  14.265 -1.0157  0.0764 -1.2593
 4974TIP3    H236338   5.744   5.876  14.360  0.3191 -0.4421 -0.9425
 4975TIP3   OH236339   2.287   4.954   0.911 -0.1811 -0.3430 -0.6982
 4975TIP3    H136340   2.227   4.994   0.848 -2.1582 -0.9039  0.7530
 4975TIP3    H236341   2.234   4.938   0.988  1.7661 -1.2617  0.5266
 4976TIP3   OH236342   3.643   1.961   2.297 -0.1207 -0.3961  0.2532
 4976TIP3    H136343   3.613   1.870   2.289 -0.2945 -0.5024  1.8535
 4976TIP3    H236344   3.595   1.995   2.372  1.2129  0.4986  0.7142
 4977TIP3   OH236345   3.454   0.295  16.311 -0.1855  0.2235  0.1621
 4977TIP3    H136346   3.488   0.235  16.245 -0.7806  0.7295 -0.6214
 4977TIP3    H236347   3.528   0.308  16.372  0.7575  0.6260 -1.0241
 4978TIP3   OH236348   4.655   3.907  10.678 -0.2386  0.3600  0.0718
 4978TIP3    H136349   4.575   3.876  10.720  0.8985 -1.4023  1.0658
 4978TIP3    H236350   4.725   3.884  10.739  1.1100  1.1941 -1.0862
 4979TIP3   OH236351   5.661   5.245   1.420  0.2192  0.2230 -0.6255
 4979TIP3    H136352   5.618   5.311   1.367  2.2529  1.3871 -0.9454
 4979TIP3    H236353   5.665   5.284   1.508 -1.6640 -1.0010  0.0667
 4980TIP3   OH236354   1.638   5.406  11.071 -0.3141  0.1248 -0.2003
 4980TIP3    H136355   1.587   5.340  11.024  0.2371 -0.2458 -0.2855
 4980TIP3    H236356   1.715   5.421  11.015  0.8163 -0.9926  0.9826
 4981TIP3   OH236357   2.689   0.075  17.136 -0.2140 -0.1499  0.4963
 4981TIP3    H136358   2.643  -0.004  17.164 -0.3942 -0.8405 -1.5865
 4981TIP3    H236359   2.776   0.045  17.111 -0.1621  0.3638  0.0381
 4982TIP3   OH236360   0.209   5.590   0.881  0.3459 -0.2761 -0.4336
 4982TIP3    H136361   0.216   5.502   0.918 -0.2290  0.0557  0.4901
 4982TIP3    H236362   0.179   5.645   0.954  0.5973  0.6689 -1.0207
 4983TIP3   OH236363   3.487   6.742  12.340 -0.1646 -0.1288  0.8053
 4983TIP3    H136364   3.570   6.694  12.340  0.4374  0.8941  0.8955
 4983TIP3    H236365   3.486   6.788  12.256 -0.6908 -0.1966  0.7681
 4984TIP3   OH236366   6.789   6.025  13.464  0.3238 -0.1028  0.2823
 4984TIP3    H136367   6.751   5.946  13.425 -0.3944 -0.5737  1.8466
 4984TIP3    H236368   6.717   6.065  13.513  1.0875  0.6166  0.8461
 4985TIP3   OH236369   0.287   3.117   6.389  0.1151  0.0094 -0.5086
 4985TIP3    H136370   0.265   3.196   6.438 -0.4474 -0.1906 -0.4258
 4985TIP3    H236371   0.297   3.049   6.456 -0.0862 -0.1377 -0.6249
 4986TIP3   OH236372   3.456   1.789   1.166  1.2385 -0.1411 -0.0219
 4986TIP3    H136373   3.514   1.824   1.098 -1.3837  2.8301 -0.9661
 4986TIP3    H236374   3.428   1.866   1.215 -1.2569 -1.5265  0.8806
 4987TIP3   OH236375   1.852   6.676   6.498 -0.2859 -0.0775 -0.2161
 4987TIP3    H136376   1.788   6.697   6.430 -1.3092 -0.0690  0.7340
 4987TIP3    H236377   1.833   6.736   6.569 -0.0150 -0.8803  0.5555
 4988TIP3   OH236378   2.477   2.076  16.579  0.1760  0.3016  0.3823
 4988TIP3    H136379   2.452   1.983  16.584  0.7130  0.0353 -1.2062
 4988TIP3    H236380   2.536   2.080  16.504 -0.6744  2.1220 -0.2330
 4989TIP3   OH236381   1.085   4.719   2.476 -0.1603 -0.4858 -0.4852
 4989TIP3    H136382   1.011   4.659   2.482 -0.0841 -0.6526 -1.1819
 4989TIP3    H236383   1.061   4.780   2.407 -1.6002  2.2325  2.1750
 4990TIP3   OH236384   2.618   3.211   5.408  0.5247  0.1695  0.0677
 4990TIP3    H136385   2.608   3.298   5.370 -0.0607  0.5104  0.9793
 4990TIP3    H236386   2.581   3.152   5.343  0.0268  0.6853 -0.1231
 4991TIP3   OH236387   2.258   6.667   5.905 -0.5793 -0.2810  0.4157
 4991TIP3    H136388   2.206   6.591   5.880 -1.3973 -0.1857  1.7585
 4991TIP3    H236389   2.197   6.723   5.954  0.3963  0.5383  0.7278
 4992TIP3   OH236390   4.169   6.448   1.348 -0.1249  0.2389 -0.3431
 4992TIP3    H136391   4.177   6.519   1.284 -0.7511 -0.4518 -1.1953
 4992TIP3    H236392   4.199   6.370   1.302  2.2851  0.1855  1.1335
 4993TIP3   OH236393   1.430   5.295   2.477 -0.2238  0.3970  0.1707
 4993TIP3    H136394   1.391   5.381   2.496 -0.2338  0.8806 -1.8197
 4993TIP3    H236395   1.430   5.250   2.561 -0.3163  2.3051  1.2583
 4994TIP3   OH236396   0.878   2.366  11.471 -0.2375 -0.1611 -0.4898
 4994TIP3    H136397   0.955   2.403  11.427 -1.3016  1.2803 -1.2215
 4994TIP3    H236398   0.826   2.329  11.400 -1.1807  0.7070 -0.2746
 4995TIP3   OH236399   1.720   4.535  14.037 -0.3052  0.2196 -0.3372
 4995TIP3    H136400   1.695   4.448  14.068  1.6075 -0.5592 -0.7840
 4995TIP3    H236401   1.696   4.536  13.944 -2.7409  1.2140  0.2270
 4996TIP3   OH236402   1.973   6.578  11.675  0.0872  0.4570  0.8188
 4996TIP3    H136403   1.998   6.540  11.759  0.6231  0.7545  0.7954
 4996TIP3    H236404   1.968   6.504  11.615  1.0238  0.4076  0.7972
 4997TIP3   OH236405   6.367   4.144   5.010 -0.6144 -0.1300  0.4203
 4997TIP3    H136406   6.381   4.078   5.078 -1.2801  0.1349  0.8195
 4997TIP3    H236407   6.330   4.219   5.056  3.2107  1.8927  0.6152
 4998TIP3   OH236408   1.837   4.715  11.523 -0.1584  0.4048  0.5737
 4998TIP3    H136409   1.911   4.655  11.517 -0.7677 -0.2057 -2.4549
 4998TIP3    H236410   1.868   4.786  11.579  2.5834 -0.0092 -0.2791
 4999TIP3   OH236411   2.304   5.121  15.619 -0.7530 -0.2161  0.0504
 4999TIP3    H136412   2.284   5.087  15.532 -1.4413  1.6804 -0.5781
 4999TIP3    H236413   2.219   5.129  15.663 -0.7774  1.6401 -0.2338
 5000TIP3   OH236414   4.702   5.569  14.831 -0.0545 -0.6146 -0.1184
 5000TIP3    H136415   4.694   5.493  14.889  1.5380 -0.1054  0.8047
 5000TIP3    H236416   4.674   5.536  14.745  0.8142 -2.3229  0.2134
 5001TIP3   OH236417   2.823   0.175   5.517  0.1335 -0.2306 -0.4080
 5001TIP3    H136418   2.865   0.251   5.558 -0.5746  1.2111 -2.2002
 5001TIP3    H236419   2.755   0.213   5.461  0.7879 -2.0617 -2.5747
 5002TIP3   OH236420   1.672   3.831  13.199  0.1383  0.1524  0.8048
 5002TIP3    H136421   1.715   3.825  13.115 -1.5855 -1.4084 -0.0520
 5002TIP3    H236422   1.641   3.922  13.205  1.2196  0.5606  0.2719
 5003TIP3   OH236423   0.937   1.788  15.519  0.1077 -0.2395 -0.1113
 5003TIP3    H136424   0.908   1.707  15.562  1.1686 -0.8194 -0.4722
 5003TIP3    H236425   0.872   1.853  15.547  0.4406 -0.6998  1.9435
 5004TIP3   OH236426   2.393   1.862   1.657  0.2452  0.1302  0.0078
 5004TIP3    H136427   2.486   1.875   1.638  0.3890 -0.1441  0.5174
 5004TIP3    H236428   2.385   1.880   1.751 -0.4974  1.6928 -0.3201
 5005TIP3   OH236429   6.399   3.175   1.006  0.0287  0.0166 -0.0178
 5005TIP3    H136430   6.485   3.181   0.965  0.3471 -1.8414  0.2919
 5005TIP3    H236431   6.369   3.266   1.013  1.8847  0.6853 -0.2764
 5006TIP3   OH236432   3.515   0.588  13.908  0.2167  0.1550  0.0179
 5006TIP3    H136433   3.602   0.613  13.938  1.1081 -2.1137 -0.4499
 5006TIP3    H236434   3.459   0.663  13.931  2.1427  1.4138  0.8866
 5007TIP3   OH236435   5.239   0.363  12.868 -0.0279 -0.0310 -0.0309
 5007TIP3    H136436   5.222   0.443  12.919  0.6907  1.2975 -1.8039
 5007TIP3    H236437   5.152   0.333  12.841 -0.3894 -0.5286  1.5698
 5008TIP3   OH236438   4.398   4.054  16.630  0.1913 -0.1473 -0.0973
 5008TIP3    H136439   4.481   4.050  16.582  0.9370 -0.3124  1.1551
 5008TIP3    H236440   4.331   4.047  16.562  1.1540  1.5880 -1.3150
 5009TIP3   OH236441   6.495   4.171  13.422  0.5844 -0.0766 -0.3289
 5009TIP3    H136442   6.577   4.171  13.373 -0.0274  0.9888 -1.3945
 5009TIP3    H236443   6.521   4.153  13.513  1.8710 -0.7519 -0.8102
 5010TIP3   OH236444   2.748   5.637  13.240  0.2675 -0.0597  0.4334
 5010TIP3    H136445   2.816   5.703  13.256  0.0762  0.3659 -0.4460
 5010TIP3    H236446   2.776   5.593  13.160 -0.5383  0.1932 -0.0020
 5011TIP3   OH236447   2.675   0.276  13.604 -0.0052  0.3653 -0.2734
 5011TIP3    H136448   2.603   0.339  13.613 -0.8126 -0.6514  0.6554
 5011TIP3    H236449   2.681   0.234  13.690 -1.7746 -3.2057 -1.6834
 5012TIP3   OH236450   2.735   1.553   1.846  0.1543 -0.6419  0.4750
 5012TIP3    H136451   2.727   1.580   1.755 -1.6657  0.8324  0.9959
 5012TIP3    H236452   2.705   1.629   1.896  0.8748 -1.4972  2.3026
 5013TIP3   OH236453   1.542   1.570  12.694  0.7289 -0.7761 -0.4048
 5013TIP3    H136454   1.471   1.606  12.640  0.4322  0.4019  0.7066
 5013TIP3    H236455   1.538   1.476  12.680 -1.3852 -0.7875 -0.0184
 5014TIP3   OH236456   2.020   1.128  16.995  0.4064  0.4368 -0.4043
 5014TIP3    H136457   2.055   1.205  16.950 -0.5755  1.4552  0.5315
 5014TIP3    H236458   2.003   1.158  17.084  1.4549 -1.2951  0.4296
 5015TIP3   OH236459   2.914   2.159  11.056 -0.0081 -0.4536 -0.6102
 5015TIP3    H136460   2.876   2.218  10.991 -0.2931  0.6760  0.5326
 5015TIP3    H236461   3.009   2.169  11.044 -0.0537  0.4152 -0.2848
 5016TIP3   OH236462   5.319   2.301  10.723  0.0451 -0.5315  0.6711
 5016TIP3    H136463   5.260   2.341  10.658  1.5964  1.1197  0.2001
 5016TIP3    H236464   5.368   2.235  10.673 -0.1087 -0.6117  0.6243
 5017TIP3   OH236465   6.638   4.517  14.147  0.1062  0.4526 -0.2353
 5017TIP3    H136466   6.569   4.452  14.163 -1.3981  1.9998 -0.1117
 5017TIP3    H236467   6.631   4.538  14.054  2.1208 -1.1692 -0.8152
 5018TIP3   OH236468   3.908   4.571  10.784 -0.6274  0.4294  0.1486
 5018TIP3    H136469   3.993   4.561  10.826 -0.4315 -1.6399 -0.6245
 5018TIP3    H236470   3.862   4.489  10.802 -1.9585  0.9766 -0.5651
 5019TIP3   OH236471   2.649   2.973  12.470  0.0426 -0.0918 -0.4531
 5019TIP3    H136472   2.623   3.005  12.556  1.5685  0.5097 -0.1786
 5019TIP3    H236473   2.737   3.009  12.457 -0.0650 -0.3643 -2.1590
 5020TIP3   OH236474   1.292   1.659   1.374  0.4411 -0.4339  0.1805
 5020TIP3    H136475   1.336   1.742   1.356  0.4409 -0.1160  1.4954
 5020TIP3    H236476   1.200   1.683   1.387  0.6086 -0.4396  1.6190
 5021TIP3   OH236477   2.783   4.950  14.367  0.0051  0.0089  0.3847
 5021TIP3    H136478   2.847   4.998  14.421 -1.3561  2.4581 -0.0483
 5021TIP3    H236479   2.824   4.945  14.281  0.5647 -0.4674  0.6750
 5022TIP3   OH236480   2.053   4.714   5.706  0.6895  0.4555 -0.2786
 5022TIP3    H136481   2.028   4.718   5.798 -0.3632  0.2946 -0.5381
 5022TIP3    H236482   2.009   4.789   5.666  1.8822  1.0665 -0.4981
 5023TIP3   OH236483   4.817   1.232  13.024  1.1127 -0.4818 -0.2719
 5023TIP3    H136484   4.845   1.144  13.050 -0.5507 -0.3738  2.3055
 5023TIP3    H236485   4.878   1.291  13.068  0.5280 -0.3487  0.3890
 5024TIP3   OH236486   0.219   5.751   1.126  0.4118  0.6827 -0.2745
 5024TIP3    H136487   0.130   5.776   1.151 -0.0992 -0.3538 -0.9553
 5024TIP3    H236488   0.243   5.811   1.056  0.0163  0.6034 -0.4805
 5025TIP3   OH236489   3.261   2.843  12.954 -0.2650 -0.3110  0.1306
 5025TIP3    H136490   3.345   2.813  12.991  0.2861 -0.6692 -1.3243
 5025TIP3    H236491   3.274   2.937  12.939 -0.7688 -0.0042  1.5325
 5026TIP3   OH236492   0.650   5.746   2.568  0.2073 -0.6273  0.2680
 5026TIP3    H136493   0.705   5.808   2.616 -2.4757  1.8245  0.5067
 5026TIP3    H236494   0.610   5.692   2.636 -1.2737  0.8418  0.6474
 5027TIP3   OH236495   0.939   2.181  16.685 -0.2400  0.1645  0.3187
 5027TIP3    H136496   0.866   2.176  16.624 -1.7600 -1.5210  2.1490
 5027TIP3    H236497   0.961   2.089  16.703 -0.4819  0.5622  2.9777
 5028TIP3   OH236498   6.213   1.589  17.208  0.1587 -0.0285 -0.6311
 5028TIP3    H136499   6.178   1.620  17.291 -0.1627 -0.9822 -0.3989
 5028TIP3    H236500   6.307   1.600  17.216  0.0426  1.0117 -0.6144
 5029TIP3   OH236501   6.208   3.093  17.169 -0.4429  0.1017 -0.2028
 5029TIP3    H136502   6.172   3.171  17.126  1.2662  0.7579 -0.5376
 5029TIP3    H236503   6.138   3.028  17.162 -1.6430  1.3596 -0.5730
 5030TIP3   OH236504   3.613   5.981  12.718 -0.4962  0.2740 -0.0612
 5030TIP3    H136505   3.662   6.055  12.681  0.8308 -0.8409 -0.6613
 5030TIP3    H236506   3.525   6.015  12.731 -0.0568  1.8204 -0.7637
 5031TIP3   OH236507   5.873   3.580  15.725 -0.3667  0.1469 -0.1774
 5031TIP3    H136508   5.938   3.515  15.700  0.3929  0.0810  1.7919
 5031TIP3    H236509   5.894   3.656  15.671  2.5193  0.7399  1.5711
 5032TIP3   OH236510   4.598   0.488   2.842  1.0167 -0.5839  0.0933
 5032TIP3    H136511   4.633   0.401   2.829  0.6083 -0.4167 -2.6256
 5032TIP3    H236512   4.667   0.548   2.814  0.1221 -0.1684 -1.3723
 5033TIP3   OH236513   3.069   1.279   6.712  0.3527  0.1803 -0.2147
 5033TIP3    H136514   3.018   1.198   6.723  1.4132 -0.4719 -0.0005
 5033TIP3    H236515   3.145   1.267   6.768  0.1200  1.6873  0.4478
 5034TIP3   OH236516   2.541   5.435   3.392  0.6535  0.3469  0.3898
 5034TIP3    H136517   2.507   5.394   3.471 -0.9929  0.1125 -0.3978
 5034TIP3    H236518   2.572   5.363   3.338  0.1001  0.3324  0.0787
 5035TIP3   OH236519   3.272   1.618   1.657  0.2711 -0.7579  0.3572
 5035TIP3    H136520   3.356   1.642   1.618  0.2058 -1.3771 -0.1726
 5035TIP3    H236521   3.207   1.636   1.588 -0.1448  0.4997  1.0356
 5036TIP3   OH236522   5.820   5.907  12.295 -0.4294  0.4638 -0.3578
 5036TIP3    H136523   5.737   5.859  12.284  0.2332 -0.9139  0.4425
 5036TIP3    H236524   5.888   5.841  12.282  0.5129  1.0177  1.4106
 5037TIP3   OH236525   1.442   5.520   0.787  0.3481 -0.2988 -0.6606
 5037TIP3    H136526   1.506   5.482   0.847 -0.1321  0.0041  0.0582
 5037TIP3    H236527   1.393   5.445   0.753 -1.3113 -0.2976  1.5660
 5038TIP3   OH236528   3.766   4.001   5.077  0.2035  0.0690  0.1227
 5038TIP3    H136529   3.806   3.948   5.147  1.2661 -0.8952 -1.1513
 5038TIP3    H236530   3.774   4.091   5.108 -0.1469 -0.3855  1.6275
 5039TIP3   OH236531   6.563   3.371   5.606  0.1043  0.3995  0.1100
 5039TIP3    H136532   6.618   3.440   5.568  0.8764 -0.5436 -0.5263
 5039TIP3    H236533   6.590   3.291   5.561 -1.9489 -0.0739 -0.3965
 5040TIP3   OH236534   1.439   1.636   2.827  0.2117 -0.5956  0.2243
 5040TIP3    H136535   1.523   1.591   2.825  0.0458 -0.9231  0.5763
 5040TIP3    H236536   1.421   1.650   2.920  1.1004  1.7886  0.0961
 5041TIP3   OH236537   4.149   4.096  11.057 -0.3664  0.3383 -0.1749
 5041TIP3    H136538   4.175   4.025  10.998  2.9697  0.7823  0.5719
 5041TIP3    H236539   4.128   4.169  10.999 -2.2780 -0.7004 -0.8889
 5042TIP3   OH236540   4.165   3.730   0.148 -0.0882 -0.1991  0.3778
 5042TIP3    H136541   4.142   3.690   0.065  0.5621 -0.3455  0.2714
 5042TIP3    H236542   4.237   3.678   0.182 -0.1813  0.0116  0.9173
 5043TIP3   OH236543   0.723   6.151   2.808  0.7592  0.2439  0.4138
 5043TIP3    H136544   0.632   6.140   2.837  0.8065 -1.5678  0.0036
 5043TIP3    H236545   0.775   6.142   2.889  0.6204  0.4565  0.5274
 5044TIP3   OH236546   2.655   0.757  16.340  0.5750  0.4936 -0.0277
 5044TIP3    H136547   2.742   0.792  16.358  2.0257 -2.3493 -0.8107
 5044TIP3    H236548   2.630   0.793  16.255  1.6045  0.3482 -0.4023
 5045TIP3   OH236549   0.712   5.117   4.757  0.9479 -0.1325 -0.0334
 5045TIP3    H136550   0.751   5.203   4.772 -0.9980  0.4549  2.2619
 5045TIP3    H236551   0.636   5.135   4.701  0.5080 -0.3208  0.4926
 5046TIP3   OH236552   3.563   2.714  13.689  0.4781 -0.6100 -0.5271
 5046TIP3    H136553   3.476   2.680  13.668  0.5129 -0.0743 -1.6046
 5046TIP3    H236554   3.564   2.720  13.784 -0.3124 -1.5368 -0.4461
 5047TIP3   OH236555   4.477   1.385   0.163  0.3735  0.4636 -0.2540
 5047TIP3    H136556   4.524   1.387   0.246 -2.2313  1.2030  1.3257
 5047TIP3    H236557   4.529   1.441   0.105  1.4984  1.1115  1.3103
 5048TIP3   OH236558   0.038   5.525  15.560  0.3662 -0.5035 -0.4777
 5048TIP3    H136559   0.012   5.474  15.637 -0.4842  0.9124  0.2068
 5048TIP3    H236560   0.128   5.498  15.543 -0.1801 -2.5476 -0.4281
 5049TIP3   OH236561   3.373   2.243   4.368 -0.1858 -0.0331  0.0538
 5049TIP3    H136562   3.384   2.160   4.414 -1.4449 -0.9856 -1.2750
 5049TIP3    H236563   3.309   2.291   4.420  2.0594  1.0566  1.9733
 5050TIP3   OH236564   2.323   3.126  14.506 -1.1039 -0.0376  0.7712
 5050TIP3    H136565   2.373   3.206  14.491  0.2220 -1.1453 -1.1208
 5050TIP3    H236566   2.368   3.083  14.579  0.8876 -1.0730 -0.9791
 5051TIP3   OH236567   4.330   3.489   5.343 -0.0535  0.0312  0.1469
 5051TIP3    H136568   4.307   3.580   5.328  1.7523  1.0405  2.6453
 5051TIP3    H236569   4.319   3.446   5.258 -0.1244  2.7596 -1.3199
 5052TIP3   OH236570   6.696   2.388   6.287 -0.3117 -0.4381  0.0848
 5052TIP3    H136571   6.760   2.357   6.351 -1.6474 -0.5071  1.4296
 5052TIP3    H236572   6.734   2.470   6.253  0.7722 -0.8074  0.3622
 5053TIP3   OH236573   1.074   4.527   3.689 -0.3289  0.0523  0.3457
 5053TIP3    H136574   1.014   4.536   3.615 -1.5903 -1.2704  1.1447
 5053TIP3    H236575   1.146   4.473   3.655  0.8105  2.1302 -0.7850
 5054TIP3   OH236576   4.912   5.489  16.348 -0.1565 -0.0835 -0.2160
 5054TIP3    H136577   4.874   5.564  16.394 -0.3392 -0.1458 -0.2656
 5054TIP3    H236578   4.955   5.438  16.416  0.8888  0.6230 -0.3277
 5055TIP3   OH236579   6.462   3.170   4.162  0.2681  0.5143  0.0064
 5055TIP3    H136580   6.463   3.160   4.067 -1.9361  0.7067 -0.0940
 5055TIP3    H236581   6.460   3.264   4.177 -1.7276  0.5133  0.0953
 5056TIP3   OH236582   4.074   4.723  14.506  0.2137  0.2313 -0.0214
 5056TIP3    H136583   3.982   4.736  14.525 -0.2327 -1.4773 -0.7559
 5056TIP3    H236584   4.082   4.734  14.412  0.5740 -0.4702 -0.0857
 5057TIP3   OH236585   2.635   0.167   1.677 -0.6932  0.2830 -0.0248
 5057TIP3    H136586   2.709   0.201   1.627  0.7071 -0.8201  1.2017
 5057TIP3    H236587   2.570   0.237   1.675  0.2483  1.1608 -1.4034
 5058TIP3   OH236588   1.543   4.468  12.659  0.2078  0.6903  0.7613
 5058TIP3    H136589   1.579   4.448  12.573  0.4723 -0.6717  1.1760
 5058TIP3    H236590   1.449   4.478  12.645  0.2632  0.5787  0.3087
 5059TIP3   OH236591   3.868   4.541   3.019 -0.2830  0.3754  0.6013
 5059TIP3    H136592   3.802   4.599   3.057 -0.0096  0.9796  0.1655
 5059TIP3    H236593   3.948   4.558   3.069 -0.1152  0.6215  0.2501
 5060TIP3   OH236594   5.136   0.361   0.316  0.6976  1.0478  0.1853
 5060TIP3    H136595   5.214   0.306   0.326  0.6333  0.6855 -1.1084
 5060TIP3    H236596   5.063   0.300   0.325  0.5769  1.2554  0.6265
 5061TIP3   OH236597   2.171   5.500  11.894 -0.1139 -0.1479  0.3315
 5061TIP3    H136598   2.202   5.432  11.953 -2.5012 -0.6696  1.0623
 5061TIP3    H236599   2.103   5.458  11.842  1.0233  0.6539 -1.9747
 5062TIP3   OH236600   0.529   6.119  13.596 -0.4075 -0.1993  0.2540
 5062TIP3    H136601   0.442   6.091  13.569 -0.0264 -0.1290 -1.1143
 5062TIP3    H236602   0.525   6.215  13.595 -0.4239 -0.1926  0.6088
 5063TIP3   OH236603   2.035   5.188  15.700  0.0765  0.4537 -0.0139
 5063TIP3    H136604   1.963   5.171  15.639  0.2214 -1.1172  0.2304
 5063TIP3    H236605   2.050   5.282  15.692 -1.0034  0.5622 -1.1779
 5064TIP3   OH236606   2.137   2.759  11.392  0.0336 -0.0267  0.4278
 5064TIP3    H136607   2.195   2.696  11.436  3.8129  1.5282 -1.8304
 5064TIP3    H236608   2.086   2.706  11.331 -2.4988 -1.6892  3.6579
 5065TIP3   OH236609   4.071   1.752  12.482 -0.3350 -0.3563  0.8481
 5065TIP3    H136610   3.983   1.761  12.517 -0.8980  0.0033 -0.6106
 5065TIP3    H236611   4.059   1.735  12.389  1.1522  0.3442  0.4948
 5066TIP3   OH236612   5.637   5.771   4.691 -0.3346 -0.6504 -0.0147
 5066TIP3    H136613   5.546   5.753   4.716 -0.6530 -1.2520 -1.4602
 5066TIP3    H236614   5.638   5.863   4.668 -1.0862 -1.0482 -1.8191
 5067TIP3   OH236615   0.041   1.009  15.054  0.2290 -0.0687 -0.1390
 5067TIP3    H136616   0.136   0.999  15.054  0.0145 -2.8144  0.5939
 5067TIP3    H236617   0.022   1.055  15.135  0.9045  0.3113 -0.1871
 5068TIP3   OH236618   4.328   2.953   4.903  0.2216 -0.0176  0.2532
 5068TIP3    H136619   4.356   3.041   4.875  0.7559 -0.4888 -0.7592
 5068TIP3    H236620   4.286   2.967   4.988  0.4245  1.1993  0.1734
 5069TIP3   OH236621   3.128   0.833   5.720 -0.1372  0.1830 -0.5610
 5069TIP3    H136622   3.049   0.786   5.694  0.6964 -1.0324 -1.0048
 5069TIP3    H236623   3.097   0.906   5.773 -1.6506  0.6958 -2.0969
 5070TIP3   OH236624   0.290   0.778   5.204 -0.4855 -0.2091  0.1863
 5070TIP3    H136625   0.280   0.806   5.113 -0.4537  0.0711  0.2662
 5070TIP3    H236626   0.201   0.768   5.236 -0.5065  0.3040  0.3044
 5071TIP3   OH236627   5.405   1.061  13.769 -0.3054  0.3228  0.1598
 5071TIP3    H136628   5.414   1.143  13.721 -0.5408  0.2492 -0.0137
 5071TIP3    H236629   5.331   1.016  13.727  0.7135 -0.6265 -0.6855
 5072TIP3   OH236630   6.443   0.514  15.487 -0.1674 -0.1789  0.6034
 5072TIP3    H136631   6.371   0.458  15.518 -0.8997 -0.0031 -0.6928
 5072TIP3    H236632   6.423   0.601  15.523  1.2858 -0.7751  3.1154
 5073TIP3   OH236633   1.107   5.668   5.020 -0.1470 -0.1713  0.1764
 5073TIP3    H136634   1.062   5.746   4.989 -0.9457 -1.5293 -2.4743
 5073TIP3    H236635   1.062   5.643   5.100 -0.6976  1.3639  0.3671
 5074TIP3   OH236636   1.015   3.064   2.184 -0.0567 -0.4737  1.2796
 5074TIP3    H136637   1.099   3.021   2.200  0.8987  1.9904  3.7397
 5074TIP3    H236638   1.033   3.124   2.112 -0.1890 -1.0866  0.7274
 5075TIP3   OH236639   3.605   5.511  13.250 -0.0962 -0.1399 -0.1773
 5075TIP3    H136640   3.610   5.461  13.168  1.6271  1.8830 -1.4327
 5075TIP3    H236641   3.578   5.448  13.316 -1.4408 -1.8835 -2.2753
 5076TIP3   OH236642   4.174   2.254  14.035 -0.0695 -0.5352 -0.0731
 5076TIP3    H136643   4.192   2.335  14.083  2.9472 -2.2096  2.0005
 5076TIP3    H236644   4.090   2.224  14.069 -0.0453  0.4882  0.9480
 5077TIP3   OH236645   4.866   5.644  12.934 -0.5299  0.6115 -0.2303
 5077TIP3    H136646   4.918   5.670  12.858 -0.3083 -0.8723 -0.6185
 5077TIP3    H236647   4.800   5.585  12.899  0.3909 -1.1514  0.8672
 5078TIP3   OH236648   0.278   5.656  16.528 -0.0223  0.1196 -0.3256
 5078TIP3    H136649   0.225   5.732  16.552  0.0606  0.4205 -1.0716
 5078TIP3    H236650   0.228   5.613  16.458 -0.3470 -0.8349  0.4704
 5079TIP3   OH236651   5.429   2.074   0.052 -0.2246 -0.2261 -0.3248
 5079TIP3    H136652   5.393   2.132   0.120  1.9358 -1.2037  1.8036
 5079TIP3    H236653   5.445   2.132  -0.023 -1.3386  1.1970  0.4775
 5080TIP3   OH236654   3.943   0.507  11.190 -0.2810 -1.2651 -0.5271
 5080TIP3    H136655   3.857   0.514  11.148 -1.2215 -1.7924  1.1618
 5080TIP3    H236656   3.946   0.416  11.222  0.3209 -0.8792  0.5803
 5081TIP3   OH236657   1.959   1.786   0.784  0.2606 -0.1808 -0.1865
 5081TIP3    H136658   1.937   1.842   0.858 -1.8987 -1.0239 -0.1100
 5081TIP3    H236659   1.996   1.707   0.824 -1.9836 -1.1323  0.1709
 5082TIP3   OH236660   1.744   1.026   1.311 -0.1647 -0.0651 -0.6065
 5082TIP3    H136661   1.673   1.030   1.376 -0.4042  2.7135 -0.9075
 5082TIP3    H236662   1.824   1.017   1.362 -0.4788  0.5811  0.0205
 5083TIP3   OH236663   6.281   1.127  13.938 -0.2554 -0.1189 -0.4169
 5083TIP3    H136664   6.284   1.173  14.021 -0.8438 -0.2838 -0.2976
 5083TIP3    H236665   6.244   1.041  13.960 -1.7533  0.3336 -1.0548
 5084TIP3   OH236666   6.051   1.239   3.931 -0.4793 -0.6641  0.5263
 5084TIP3    H136667   6.069   1.305   3.999  1.9822 -0.1296 -0.5146
 5084TIP3    H236668   5.958   1.249   3.912 -0.4191  1.7951  1.1632
 5085TIP3   OH236669   2.843   2.975   1.163  0.0159 -0.9102 -0.1694
 5085TIP3    H136670   2.779   3.040   1.193  0.5200 -0.7729  0.6533
 5085TIP3    H236671   2.898   3.022   1.100  0.6433 -0.3903  0.7345
 5086TIP3   OH236672   2.209   6.453  13.480 -0.0876 -0.2359  0.2416
 5086TIP3    H136673   2.281   6.486  13.425 -0.8968  0.2829 -0.5323
 5086TIP3    H236674   2.135   6.445  13.420 -0.7789 -0.4207  1.1009
 5087TIP3   OH236675   5.693   5.532  16.228  0.2611  0.0206 -0.3426
 5087TIP3    H136676   5.600   5.509  16.222  0.3146 -0.6175  0.9375
 5087TIP3    H236677   5.706   5.596  16.158 -1.4639  1.1709  0.3130
 5088TIP3   OH236678   3.973   2.400   1.716  0.7109 -0.1104  0.3250
 5088TIP3    H136679   3.969   2.341   1.791 -0.1801 -1.4812 -0.7550
 5088TIP3    H236680   4.066   2.420   1.706  0.7818  0.7503  2.2435
 5089TIP3   OH236681   5.545   1.569   3.190  0.0291 -0.1424 -0.6587
 5089TIP3    H136682   5.480   1.608   3.249  1.9126  0.6672  0.9674
 5089TIP3    H236683   5.602   1.641   3.166  0.3269 -0.8368 -2.1095
 5090TIP3   OH236684   3.730   0.909  15.070 -0.5452 -0.2501 -0.5355
 5090TIP3    H136685   3.645   0.916  15.113 -0.4412 -1.6997 -0.0480
 5090TIP3    H236686   3.716   0.848  14.998 -0.3364  0.9353 -1.6150
 5091TIP3   OH236687   2.950   6.312  15.402  0.3226  0.6850 -0.1775
 5091TIP3    H136688   3.009   6.317  15.477  0.6008  3.1302 -0.4752
 5091TIP3    H236689   2.926   6.219  15.396  2.1033  0.0578  1.4975
 5092TIP3   OH236690   2.402   5.380  13.565  0.1487  0.1676 -0.2533
 5092TIP3    H136691   2.423   5.447  13.630  1.2352 -0.4669  0.0704
 5092TIP3    H236692   2.372   5.429  13.488  0.4572  0.9921  0.1430
 5093TIP3   OH236693   3.445   0.283   5.948 -0.1003  0.2105 -0.2901
 5093TIP3    H136694   3.477   0.202   5.986  1.8773  1.5436  1.0963
 5093TIP3    H236695   3.437   0.264   5.855 -0.5591 -1.8083  0.1144
 5094TIP3   OH236696   1.702   0.016  13.709 -0.1421 -0.0189  0.4013
 5094TIP3    H136697   1.609   0.007  13.730 -0.0272  0.2534  1.0486
 5094TIP3    H236698   1.721   0.109  13.727 -0.1214  0.3284 -1.2678
 5095TIP3   OH236699   0.549   6.269  15.226 -0.1956  0.5910  0.1934
 5095TIP3    H136700   0.529   6.178  15.205  1.8113 -0.2226  1.5045
 5095TIP3    H236701   0.560   6.312  15.141  0.0569 -0.6859 -0.4313
 5096TIP3   OH236702   2.050   2.130  11.855 -0.4485 -0.0376 -0.0949
 5096TIP3    H136703   2.137   2.151  11.890 -0.9428  1.4070  0.3349
 5096TIP3    H236704   2.056   2.151  11.762  0.2406 -1.9171 -0.5387
 5097TIP3   OH236705   2.385   5.726   3.789 -0.2262  0.0499 -0.0476
 5097TIP3    H136706   2.397   5.820   3.804 -0.4703  0.4549 -2.0793
 5097TIP3    H236707   2.310   5.703   3.844  0.2501  0.8699  0.9911
 5098TIP3   OH236708   5.816   0.775  11.957  0.1685 -0.5818  0.6611
 5098TIP3    H136709   5.769   0.695  11.979  0.0427 -0.8591 -0.5538
 5098TIP3    H236710   5.888   0.779  12.020 -0.8057 -0.7436  1.8218
 5099TIP3   OH236711   1.009   6.708   2.930  0.1337  0.5341  0.0379
 5099TIP3    H136712   0.968   6.625   2.905  0.7489  0.2744 -0.1280
 5099TIP3    H236713   1.090   6.682   2.975 -0.2189  1.0276  0.9667
 5100TIP3   OH236714   1.299   6.547  14.803 -0.3007  0.1841 -0.8260
 5100TIP3    H136715   1.314   6.635  14.768 -0.2248  0.8268  0.7742
 5100TIP3    H236716   1.380   6.499  14.785  0.1174  0.8073 -0.6189
 5101TIP3   OH236717   1.068   3.442   0.134  0.6500 -0.2086  0.3439
 5101TIP3    H136718   0.974   3.428   0.147  0.8527 -0.2804  1.9552
 5101TIP3    H236719   1.085   3.527   0.174  0.8389  1.1117 -2.3499
 5102TIP3   OH236720   3.217   1.110  14.023 -0.9763 -0.2314  0.6928
 5102TIP3    H136721   3.139   1.145  14.065 -0.3284  0.6265  1.2331
 5102TIP3    H236722   3.289   1.140  14.079 -0.0530  1.1612 -1.1169
 5103TIP3   OH236723   1.538   2.816   1.293  0.6018 -0.0363  0.0039
 5103TIP3    H136724   1.557   2.832   1.385  0.1568 -0.6174  0.1969
 5103TIP3    H236725   1.475   2.744   1.293 -1.6056  1.7855 -0.6083
 5104TIP3   OH236726   3.475   0.552  16.221 -0.1940 -0.5980  0.5149
 5104TIP3    H136727   3.471   0.464  16.258  1.5098 -0.3763  1.3592
 5104TIP3    H236728   3.568   0.567  16.205 -0.2049  1.6571  1.9955
 5105TIP3   OH236729   0.171   2.830   5.382 -0.5470 -0.6754  0.3914
 5105TIP3    H136730   0.127   2.756   5.424 -2.4611  1.0320  1.6003
 5105TIP3    H236731   0.147   2.823   5.290 -1.1259 -1.2612  0.5752
 5106TIP3   OH236732   3.734   5.683  15.979  0.7431 -0.4166  0.2099
 5106TIP3    H136733   3.813   5.736  15.977 -0.4122  1.4651  1.2514
 5106TIP3    H236734   3.668   5.740  16.018 -1.9691 -0.7021 -3.4202
 5107TIP3   OH236735   2.902   3.076  16.941  0.7545 -0.5129  0.1406
 5107TIP3    H136736   2.952   3.157  16.929  0.5612 -0.6494 -1.7987
 5107TIP3    H236737   2.881   3.047  16.853 -3.8726  0.2088  0.7452
 5108TIP3   OH236738   2.839   2.738   0.277  0.9990  0.3926  0.1436
 5108TIP3    H136739   2.834   2.658   0.223  1.1507  0.7739 -0.4464
 5108TIP3    H236740   2.920   2.780   0.249  0.5163  1.1591 -0.1262
 5109TIP3   OH236741   5.921   1.248  14.142 -0.0244 -0.0759 -0.7772
 5109TIP3    H136742   5.846   1.258  14.201  0.5574 -0.4748  0.0606
 5109TIP3    H236743   5.969   1.330  14.151 -0.4346  0.2437 -1.4353
 5110TIP3   OH236744   4.163   0.629  16.077  0.0845 -0.9435 -0.1570
 5110TIP3    H136745   4.240   0.639  16.133  0.4258  1.0501 -0.9056
 5110TIP3    H236746   4.178   0.548  16.029 -0.0390 -2.5209  2.2939
 5111TIP3   OH236747   5.921   3.535   2.771 -0.0938  0.4527  0.3854
 5111TIP3    H136748   5.854   3.584   2.722  1.4187 -0.8265 -3.3476
 5111TIP3    H236749   5.877   3.453   2.794 -0.8632  1.1139  1.3640
 5112TIP3   OH236750   6.615   5.303   0.682 -0.2699 -0.0866  0.3014
 5112TIP3    H136751   6.640   5.240   0.615 -0.4258 -0.6970  0.8083
 5112TIP3    H236752   6.529   5.335   0.655 -0.0703  0.1121 -0.0996
 5113TIP3   OH236753   1.769   6.686   2.889  0.1546  0.6119  0.5137
 5113TIP3    H136754   1.683   6.668   2.928  0.5242 -1.0904  0.6233
 5113TIP3    H236755   1.829   6.629   2.937  1.2854  1.4546  0.1344
 5114TIP3   OH236756   1.301   1.123  15.924 -0.2294  0.4831  0.3778
 5114TIP3    H136757   1.234   1.173  15.971  0.2338  2.4305 -0.8900
 5114TIP3    H236758   1.381   1.138  15.974 -0.4158 -0.5506  1.0146
 5115TIP3   OH236759   5.844   2.369  12.777 -0.2913 -0.1847 -0.5356
 5115TIP3    H136760   5.878   2.439  12.832 -1.5883 -0.5827  0.8207
 5115TIP3    H236761   5.752   2.361  12.802 -0.1000 -2.5871 -0.4214
 5116TIP3   OH236762   0.480   6.150   6.842  0.1289  0.2688 -0.5243
 5116TIP3    H136763   0.422   6.075   6.836 -0.3152  0.5701 -0.0716
 5116TIP3    H236764   0.568   6.112   6.851  0.0223 -0.1821 -1.3718
 5117TIP3   OH236765   2.719   1.408  12.847 -0.3911  0.0560 -0.1760
 5117TIP3    H136766   2.744   1.464  12.774  0.2300 -0.4821 -0.3923
 5117TIP3    H236767   2.639   1.447  12.882  0.3682  1.4507  0.0885
 5118TIP3   OH236768   1.715   2.961  16.960 -0.4277 -0.5860  0.4151
 5118TIP3    H136769   1.753   2.875  16.942  1.4446  0.2110  0.3335
 5118TIP3    H236770   1.667   2.950  17.042  1.0096 -1.3957  1.1908
 5119TIP3   OH236771   6.759   0.269  17.169  0.1331 -0.3150 -0.6487
 5119TIP3    H136772   6.792   0.179  17.178  2.4396  0.4579 -0.7227
 5119TIP3    H236773   6.794   0.299  17.085  2.0238  1.6367  0.7435
 5120TIP3   OH236774   2.999   0.587  15.813 -0.0810  0.0048  0.7392
 5120TIP3    H136775   3.073   0.647  15.825  0.1856 -0.6580  2.9614
 5120TIP3    H236776   3.038   0.507  15.778 -0.1444  0.4651 -0.4088
 5121TIP3   OH236777   2.916   6.635   6.479 -0.2475 -0.1169  0.5115
 5121TIP3    H136778   2.862   6.590   6.414 -0.7655 -0.8590  1.4387
 5121TIP3    H236779   2.901   6.728   6.462  1.2420 -0.2075 -1.7731
 5122TIP3   OH236780   2.026   5.742   0.218  0.3783 -0.1133  0.2880
 5122TIP3    H136781   2.043   5.675   0.152  0.2817  0.1053  0.0414
 5122TIP3    H236782   2.098   5.805   0.207  0.0891  0.1787  0.0600
 5123TIP3   OH236783   3.324   1.606   3.752  0.0200  0.0225 -0.2665
 5123TIP3    H136784   3.326   1.517   3.719  1.0635  0.4765 -1.5056
 5123TIP3    H236785   3.256   1.605   3.819 -0.1924 -1.6193 -0.4639
 5124TIP3   OH236786   6.686   3.507  12.531  0.5591  0.2222  0.7382
 5124TIP3    H136787   6.658   3.419  12.508 -0.2559  0.5322  0.4786
 5124TIP3    H236788   6.781   3.503  12.533  0.5710 -0.3992 -0.3724
 5125TIP3   OH236789   6.723   5.353   3.462  0.0476 -0.4237 -0.2288
 5125TIP3    H136790   6.655   5.390   3.406 -0.1582  1.1808  0.9983
 5125TIP3    H236791   6.790   5.321   3.402 -0.1945  1.1613 -1.3939
 5126TIP3   OH236792   0.155   6.116   3.677  0.6070 -0.0070  0.4883
 5126TIP3    H136793   0.187   6.162   3.755 -0.0909 -0.3589  0.9897
 5126TIP3    H236794   0.208   6.036   3.673  0.9228  0.2052  0.3616
 5127TIP3   OH236795   2.467   4.254   3.224  0.0849  0.5768 -0.9362
 5127TIP3    H136796   2.451   4.166   3.190  1.6262  0.1190 -0.5424
 5127TIP3    H236797   2.556   4.275   3.198  1.8221 -0.2101  3.3915
 5128TIP3   OH236798   6.758   1.164   5.534 -0.1398  0.2548  0.1781
 5128TIP3    H136799   6.822   1.101   5.500  0.3914  1.6403 -1.5064
 5128TIP3    H236800   6.766   1.240   5.476 -1.6642  1.3823  1.3790
 5129TIP3   OH236801   3.524   0.408  11.944 -0.0732 -0.1751  0.0038
 5129TIP3    H136802   3.579   0.353  12.000  0.4834 -0.3882 -0.7408
 5129TIP3    H236803   3.511   0.357  11.865 -0.9811  0.0644 -0.0058
 5130TIP3   OH236804   0.132   6.073   6.030  0.2460 -0.3352  0.6431
 5130TIP3    H136805   0.206   6.128   6.001 -0.7499 -0.6506 -3.0258
 5130TIP3    H236806   0.125   6.006   5.962 -4.6449  0.9344 -0.4841
 5131TIP3   OH236807   3.798   3.495   2.776  0.2378 -0.3657 -0.1693
 5131TIP3    H136808   3.717   3.510   2.825  1.6283  1.0049  1.8792
 5131TIP3    H236809   3.833   3.413   2.811  0.1450 -0.5182 -0.4363
 5132TIP3   OH236810   6.126   1.966  16.130  0.3215  0.2400 -0.2052
 5132TIP3    H136811   6.149   1.876  16.111 -0.5041  0.3171 -1.7902
 5132TIP3    H236812   6.145   2.013  16.048  0.5406  1.4589  0.5233
 5133TIP3   OH236813   1.353   4.982   2.191 -0.0447  0.3798  0.7400
 5133TIP3    H136814   1.360   5.076   2.174 -0.1617  0.2980  0.2353
 5133TIP3    H236815   1.289   4.950   2.127  0.1911 -0.0906  0.7304
 5134TIP3   OH236816   4.610   3.931   5.696  0.0403  0.3415  0.2150
 5134TIP3    H136817   4.691   3.900   5.735 -0.1682 -0.9937 -0.3567
 5134TIP3    H236818   4.584   3.862   5.635 -0.9587  1.2273 -0.4209
 5135TIP3   OH236819   4.477   3.542  15.363  0.0758 -0.1957  0.4763
 5135TIP3    H136820   4.484   3.591  15.445 -0.9038  1.7060 -0.5288
 5135TIP3    H236821   4.446   3.606  15.299 -0.1304 -1.8719 -1.1719
 5136TIP3   OH236822   0.158   5.980   0.449 -0.3522  0.3602  0.3762
 5136TIP3    H136823   0.191   5.890   0.448  0.5811  0.6715  1.5979
 5136TIP3    H236824   0.199   6.021   0.373 -2.4640 -0.7626 -1.5274
 5137TIP3   OH236825   6.194   1.877  11.750  0.2683  0.0218 -0.1478
 5137TIP3    H136826   6.144   1.903  11.673  0.0754 -0.5611 -0.2206
 5137TIP3    H236827   6.161   1.791  11.773  1.7868 -0.7501 -0.6887
 5138TIP3   OH236828   6.603   3.951   0.121  0.1198 -0.5440  0.0502
 5138TIP3    H136829   6.650   3.868   0.108 -1.0453 -1.4362  1.3019
 5138TIP3    H236830   6.648   4.012   0.063 -0.5884 -2.6299 -2.9671
 5139TIP3   OH236831   5.074   3.452  12.063 -0.0704  0.1732 -0.1994
 5139TIP3    H136832   5.121   3.373  12.088 -0.8430 -0.8926 -1.9291
 5139TIP3    H236833   5.127   3.491  11.994 -1.2055 -0.5214 -1.4925
 5140TIP3   OH236834   3.496   2.225  13.822  0.0897 -0.5223 -0.1358
 5140TIP3    H136835   3.417   2.182  13.787 -0.4720  0.5279 -0.2034
 5140TIP3    H236836   3.561   2.216  13.752 -0.3843 -0.2484 -0.6168
 5141TIP3   OH236837   1.611   5.106   1.396  0.4160 -0.0303  0.3422
 5141TIP3    H136838   1.551   5.036   1.371  1.3553 -1.1397  1.0835
 5141TIP3    H236839   1.592   5.122   1.489  0.7626  0.1150  0.3931
 5142TIP3   OH236840   0.245   1.184  14.814  1.3790 -0.2039 -0.0697
 5142TIP3    H136841   0.323   1.238  14.802  0.2793  1.7770  1.1687
 5142TIP3    H236842   0.211   1.172  14.726  1.2175  1.8764 -0.3404
 5143TIP3   OH236843   0.695   3.688  14.459 -0.2965  0.6626 -0.1980
 5143TIP3    H136844   0.717   3.768  14.413  0.9393 -0.1253 -1.0168
 5143TIP3    H236845   0.759   3.682  14.530  1.9894 -1.3473 -2.2564
 5144TIP3   OH236846   0.680   0.347  15.053 -0.4544  0.2588  0.3377
 5144TIP3    H136847   0.640   0.414  14.998 -0.2582  1.8532  2.0186
 5144TIP3    H236848   0.716   0.284  14.992 -3.6248 -0.1694 -1.3113
 5145TIP3   OH236849   2.123   0.500  16.316 -0.2737 -0.3246  0.1262
 5145TIP3    H136850   2.107   0.576  16.372 -2.4815 -1.1181  0.6693
 5145TIP3    H236851   2.181   0.444  16.369 -0.0621  0.1854  0.4462
 5146TIP3   OH236852   2.662   4.166   4.368  0.0973 -0.0563 -0.3994
 5146TIP3    H136853   2.718   4.136   4.297  0.7136 -0.7307  0.3504
 5146TIP3    H236854   2.722   4.204   4.432 -0.0449 -2.2419  1.1630
 5147TIP3   OH236855   2.632   2.632  16.729 -0.1759 -0.6466 -0.0406
 5147TIP3    H136856   2.617   2.539  16.716 -1.2586 -0.7568  1.6490
 5147TIP3    H236857   2.665   2.639  16.818  1.4994  0.4734 -0.6978
 5148TIP3   OH236858   6.011   4.025  14.783  0.5279  0.1066  0.1600
 5148TIP3    H136859   6.040   4.079  14.710 -0.0411 -1.1900 -1.0662
 5148TIP3    H236860   5.916   4.020  14.774  0.6365 -1.9655 -0.4418
 5149TIP3   OH236861   1.130   3.267   5.848 -0.2408 -0.0869 -0.3425
 5149TIP3    H136862   1.188   3.309   5.912 -0.5342 -0.8202  0.4225
 5149TIP3    H236863   1.088   3.340   5.803  1.1145  0.4642 -0.7818
 5150TIP3   OH236864   3.468   2.083  15.456 -0.0855 -0.1912 -0.6082
 5150TIP3    H136865   3.457   2.170  15.417 -0.5549  0.0963  0.1471
 5150TIP3    H236866   3.420   2.024  15.397 -0.0399  0.1123 -0.9466
 5151TIP3   OH236867   5.900   3.398   4.958  0.1020 -0.7559  0.2438
 5151TIP3    H136868   5.816   3.397   5.005 -0.1315 -0.7809 -0.1670
 5151TIP3    H236869   5.882   3.349   4.878  0.1645  0.3164 -0.4388
 5152TIP3   OH236870   1.764   5.758   0.420 -0.3441  0.1106 -0.4663
 5152TIP3    H136871   1.851   5.771   0.384  0.9364  1.4104  2.7117
 5152TIP3    H236872   1.750   5.664   0.419  0.7885 -0.0575 -1.6532
 5153TIP3   OH236873   5.760   2.254  16.603  0.2349  0.3272  0.1652
 5153TIP3    H136874   5.736   2.180  16.547  0.1824  0.2525  0.2864
 5153TIP3    H236875   5.817   2.308  16.548  0.3391  0.1558  0.1030
 5154TIP3   OH236876   3.112   4.523  12.830  0.5524 -0.6612 -0.0420
 5154TIP3    H136877   3.106   4.440  12.878 -0.2504 -0.7361 -0.2498
 5154TIP3    H236878   3.107   4.497  12.738 -0.2466 -0.3556 -0.0959
 5155TIP3   OH236879   2.569   4.738   6.534  0.4158 -0.5180 -0.1636
 5155TIP3    H136880   2.660   4.708   6.538  0.4866 -0.2955 -0.0504
 5155TIP3    H236881   2.534   4.699   6.454  0.6055 -0.6243 -0.1957
 5156TIP3   OH236882   3.326   0.605  13.182 -0.0768 -0.2032 -0.0086
 5156TIP3    H136883   3.283   0.653  13.111 -2.1763 -0.6109  0.8918
 5156TIP3    H236884   3.281   0.635  13.261  1.3983 -0.6355  1.0272
 5157TIP3   OH236885   2.371   0.635  16.227  0.2802 -0.4293  0.7046
 5157TIP3    H136886   2.317   0.563  16.261 -1.0777  0.5817  0.7643
 5157TIP3    H236887   2.400   0.682  16.305 -0.6428  0.3414  0.5980
 5158TIP3   OH236888   2.647   1.186  12.213 -0.5294  0.3713 -0.1454
 5158TIP3    H136889   2.703   1.116  12.244  0.4670  1.3047  0.2293
 5158TIP3    H236890   2.680   1.265  12.257 -1.3418  1.1394 -0.8690
 5159TIP3   OH236891   3.477   0.601  12.476 -0.1495 -0.0610  0.1800
 5159TIP3    H136892   3.456   0.509  12.491  0.9926 -0.1807  1.1800
 5159TIP3    H236893   3.473   0.641  12.563 -1.7441  1.1012 -0.3898
 5160TIP3   OH236894   6.643   6.075   0.698 -0.0524 -0.4731 -0.2106
 5160TIP3    H136895   6.556   6.111   0.682 -0.5529 -1.8289 -0.6608
 5160TIP3    H236896   6.637   6.036   0.785  1.2024  2.5299  1.3603
 5161TIP3   OH236897   2.548   4.761  11.788 -0.3117  0.3624 -0.2064
 5161TIP3    H136898   2.567   4.669  11.806  1.1869  0.7001  0.0666
 5161TIP3    H236899   2.485   4.759  11.715 -0.2063 -0.8693 -0.2762
 5162TIP3   OH236900   2.985   3.809  16.722  0.0575  0.2254  0.1545
 5162TIP3    H136901   2.997   3.892  16.676  0.8031 -0.3570 -0.7041
 5162TIP3    H236902   2.894   3.813  16.753 -0.1374  1.0592 -0.4804
 5163TIP3   OH236903   0.107   2.824   1.746 -0.0179  0.2177 -0.1194
 5163TIP3    H136904   0.022   2.864   1.768 -0.2724 -1.1905  1.6235
 5163TIP3    H236905   0.133   2.777   1.825  0.8649 -2.0228 -1.6325
 5164TIP3   OH236906   0.862   5.718   2.043 -0.0470  0.4591 -0.0108
 5164TIP3    H136907   0.778   5.701   2.000  0.5667  0.7123 -1.3489
 5164TIP3    H236908   0.918   5.753   1.974  1.6684 -1.1966  0.4728
 5165TIP3   OH236909   3.222   0.660  16.970  0.7729 -0.3618 -0.6135
 5165TIP3    H136910   3.316   0.653  16.955  0.7174 -1.0709 -0.6616
 5165TIP3    H236911   3.182   0.634  16.887  0.5259 -0.5863 -0.4252
 5166TIP3   OH236912   6.647   1.974   0.364  0.2492  0.0110 -0.0654
 5166TIP3    H136913   6.724   2.026   0.340 -0.1294  0.9492  0.6719
 5166TIP3    H236914   6.650   1.970   0.460 -1.0996  0.8794  0.0424
 5167TIP3   OH236915   3.619   4.172  13.191  0.2917 -0.3362  0.4166
 5167TIP3    H136916   3.662   4.139  13.270 -0.8736 -0.2797  1.1129
 5167TIP3    H236917   3.526   4.177  13.216  0.0533  0.6956 -0.6166
 5168TIP3   OH236918   2.234   5.023  17.158 -0.1059  0.1052 -0.8667
 5168TIP3    H136919   2.253   5.113  17.184 -0.3372  0.3658 -1.5530
 5168TIP3    H236920   2.229   4.974  17.240 -2.2076  1.1455 -0.3046
 5169TIP3   OH236921   4.770   6.208  12.578  0.7159 -0.0173 -0.1185
 5169TIP3    H136922   4.723   6.154  12.642  0.5931  1.2551  0.9024
 5169TIP3    H236923   4.702   6.239  12.518  0.1114  2.0989  1.5551
 5170TIP3   OH236924   1.080   2.858   5.619 -0.0464  0.1419  0.1283
 5170TIP3    H136925   1.021   2.911   5.672  1.0855  0.1520  1.4188
 5170TIP3    H236926   1.043   2.769   5.623  0.1522  0.0891  1.1735
 5171TIP3   OH236927   1.295   5.353  14.778 -0.5178  1.1374  0.1148
 5171TIP3    H136928   1.354   5.309  14.839  1.9193 -2.0070 -3.9340
 5171TIP3    H236929   1.225   5.289  14.762 -1.4969  2.1832  0.1025
 5172TIP3   OH236930   3.983   2.178   3.937 -0.1564  0.3413 -0.0453
 5172TIP3    H136931   3.960   2.157   4.027  2.6929  0.9830  0.9569
 5172TIP3    H236932   4.005   2.272   3.939  0.1280  0.3214 -1.3529
 5173TIP3   OH236933   2.472   2.564  15.653 -0.1147 -0.6176 -0.0745
 5173TIP3    H136934   2.551   2.540  15.604  0.2163  0.4653 -0.1128
 5173TIP3    H236935   2.488   2.655  15.679 -1.5438 -0.2393 -0.4643
 5174TIP3   OH236936   5.239   1.266  12.408  0.0997  0.6533  0.3338
 5174TIP3    H136937   5.299   1.217  12.465  0.1343 -0.4839 -0.6414
 5174TIP3    H236938   5.252   1.228  12.321 -2.1642  0.2317  0.1188
 5175TIP3   OH236939   0.331   0.348  16.220 -0.0315  0.1286  0.6730
 5175TIP3    H136940   0.259   0.344  16.283 -0.8518 -2.2240 -0.3079
 5175TIP3    H236941   0.397   0.289  16.256 -0.1557 -0.5797 -0.2302
 5176TIP3   OH236942   5.893   1.621   2.948 -0.8095 -0.2525  0.4486
 5176TIP3    H136943   5.836   1.561   2.900 -0.0110  1.0000 -2.3202
 5176TIP3    H236944   5.981   1.587   2.934 -0.3360  1.4494 -1.2151
 5177TIP3   OH236945   1.498   2.841   0.527 -0.6855 -0.3116 -0.5629
 5177TIP3    H136946   1.582   2.796   0.531 -0.3411  0.3277 -0.5259
 5177TIP3    H236947   1.520   2.933   0.512 -1.3689 -0.1071 -0.3641
 5178TIP3   OH236948   2.698   1.844   5.982 -0.2268  0.2808  0.2316
 5178TIP3    H136949   2.735   1.909   5.922  1.7307 -0.9333  0.0296
 5178TIP3    H236950   2.747   1.857   6.064  0.2725 -0.9737  0.1535
 5179TIP3   OH236951   1.595   0.282  16.261 -0.1784 -0.4241 -0.0431
 5179TIP3    H136952   1.676   0.255  16.218 -0.2662 -1.0893  0.2046
 5179TIP3    H236953   1.589   0.376  16.244  1.3515 -0.0828  1.0932
 5180TIP3   OH236954   6.056   3.759  11.583 -0.1965  0.2480  0.1784
 5180TIP3    H136955   5.969   3.784  11.553  0.0794  0.2874 -0.5968
 5180TIP3    H236956   6.102   3.728  11.505  0.3853 -0.0695  0.6299
 5181TIP3   OH236957   0.724   3.297  15.966 -0.1271 -0.6687  0.0987
 5181TIP3    H136958   0.818   3.279  15.958 -0.3072 -1.5524 -0.1482
 5181TIP3    H236959   0.695   3.242  16.039 -0.1931  0.6993  1.1568
 5182TIP3   OH236960   6.686   1.903   5.430  0.2465  0.0418 -0.8085
 5182TIP3    H136961   6.591   1.912   5.436  0.1527 -0.1211 -1.9065
 5182TIP3    H236962   6.700   1.811   5.407  0.5597  0.4859 -2.5345
 5183TIP3   OH236963   1.344   5.012   1.219  0.2480 -0.3261  0.6624
 5183TIP3    H136964   1.332   4.957   1.296  0.7950 -1.0537  0.2428
 5183TIP3    H236965   1.260   5.008   1.173  0.2735 -0.7808  0.6559
 5184TIP3   OH236966   4.997   3.548  13.302  0.0595  0.1989 -0.2374
 5184TIP3    H136967   4.917   3.548  13.249  0.3677  1.1061 -0.7231
 5184TIP3    H236968   4.970   3.584  13.387  0.0668  1.1495 -0.6185
 5185TIP3   OH236969   1.307   6.702   0.004 -0.5527  0.2012 -0.1760
 5185TIP3    H136970   1.365   6.654   0.063  0.0478 -0.0275 -0.9342
 5185TIP3    H236971   1.356   6.781  -0.019 -0.4435 -0.0895 -0.9777
 5186TIP3   OH236972   1.302   4.050   5.497  0.7727 -0.3418 -0.0598
 5186TIP3    H136973   1.223   4.057   5.443 -1.7152  1.3627  3.4056
 5186TIP3    H236974   1.339   4.138   5.497  1.7676 -0.7471 -0.3340
 5187TIP3   OH236975   5.426   2.692   2.246  0.1356  0.5005 -0.1399
 5187TIP3    H136976   5.334   2.704   2.269 -0.0637 -2.4275  1.0215
 5187TIP3    H236977   5.474   2.727   2.322 -0.0719  0.6633 -0.0819
 5188TIP3   OH236978   2.604   0.771   5.144  0.9968 -0.1140  0.5539
 5188TIP3    H136979   2.643   0.723   5.217 -0.2189 -0.4453  1.0074
 5188TIP3    H236980   2.535   0.713   5.112  2.6892 -0.8480 -2.1085
 5189TIP3   OH236981   4.185   3.756   5.323  0.0292 -0.1730 -0.2086
 5189TIP3    H136982   4.132   3.731   5.399  0.8761 -1.1386  0.0923
 5189TIP3    H236983   4.214   3.846   5.343 -0.4687 -0.0953  0.1954
 5190TIP3   OH236984   2.530   5.027   0.793  0.2699 -0.1571 -0.1730
 5190TIP3    H136985   2.460   4.994   0.850  0.8761 -0.6752  0.2870
 5190TIP3    H236986   2.563   4.949   0.748  0.6392  0.0619 -0.2846
 5191TIP3   OH236987   2.668   4.649   3.248 -0.1416  0.5244  0.5065
 5191TIP3    H136988   2.634   4.585   3.185 -0.3380 -0.0259  1.1595
 5191TIP3    H236989   2.651   4.610   3.334  0.3306  1.1601  0.8999
 5192TIP3   OH236990   3.637   2.847   2.923 -0.3111 -0.5063 -0.6243
 5192TIP3    H136991   3.621   2.935   2.889 -1.1283 -0.6250 -0.5611
 5192TIP3    H236992   3.622   2.856   3.017 -0.6301 -0.7751 -0.6534
 5193TIP3   OH236993   6.595   5.558   2.234  0.1052  0.3647 -0.0964
 5193TIP3    H136994   6.654   5.574   2.161 -0.0069 -1.1428 -0.5577
 5193TIP3    H236995   6.621   5.472   2.267 -0.4140  0.6414  1.0942
 5194TIP3   OH236996   3.683   4.663   3.604  0.0540  0.4128  0.0317
 5194TIP3    H136997   3.598   4.635   3.569 -0.4076  0.6255  0.9592
 5194TIP3    H236998   3.747   4.620   3.547 -0.6686 -0.0004 -0.4948
 5195TIP3   OH236999   0.268   4.205  16.580 -0.0671 -0.2220 -0.0832
 5195TIP3    H137000   0.242   4.296  16.577 -0.6438 -0.3878 -0.1801
 5195TIP3    H237001   0.360   4.205  16.555  0.2929  0.4680  1.1566
 5196TIP3   OH237002   2.080   6.075  17.048  0.1853 -0.0942 -0.5616
 5196TIP3    H137003   2.021   6.001  17.035 -1.0989  0.9380 -0.8064
 5196TIP3    H237004   2.080   6.089  17.143  0.9078 -0.7467 -0.4465
 5197TIP3   OH237005   0.207   5.451   5.861  0.4553  0.3175 -0.4623
 5197TIP3    H137006   0.192   5.500   5.780  3.0393  0.8308 -0.6921
 5197TIP3    H237007   0.167   5.506   5.929  1.0541  1.4975 -1.0298
 5198TIP3   OH237008   1.113   0.376  13.994 -0.1749  0.2231  0.9420
 5198TIP3    H137009   1.018   0.366  13.996 -0.3522  1.6706  0.5815
 5198TIP3    H237010   1.143   0.325  14.070 -1.1013 -1.2760  0.3618
 5199TIP3   OH237011   6.382   5.185   1.767  0.5574 -0.1059  0.1770
 5199TIP3    H137012   6.370   5.276   1.795  0.0454  0.0918 -0.6649
 5199TIP3    H237013   6.294   5.151   1.758  0.7059 -0.2371 -0.9424
 5200TIP3   OH237014   1.990   0.109  16.355  0.6149  0.5356 -0.1750
 5200TIP3    H137015   1.902   0.126  16.389 -0.1041 -0.0219 -1.6753
 5200TIP3    H237016   2.047   0.111  16.433 -0.5285  2.0303  0.6830
 5201TIP3   OH237017   2.382   1.825   2.258 -0.4987 -0.4126 -0.6340
 5201TIP3    H137018   2.403   1.836   2.165 -1.4065  0.3796 -0.7653
 5201TIP3    H237019   2.434   1.750   2.286  1.1059  0.3850 -1.3436
 5202TIP3   OH237020   4.338   4.091  14.453  0.2453 -0.3880  0.0885
 5202TIP3    H137021   4.351   3.999  14.479 -0.5577 -0.7494 -0.7324
 5202TIP3    H237022   4.244   4.097  14.434  0.0414  0.9396  1.3633
 5203TIP3   OH237023   5.584   1.174  11.131  0.2977 -0.1524 -0.3051
 5203TIP3    H137024   5.574   1.260  11.089 -0.2778 -0.7703 -1.4893
 5203TIP3    H237025   5.554   1.188  11.221  0.0831  0.8603 -0.5184
 5204TIP3   OH237026   0.207   1.564  15.669 -0.2662 -0.0569  0.1823
 5204TIP3    H137027   0.234   1.495  15.609 -0.4006 -1.0655  1.2606
 5204TIP3    H237028   0.137   1.610  15.622  1.4995  0.9935 -1.5947
 5205TIP3   OH237029   6.316   6.668   4.696  0.2113 -0.2882 -0.0196
 5205TIP3    H137030   6.341   6.721   4.620  0.7667 -0.5464 -0.0232
 5205TIP3    H237031   6.361   6.709   4.770 -0.6934  0.2351  0.2538
 5206TIP3   OH237032   2.862   3.815   2.261  0.0701  0.5746  0.6393
 5206TIP3    H137033   2.815   3.802   2.344  1.9723  1.2248  1.8998
 5206TIP3    H237034   2.794   3.810   2.194 -1.7731  1.3428  2.3280
 5207TIP3   OH237035   6.097   3.339  13.822  0.3125  0.3048  0.3556
 5207TIP3    H137036   6.111   3.351  13.728 -0.9020 -1.4799 -0.1077
 5207TIP3    H237037   6.045   3.414  13.848 -0.9724 -0.1269 -0.8428
 5208TIP3   OH237038   2.537   4.900  12.884 -0.4399  0.2132  0.4158
 5208TIP3    H137039   2.508   4.869  12.798 -0.0761 -0.2298  0.4492
 5208TIP3    H237040   2.554   4.993  12.871 -2.1114  0.5637  0.4632
 5209TIP3   OH237041   6.368   0.239   2.110 -0.2808  0.6458 -0.2564
 5209TIP3    H137042   6.437   0.269   2.051  0.5730  0.4531  0.6008
 5209TIP3    H237043   6.389   0.147   2.126  0.5633  1.1244  1.6970
 5210TIP3   OH237044   5.907   0.381   1.627  0.3137  0.1435 -0.3900
 5210TIP3    H137045   6.000   0.386   1.650 -0.1251  0.8276  1.4208
 5210TIP3    H237046   5.904   0.317   1.556  2.2153  0.4612 -0.8220
 5211TIP3   OH237047   3.223   4.574  12.073  0.0600 -0.0523  0.0847
 5211TIP3    H137048   3.181   4.659  12.082  0.3121 -0.0563  1.5656
 5211TIP3    H237049   3.307   4.592  12.030  0.1465  0.4690  0.4643
 5212TIP3   OH237050   0.856   0.548   1.435 -0.1174  0.2189  0.0768
 5212TIP3    H137051   0.827   0.627   1.390  1.6322  0.6251 -0.4260
 5212TIP3    H237052   0.861   0.482   1.366 -0.8702 -0.1504  0.3629
 5213TIP3   OH237053   2.430   1.174   3.810 -0.7022  0.1692 -0.0987
 5213TIP3    H137054   2.496   1.178   3.878 -0.4961  0.4040 -0.3102
 5213TIP3    H237055   2.346   1.170   3.857 -0.5059 -1.0428  0.1813
 5214TIP3   OH237056   6.776   6.594   0.390 -0.1074  0.1567 -0.0330
 5214TIP3    H137057   6.742   6.669   0.340 -0.7397  0.5513  0.9730
 5214TIP3    H237058   6.718   6.587   0.466  1.5458  0.3149  1.2975
 5215TIP3   OH237059   5.588   0.429   2.450 -0.0879 -0.4276  0.7266
 5215TIP3    H137060   5.584   0.429   2.545 -2.0826 -0.3407  0.6929
 5215TIP3    H237061   5.613   0.519   2.427  0.6505 -0.5149  1.1495
 5216TIP3   OH237062   6.676   2.274  13.090  0.1388 -0.5444 -0.1773
 5216TIP3    H137063   6.723   2.211  13.034  1.2427 -0.1980  0.3178
 5216TIP3    H237064   6.585   2.267  13.063 -0.1919 -3.9262  1.2638
 5217TIP3   OH237065   5.497   1.514   0.502 -0.2312 -0.2627 -0.5855
 5217TIP3    H137066   5.483   1.440   0.561  1.7351 -0.1816  0.0315
 5217TIP3    H237067   5.486   1.591   0.558  0.8583 -0.1718 -0.4753
 5218TIP3   OH237068   1.967   0.149   1.498  0.9372 -0.4168 -0.0801
 5218TIP3    H137069   1.967   0.244   1.507  3.0889 -0.5081  1.9990
 5218TIP3    H237070   1.992   0.133   1.407  2.0885  1.0402 -0.0554
 5219TIP3   OH237071   3.428   3.589  13.477  0.0491 -0.2772 -0.3044
 5219TIP3    H137072   3.343   3.626  13.502 -0.3256 -0.8231 -0.7496
 5219TIP3    H237073   3.486   3.665  13.473 -0.1987  0.0002  0.8753
 5220TIP3   OH237074   2.082   0.134   4.787 -0.2577  0.6706  0.3218
 5220TIP3    H137075   2.004   0.079   4.774  1.5134 -1.5520 -1.6308
 5220TIP3    H237076   2.128   0.094   4.861 -0.1267  0.9946  0.4201
 5221TIP3   OH237077   2.795   0.407   0.676 -0.5414  0.1408 -0.0975
 5221TIP3    H137078   2.791   0.374   0.586 -0.5380  2.3857 -0.9677
 5221TIP3    H237079   2.707   0.439   0.694  0.5373  4.2661 -1.2216
 5222TIP3   OH237080   5.460   2.191   3.931  0.6881  0.3741 -0.1400
 5222TIP3    H137081   5.396   2.247   3.975 -0.6282 -1.3615  0.2594
 5222TIP3    H237082   5.493   2.244   3.858  0.0148  1.8913  0.6254
 5223TIP3   OH237083   4.228   2.373  17.004 -0.5366  0.6926 -0.2979
 5223TIP3    H137084   4.201   2.289  17.039  0.0462  0.6430  0.0558
 5223TIP3    H237085   4.181   2.382  16.921  0.8170 -0.8478 -1.3079
 5224TIP3   OH237086   4.854   0.450  12.718  0.0848 -0.1092 -0.0387
 5224TIP3    H137087   4.850   0.544  12.702 -0.5305 -0.1180  0.0208
 5224TIP3    H237088   4.823   0.410  12.637  0.1203 -0.2555  0.0189
 5225TIP3   OH237089   5.427   2.178  11.925  0.0142 -0.1465 -0.6785
 5225TIP3    H137090   5.344   2.199  11.882  0.3024  1.8643 -0.3808
 5225TIP3    H237091   5.494   2.208  11.864  0.4357  1.8069  0.6503
 5226TIP3   OH237092   0.936   1.028  13.337 -0.3793 -0.4497  0.2448
 5226TIP3    H137093   0.977   0.945  13.361 -0.7349 -0.5593  0.4807
 5226TIP3    H237094   0.940   1.081  13.417 -0.3761 -0.3306  0.1666
 5227TIP3   OH237095   4.396   0.524  16.706  0.1538 -0.2219  0.3581
 5227TIP3    H137096   4.328   0.526  16.774  1.4046 -0.8928  1.6832
 5227TIP3    H237097   4.425   0.433  16.705 -0.8548 -0.5816 -2.1809
 5228TIP3   OH237098   6.770   2.399  10.735 -0.3016  0.5093 -0.2800
 5228TIP3    H137099   6.823   2.381  10.658 -1.4201  0.3812 -1.0434
 5228TIP3    H237100   6.680   2.391  10.705 -0.7778 -0.7970  1.3373
 5229TIP3   OH237101   3.081   4.843   5.363 -0.2010  0.5678  0.2799
 5229TIP3    H137102   3.044   4.920   5.320  1.7000  0.7436 -1.1768
 5229TIP3    H237103   3.040   4.769   5.319  0.6240  0.7591 -0.8566
 5230TIP3   OH237104   4.780   1.161   0.092  0.2297 -0.8894  0.4585
 5230TIP3    H137105   4.773   1.094   0.023  0.0461  0.0639 -0.4745
 5230TIP3    H237106   4.857   1.213   0.067 -0.8240  0.5084  0.0238
 5231TIP3   OH237107   1.125   3.182   3.622  0.4444 -0.1641  0.4052
 5231TIP3    H137108   1.126   3.275   3.645  1.3754 -0.1334  0.2728
 5231TIP3    H237109   1.133   3.137   3.707  2.8827 -0.0610  0.3119
 5232TIP3   OH237110   5.417   0.795  16.514 -0.2061  0.2891 -0.1991
 5232TIP3    H137111   5.454   0.791  16.426 -0.4250  0.1957 -0.2895
 5232TIP3    H237112   5.456   0.872  16.554 -0.1249  0.3449 -0.3884
 5233TIP3   OH237113   0.233   2.986  11.174 -0.2173 -0.2289  0.0058
 5233TIP3    H137114   0.178   3.015  11.246  0.8387  1.9415  0.0149
 5233TIP3    H237115   0.208   3.041  11.100  1.3883  0.3158 -0.1760
 5234TIP3   OH237116   0.038   3.038   4.201  0.1025  0.0854  0.0612
 5234TIP3    H137117   0.006   2.986   4.275  0.6761  0.2547  0.4398
 5234TIP3    H237118   0.120   3.077   4.233  0.9302 -0.6925 -1.0085
 5235TIP3   OH237119   2.708   6.615   3.807 -0.4169 -0.5323  0.3823
 5235TIP3    H137120   2.785   6.660   3.841  0.1699  0.2899 -1.8482
 5235TIP3    H237121   2.733   6.522   3.804  0.6169 -0.2528 -0.5072
 5236TIP3   OH237122   6.132   1.654   4.737  0.8392 -0.2538 -0.1928
 5236TIP3    H137123   6.117   1.595   4.663  0.3335 -0.0515 -0.2572
 5236TIP3    H237124   6.095   1.738   4.709  0.3516 -0.2579  0.4146
 5237TIP3   OH237125   4.637   4.130   5.183 -0.1440  0.1567  0.6002
 5237TIP3    H137126   4.672   4.151   5.096  1.4198  1.8128  1.5752
 5237TIP3    H237127   4.564   4.191   5.195 -1.1910 -0.9234 -0.0055
 5238TIP3   OH237128   3.327   6.429   5.161  0.1527  0.5120  0.2442
 5238TIP3    H137129   3.298   6.435   5.252 -1.5938 -0.0553 -0.2347
 5238TIP3    H237130   3.256   6.384   5.116  1.5631 -0.4372 -1.1590
 5239TIP3   OH237131   3.358   6.016   0.588  0.3505 -0.2387 -0.0979
 5239TIP3    H137132   3.353   6.091   0.647  0.6534  0.6451 -1.1654
 5239TIP3    H237133   3.267   5.991   0.572  0.2731 -0.6487  0.9271
 5240TIP3   OH237134   5.320   6.339  12.062 -0.2277  0.2293  0.4888
 5240TIP3    H137135   5.362   6.260  12.027 -0.1388  0.0952  0.8991
 5240TIP3    H237136   5.285   6.383  11.984  1.3644  0.7663  0.0425
 5241TIP3   OH237137   1.047   4.214  12.268  0.4655  0.4539 -0.1197
 5241TIP3    H137138   1.079   4.157  12.198 -1.6536 -2.6651  1.2059
 5241TIP3    H237139   0.978   4.265  12.227  0.3566 -0.1369 -0.6991
 5242TIP3   OH237140   3.486   6.128  15.794  0.0630 -0.5103 -0.0684
 5242TIP3    H137141   3.405   6.171  15.822  1.5417  1.7535  1.0461
 5242TIP3    H237142   3.495   6.053  15.852 -0.6108 -0.0648  0.6277
 5243TIP3   OH237143   4.218   5.723   3.038 -0.5201  1.2006  0.1439
 5243TIP3    H137144   4.292   5.769   3.079  0.6695  2.6341 -3.2522
 5243TIP3    H237145   4.249   5.633   3.029 -0.0915  1.2799  0.6884
 5244TIP3   OH237146   2.694   3.005   0.889 -0.1076  0.2622  0.3121
 5244TIP3    H137147   2.725   2.940   0.952 -0.9107 -1.9192 -1.4171
 5244TIP3    H237148   2.602   2.981   0.873 -0.9982  2.9267  0.8818
 5245TIP3   OH237149   3.040   1.820   1.691  0.5537 -0.9845 -0.3091
 5245TIP3    H137150   3.008   1.773   1.768 -1.5326 -2.2625 -1.8623
 5245TIP3    H237151   3.022   1.762   1.617  0.0627  1.2264 -2.0586
 5246TIP3   OH237152   0.673   5.639   4.721  0.3949 -0.2427 -0.0471
 5246TIP3    H137153   0.674   5.543   4.727  0.3411 -0.2428 -0.0374
 5246TIP3    H237154   0.728   5.659   4.645  0.0524 -0.3040 -0.3141
 5247TIP3   OH237155   5.538   5.442  11.220 -0.0279 -0.6661 -0.0362
 5247TIP3    H137156   5.485   5.441  11.141  0.9058 -0.8078 -0.6817
 5247TIP3    H237157   5.621   5.481  11.193 -0.4122  1.2921  1.3654
 5248TIP3   OH237158   1.062   4.650   1.053  0.1858  0.2149 -0.1758
 5248TIP3    H137159   1.041   4.701   1.131 -1.2499 -0.3161 -0.1851
 5248TIP3    H237160   1.098   4.568   1.087  2.0573  0.9885 -0.1548
 5249TIP3   OH237161   2.015   5.945  16.029  0.1698  0.2350 -0.3973
 5249TIP3    H137162   1.937   5.892  16.044  0.5361 -0.1533  0.1745
 5249TIP3    H237163   2.038   5.980  16.115  2.5426 -2.3625  0.1702
 5250TIP3   OH237164   2.192   2.494  15.627 -0.3170 -0.1773  0.3644
 5250TIP3    H137165   2.282   2.528  15.623 -0.7275  0.9525  0.1916
 5250TIP3    H237166   2.145   2.556  15.683 -1.1489 -0.3657 -0.1012
 5251TIP3   OH237167   2.883   1.711   3.845 -0.3132 -0.4764 -0.1788
 5251TIP3    H137168   2.900   1.634   3.791 -0.4937 -0.1566 -0.7011
 5251TIP3    H237169   2.808   1.754   3.803 -1.0068 -0.6773  0.8060
 5252TIP3   OH237170   2.614   1.180   3.500 -0.0729 -0.6397 -0.0211
 5252TIP3    H137171   2.589   1.151   3.588  0.3785  3.8861  1.8837
 5252TIP3    H237172   2.531   1.191   3.454 -0.5200 -0.4757  0.7973
 5253TIP3   OH237173   1.710   1.826   4.582 -0.3585 -0.2576 -1.0579
 5253TIP3    H137174   1.618   1.853   4.586 -0.7860 -1.7601  0.2754
 5253TIP3    H237175   1.710   1.749   4.525  0.0432 -0.3628 -0.9171
 5254TIP3   OH237176   5.126   4.778   1.239  0.1181 -0.0933  0.1299
 5254TIP3    H137177   5.078   4.772   1.322 -2.0474 -0.4762 -1.0854
 5254TIP3    H237178   5.198   4.839   1.258 -0.9049  0.6308  2.0000
 5255TIP3   OH237179   3.009   5.191   4.422  0.4374  0.5227 -0.6575
 5255TIP3    H137180   2.931   5.136   4.411  0.6398 -0.0920  0.7389
 5255TIP3    H237181   3.071   5.135   4.469  1.7796  0.9702 -1.8159
 5256TIP3   OH237182   5.218   1.035   0.167  0.3234 -0.6314  0.4821
 5256TIP3    H137183   5.143   0.988   0.201  0.2688 -1.3774 -0.6247
 5256TIP3    H237184   5.226   1.112   0.223 -0.4208 -1.2488  1.4588
 5257TIP3   OH237185   3.868   0.863  11.393  0.5322 -0.3921  0.1193
 5257TIP3    H137186   3.851   0.772  11.370 -0.1950 -0.1501 -0.3331
 5257TIP3    H237187   3.796   0.912  11.353  2.0331  0.6376 -1.4605
 5258TIP3   OH237188   4.764   3.048  15.635  0.6545  0.5164 -0.3837
 5258TIP3    H137189   4.761   2.955  15.614 -1.9464  0.1278  1.1843
 5258TIP3    H237190   4.676   3.080  15.613  1.1149  2.3129  0.2122
 5259TIP3   OH237191   5.239   0.794   4.364  0.3879  0.0498 -0.1904
 5259TIP3    H137192   5.227   0.867   4.424 -1.4569 -0.1715 -0.2474
 5259TIP3    H237193   5.310   0.743   4.403 -0.1928  0.3695  1.3484
 5260TIP3   OH237194   1.973   5.088  13.806 -0.0070  0.1016 -0.3950
 5260TIP3    H137195   2.043   5.147  13.778  0.0187 -0.1543 -0.8848
 5260TIP3    H237196   2.018   5.018  13.853  0.0476  0.0656 -0.4988
 5261TIP3   OH237197   4.368   1.778   1.372  0.1041 -0.0089  0.2374
 5261TIP3    H137198   4.301   1.809   1.311 -0.7081 -0.0557  1.0875
 5261TIP3    H237199   4.451   1.798   1.328 -0.4536  0.0720 -0.8210
 5262TIP3   OH237200   0.042   2.801   0.090  0.4906  0.1756  0.2748
 5262TIP3    H137201  -0.025   2.758   0.142 -1.0154  1.5748 -0.4186
 5262TIP3    H237202   0.113   2.737   0.084 -0.4437 -1.0515  1.6802
 5263TIP3   OH237203   0.573   2.848  10.668  0.1017 -0.7361  0.1095
 5263TIP3    H137204   0.500   2.834  10.728  0.3676 -1.9774  0.1876
 5263TIP3    H237205   0.533   2.858  10.582 -0.1444 -4.9787 -0.4711
 5264TIP3   OH237206   1.793   4.886   1.400 -0.2104 -0.4036  0.0437
 5264TIP3    H137207   1.750   4.882   1.485 -1.0951  0.0228 -0.3627
 5264TIP3    H237208   1.721   4.890   1.337  0.4023  1.0339 -0.6368
 5265TIP3   OH237209   3.013   4.313   4.310  0.0516 -0.2528 -0.5005
 5265TIP3    H137210   2.968   4.286   4.390  0.5716 -2.3488 -0.8791
 5265TIP3    H237211   3.074   4.381   4.338 -1.3484  0.6533  0.4771
 5266TIP3   OH237212   1.484   4.839  12.610 -0.2371  0.2908 -0.2194
 5266TIP3    H137213   1.436   4.771  12.564 -1.9586 -0.3117  2.2673
 5266TIP3    H237214   1.534   4.792  12.677 -0.6170  1.3334  0.8400
 5267TIP3   OH237215   6.344   1.618   3.536 -0.1769  0.3417  0.1406
 5267TIP3    H137216   6.326   1.592   3.446 -1.7689  1.2311  0.1707
 5267TIP3    H237217   6.402   1.695   3.528 -0.4760  0.5406 -0.1244
 5268TIP3   OH237218   3.219   3.089   2.170 -0.1899  0.4817 -0.4117
 5268TIP3    H137219   3.273   3.013   2.152 -0.1297  0.6743 -1.0790
 5268TIP3    H237220   3.169   3.066   2.248  0.6912  0.2237  0.0815
 5269TIP3   OH237221   6.654   0.164   0.536 -0.6279  0.2196  0.2479
 5269TIP3    H137222   6.614   0.245   0.504  0.4258  0.3805 -0.7246
 5269TIP3    H237223   6.623   0.157   0.627 -5.2596 -1.2538 -1.1770
 5270TIP3   OH237224   4.737   4.686  11.060  0.2038  0.6373  0.0355
 5270TIP3    H137225   4.780   4.766  11.090  0.2222  1.8069 -2.8159
 5270TIP3    H237226   4.809   4.627  11.038  0.1936 -0.0078  1.6013
 5271TIP3   OH237227   6.383   1.127   4.323  0.3530  0.3773 -0.3790
 5271TIP3    H137228   6.423   1.040   4.316 -0.6147 -0.0129 -1.5506
 5271TIP3    H237229   6.385   1.148   4.416  2.5853  0.0723 -0.3105
 5272TIP3   OH237230   3.371   1.826  14.118  0.3953  0.1144 -0.3926
 5272TIP3    H137231   3.427   1.901  14.098  0.4563 -0.1325 -1.1817
 5272TIP3    H237232   3.298   1.833  14.057 -0.3746  0.3394  0.5120
 5273TIP3   OH237233   2.654   4.446  16.652  0.3495  0.4160  0.2383
 5273TIP3    H137234   2.709   4.514  16.690  1.8778 -1.0928  0.8443
 5273TIP3    H237235   2.575   4.446  16.706  1.3622  0.0969  1.7768
 5274TIP3   OH237236   4.925   4.602  15.154  0.3365 -0.6375 -0.0850
 5274TIP3    H137237   4.995   4.578  15.216  0.5882  0.6535  0.1724
 5274TIP3    H237238   4.854   4.632  15.210  0.7509  1.0280 -0.3969
 5275TIP3   OH237239   6.028   0.115  16.494  0.2119 -0.7543 -0.0851
 5275TIP3    H137240   6.078   0.051  16.443 -0.4205 -1.6425  0.3883
 5275TIP3    H237241   6.083   0.135  16.569  1.0118  0.3211 -0.9198
 5276TIP3   OH237242   4.629   2.410  10.853  0.1592  0.7128 -0.1117
 5276TIP3    H137243   4.628   2.362  10.935 -0.3967  0.5134 -0.2320
 5276TIP3    H237244   4.722   2.416  10.829  0.2666  0.1368  0.1578
 5277TIP3   OH237245   5.901   5.971   2.535  0.3766  0.4458 -0.4230
 5277TIP3    H137246   5.987   5.995   2.569  0.6728 -1.6655  0.5062
 5277TIP3    H237247   5.839   6.011   2.595  0.7410  0.9336 -0.3658
 5278TIP3   OH237248   2.908   0.475  15.005  0.0030  0.1604 -0.2865
 5278TIP3    H137249   2.875   0.413  15.070  2.2925  0.1466  0.9367
 5278TIP3    H237250   2.859   0.454  14.925 -1.2342 -1.3450  0.8061
 5279TIP3   OH237251   5.939   4.877   5.579 -0.3477  0.1788  0.7953
 5279TIP3    H137252   6.005   4.881   5.510 -0.2900 -0.8080  0.7759
 5279TIP3    H237253   5.856   4.877   5.532 -0.3895  1.5062  0.8228
 5280TIP3   OH237254   5.102   1.631  12.201  0.3330 -0.1054  0.1321
 5280TIP3    H137255   5.118   1.725  12.196 -1.1085  0.2399  1.2567
 5280TIP3    H237256   5.172   1.597  12.256  1.2889  0.1777 -0.8889
 5281TIP3   OH237257   0.369   1.027   0.694  0.1284 -0.4749  0.3060
 5281TIP3    H137258   0.441   1.004   0.752  0.9386  0.6767 -0.2032
 5281TIP3    H237259   0.408   1.083   0.627 -1.2438  0.2154  0.0331
 5282TIP3   OH237260   1.496   0.734   1.290 -0.2785  0.0415 -0.2290
 5282TIP3    H137261   1.451   0.671   1.234 -1.5305  2.0640 -1.6627
 5282TIP3    H237262   1.436   0.749   1.363 -0.8638  0.9207 -0.8692
 5283TIP3   OH237263   2.181   4.703  16.607 -0.1995  0.2551  0.0339
 5283TIP3    H137264   2.191   4.789  16.567  0.5625 -0.3123 -1.0540
 5283TIP3    H237265   2.087   4.688  16.610 -0.3275  1.0391  0.0544
 5284TIP3   OH237266   4.500   3.488  14.268 -0.3735  0.0287 -0.0180
 5284TIP3    H137267   4.569   3.422  14.282  0.5818  0.6648 -1.4319
 5284TIP3    H237268   4.426   3.456  14.319  0.5535 -1.3543  0.5438
 5285TIP3   OH237269   0.948   2.041  13.605  0.4339 -0.4820 -0.1226
 5285TIP3    H137270   0.887   1.980  13.644  1.0230  0.1959  2.0384
 5285TIP3    H237271   1.034   2.015  13.640  0.6756  1.6046  1.0592
 5286TIP3   OH237272   0.741   2.359   1.478 -0.2556 -0.0301 -0.0867
 5286TIP3    H137273   0.716   2.390   1.391  1.3556 -0.4886 -0.7600
 5286TIP3    H237274   0.703   2.423   1.538 -0.8087  0.6872 -1.1710
 5287TIP3   OH237275   0.542   3.025   2.748  0.9021 -0.0751 -0.3460
 5287TIP3    H137276   0.558   2.969   2.672 -1.9779 -1.4858 -0.0430
 5287TIP3    H237277   0.564   3.114   2.717  2.6179 -0.9413 -1.8154
 5288TIP3   OH237278   2.830   5.521   4.085  0.0830  0.2420  0.2057
 5288TIP3    H137279   2.884   5.534   4.007 -1.0202  0.2887 -0.5770
 5288TIP3    H237280   2.885   5.470   4.144  0.5143 -0.8603 -1.0970
 5289TIP3   OH237281   1.279   1.057   3.901  0.5928  0.0373  0.3006
 5289TIP3    H137282   1.236   1.119   3.842  0.0280 -0.4952  0.1342
 5289TIP3    H237283   1.316   0.991   3.842 -1.1433 -1.2444  0.5514
 5290TIP3   OH237284   4.007   5.823   5.008 -0.0875  0.1218  0.0684
 5290TIP3    H137285   4.055   5.781   5.079 -1.0244 -1.6382 -0.2724
 5290TIP3    H237286   3.995   5.914   5.037  0.3392 -0.3271  1.7306
 5291TIP3   OH237287   4.360   6.034  14.469 -0.6322  0.2045  0.0649
 5291TIP3    H137288   4.390   5.944  14.454 -1.3527  0.0888 -0.7760
 5291TIP3    H237289   4.427   6.089  14.430  0.5022  0.1026  1.7705
 5292TIP3   OH237290   4.867   6.622  12.835 -0.0476 -0.1722 -0.5529
 5292TIP3    H137291   4.777   6.593  12.851 -0.1927 -0.6782 -2.1059
 5292TIP3    H237292   4.872   6.709  12.874 -0.8583 -0.5880  0.5331
 5293TIP3   OH237293   2.081   6.512   4.035 -0.7060 -0.0545 -0.0073
 5293TIP3    H137294   2.075   6.438   4.095 -0.9086  0.5931  0.7960
 5293TIP3    H237295   2.019   6.492   3.965 -0.3857 -0.8696 -0.0729
 5294TIP3   OH237296   2.184   1.732  14.862 -0.1121 -0.2932  0.1159
 5294TIP3    H137297   2.093   1.744  14.834 -0.3732 -0.9532  0.6426
 5294TIP3    H237298   2.210   1.649  14.821 -0.3012 -0.9538  1.2961
 5295TIP3   OH237299   5.724   1.409   2.857  0.2293 -0.0950  0.1748
 5295TIP3    H137300   5.702   1.491   2.813  0.5948  0.1731  0.4866
 5295TIP3    H237301   5.646   1.388   2.909 -0.3379 -0.5824 -0.8186
 5296TIP3   OH237302   4.381   3.819   2.024 -0.2371  0.5905  0.1804
 5296TIP3    H137303   4.436   3.781   2.092  2.0973  1.5231 -1.0792
 5296TIP3    H237304   4.313   3.753   2.009  0.3009 -0.4707  2.0267
 5297TIP3   OH237305   4.683   4.681  14.791 -0.4521 -0.6946 -0.3133
 5297TIP3    H137306   4.589   4.697  14.797  0.1454  3.9321  0.1242
 5297TIP3    H237307   4.709   4.724  14.710  1.4786 -0.5098  0.3654
 5298TIP3   OH237308   6.256   1.222  16.307  0.8936 -0.5828  0.2156
 5298TIP3    H137309   6.169   1.197  16.275  0.1460 -0.4190  2.0080
 5298TIP3    H237310   6.316   1.160  16.264 -0.1660 -1.1299 -0.5330
 5299TIP3   OH237311   6.774   0.895   3.096  0.7098 -0.0130  0.3892
 5299TIP3    H137312   6.810   0.980   3.070  1.2503 -0.1133  0.7936
 5299TIP3    H237313   6.843   0.832   3.074  1.0701 -0.1382  1.7676
 5300TIP3   OH237314   5.055   2.674   4.259  0.7048  0.6296  0.1181
 5300TIP3    H137315   5.145   2.665   4.292  0.2061 -1.9855  0.9538
 5300TIP3    H237316   5.010   2.596   4.291 -1.9715  1.9994 -0.0587
 5301TIP3   OH237317   1.743   0.812  15.963  0.3807 -0.2916  0.1102
 5301TIP3    H137318   1.719   0.835  16.052 -0.9422  0.4012 -0.3937
 5301TIP3    H237319   1.838   0.803  15.965  0.7289  2.5464  0.9730
 5302TIP3   OH237320   0.918   2.929  14.916 -0.0556  0.4566 -0.1986
 5302TIP3    H137321   0.931   2.867  14.844  0.2108  0.7921 -0.4408
 5302TIP3    H237322   0.823   2.928  14.932  0.1055 -1.3092  0.9541
 5303TIP3   OH237323   5.218   6.699   0.924  0.2737 -0.1089 -0.5015
 5303TIP3    H137324   5.145   6.699   0.862  0.6984  0.6997 -1.0083
 5303TIP3    H237325   5.185   6.649   1.000 -1.6823  2.2466  0.3192
 5304TIP3   OH237326   1.600   1.669   3.336 -0.2950 -0.2445 -0.0872
 5304TIP3    H137327   1.602   1.696   3.244 -2.0119  0.5906  0.0796
 5304TIP3    H237328   1.620   1.749   3.385  1.1287 -0.7968  0.2874
 5305TIP3   OH237329   0.667   5.410  12.616 -0.4853 -0.2649 -0.6323
 5305TIP3    H137330   0.745   5.380  12.662  0.6455  0.1206 -2.2203
 5305TIP3    H237331   0.667   5.360  12.535 -0.7872  1.1247 -1.5250
 5306TIP3   OH237332   6.232   0.873   2.511 -0.5471  0.1240 -0.6182
 5306TIP3    H137333   6.247   0.964   2.483 -0.2026  0.7174  1.3398
 5306TIP3    H237334   6.146   0.851   2.475 -1.5436  1.9408  0.4766
 5307TIP3   OH237335   3.728   2.232  13.579  0.0388  0.2316 -0.7664
 5307TIP3    H137336   3.812   2.250  13.538 -0.1571 -0.3486 -1.4521
 5307TIP3    H237337   3.667   2.225  13.506 -0.9469  2.2243 -0.2275
 5308TIP3   OH237338   2.476   6.537  12.142  0.1144  0.1326 -0.1752
 5308TIP3    H137339   2.411   6.499  12.083 -0.6846 -1.0040  1.3575
 5308TIP3    H237340   2.426   6.559  12.221  1.1678  1.4954  0.1531
 5309TIP3   OH237341   3.230   0.956  13.234  0.7397  0.0562 -0.4811
 5309TIP3    H137342   3.286   1.026  13.200 -0.3060 -0.1417 -2.7754
 5309TIP3    H237343   3.227   0.892  13.163  0.8971 -1.9014  1.1970
 5310TIP3   OH237344   4.079   0.928  13.697 -0.0373 -0.0516 -0.1822
 5310TIP3    H137345   3.998   0.877  13.692 -0.7142  1.0458 -0.7849
 5310TIP3    H237346   4.124   0.910  13.614  0.3864 -0.7108  0.1793
 5311TIP3   OH237347   1.541   0.773   1.941 -0.1535  0.0615 -0.0750
 5311TIP3    H137348   1.571   0.683   1.949  1.6065  0.2977 -2.6317
 5311TIP3    H237349   1.516   0.798   2.030 -0.9384 -2.9701  0.6720
 5312TIP3   OH237350   3.931   4.438   1.795  0.0304  0.3939 -0.0272
 5312TIP3    H137351   4.018   4.402   1.808  1.3319  2.3875 -2.3352
 5312TIP3    H237352   3.926   4.512   1.855 -0.1514  0.1675  0.2376
 5313TIP3   OH237353   3.203   0.839   6.541 -0.1505 -0.0510  0.0565
 5313TIP3    H137354   3.172   0.929   6.529  0.5466  0.8055  3.5554
 5313TIP3    H237355   3.299   0.847   6.540 -0.0829 -0.5720  1.3330
 5314TIP3   OH237356   0.425   4.031   4.450 -0.4129 -0.1366 -0.5074
 5314TIP3    H137357   0.359   4.098   4.433 -0.6165 -0.2381 -0.1459
 5314TIP3    H237358   0.442   3.991   4.365  0.4193  1.0174 -0.9054
 5315TIP3   OH237359   4.471   4.603  14.171  0.3108 -0.1647 -0.3107
 5315TIP3    H137360   4.464   4.516  14.131  2.7707 -0.7597  0.3796
 5315TIP3    H237361   4.526   4.653  14.111  2.9632 -0.6691  1.5417
 5316TIP3   OH237362   6.168   3.087  16.537  0.5515 -0.3747 -0.3217
 5316TIP3    H137363   6.143   2.995  16.542 -0.2655 -0.1211  0.7483
 5316TIP3    H237364   6.261   3.086  16.518  0.5521 -1.4245 -0.3135
 5317TIP3   OH237365   1.287   5.583  12.337  0.3948 -0.2606 -0.3985
 5317TIP3    H137366   1.372   5.619  12.314  1.7748 -0.3414  3.8270
 5317TIP3    H237367   1.290   5.492  12.307  0.8098  0.3061 -2.2344
 5318TIP3   OH237368   1.857   4.339  16.184  0.2835  0.5854  0.0723
 5318TIP3    H137369   1.825   4.402  16.120 -1.0469  0.4325  0.5467
 5318TIP3    H237370   1.940   4.376  16.215  0.4732  1.1286 -1.0279
 5319TIP3   OH237371   4.003   3.461  12.653  0.1294  0.1806  0.4175
 5319TIP3    H137372   4.062   3.389  12.630 -1.9921 -2.0117  1.3925
 5319TIP3    H237373   3.995   3.513  12.572  1.3170 -0.9703 -0.4749
 5320TIP3   OH237374   0.561   6.357  15.498  0.1490 -0.0091 -0.0458
 5320TIP3    H137375   0.615   6.288  15.537 -0.4162 -0.5844 -0.2544
 5320TIP3    H237376   0.569   6.342  15.404  0.5866  0.6535 -0.1159
 5321TIP3   OH237377   1.073   2.203  12.688  0.6112  0.0731 -0.0880
 5321TIP3    H137378   1.126   2.127  12.663 -0.1273 -0.9245  1.2833
 5321TIP3    H237379   1.120   2.242  12.761  0.4461  0.3146 -0.1121
 5322TIP3   OH237380   0.883   4.772   2.191 -0.0001 -0.0929 -0.0322
 5322TIP3    H137381   0.825   4.712   2.240  2.0172 -0.4706  2.0743
 5322TIP3    H237382   0.870   4.857   2.234  1.0012 -0.1942  0.4968
 5323TIP3   OH237383   6.753   3.914  10.732  0.0219 -0.0828 -0.2294
 5323TIP3    H137384   6.743   3.896  10.826  0.9612  0.6165  0.0202
 5323TIP3    H237385   6.772   3.829  10.693 -3.4076 -0.9633 -0.2927
 5324TIP3   OH237386   4.513   1.270  13.262 -0.0589 -0.7744  0.5747
 5324TIP3    H137387   4.477   1.247  13.176  0.6810  0.0959  0.0163
 5324TIP3    H237388   4.561   1.191  13.289  1.8354 -0.2595 -0.9832
 5325TIP3   OH237389   4.122   6.028  13.134  0.9512  0.1914  0.6090
 5325TIP3    H137390   4.119   6.093  13.204 -0.8598 -0.8629  1.6316
 5325TIP3    H237391   4.199   5.975  13.153 -0.7463 -1.5717  3.4017
 5326TIP3   OH237392   3.358   3.565  16.239 -0.2946  0.2658  0.2914
 5326TIP3    H137393   3.404   3.537  16.160  0.9915  0.6126  0.8893
 5326TIP3    H237394   3.265   3.549  16.220  0.0796 -0.6882 -0.8576
 5327TIP3   OH237395   5.758   1.424  14.706  0.4848 -0.4131 -0.5632
 5327TIP3    H137396   5.819   1.378  14.648  1.3722  1.5082 -1.2464
 5327TIP3    H237397   5.703   1.475  14.647  1.9947  2.2916  0.1957
 5328TIP3   OH237398   6.588   2.208   0.772  0.2126 -0.4906  0.4023
 5328TIP3    H137399   6.502   2.192   0.733 -0.2164  2.7214 -0.2164
 5328TIP3    H237400   6.650   2.186   0.703 -0.4094  2.0133 -1.0605
 5329TIP3   OH237401   1.522   0.517  12.121  0.6599  0.2573  0.0238
 5329TIP3    H137402   1.590   0.456  12.092  0.5841 -0.2456  0.8669
 5329TIP3    H237403   1.560   0.604  12.107  0.2864  0.1049 -2.4002
 5330TIP3   OH237404   0.027   5.959   4.035  0.4903 -0.1187 -0.1060
 5330TIP3    H137405   0.110   5.940   3.993 -1.4030 -2.1053 -3.3446
 5330TIP3    H237406   0.023   5.899   4.110  0.9134 -1.9483 -1.4830
 5331TIP3   OH237407   1.491   0.233   1.006  0.2009 -0.2389 -0.2186
 5331TIP3    H137408   1.535   0.213   1.089  1.9085  1.1543 -0.7555
 5331TIP3    H237409   1.507   0.156   0.951  0.3401 -0.5308  0.2255
 5332TIP3   OH237410   6.421   3.355   6.341 -0.3922  0.1288 -0.5123
 5332TIP3    H137411   6.501   3.334   6.294 -0.5151 -0.8244 -0.3217
 5332TIP3    H237412   6.445   3.426   6.400 -0.0460  0.7998 -1.4425
 5333TIP3   OH237413   5.943   5.980   3.350  0.0941 -0.1994  0.2289
 5333TIP3    H137414   5.894   5.903   3.322  0.3661 -0.0605 -0.6569
 5333TIP3    H237415   5.955   6.031   3.270 -0.5998  1.0599  0.8970
 5334TIP3   OH237416   5.631   2.782   2.068  0.5410  0.1828 -0.4123
 5334TIP3    H137417   5.628   2.875   2.091  0.6371  0.0052  0.3536
 5334TIP3    H237418   5.548   2.747   2.100  0.9544 -0.2023  0.2729
 5335TIP3   OH237419   4.195   5.098   1.336  0.2505  0.2275 -0.0147
 5335TIP3    H137420   4.192   5.071   1.428 -0.4544 -2.1185 -0.6729
 5335TIP3    H237421   4.287   5.087   1.311  1.1907  3.9939  1.1774
 5336TIP3   OH237422   0.775   2.776   4.774 -0.1613 -0.2426  0.4145
 5336TIP3    H137423   0.722   2.704   4.810 -1.3320  0.6112  0.4666
 5336TIP3    H237424   0.809   2.821   4.851 -1.1319  0.4726  0.4414
 5337TIP3   OH237425   3.460   4.868  12.331  0.0885 -0.0318 -0.1488
 5337TIP3    H137426   3.442   4.779  12.360  0.0429 -0.3308 -1.0914
 5337TIP3    H237427   3.441   4.868  12.237  0.3097  0.9096 -0.2058
 5338TIP3   OH237428   4.838   0.537   1.629  0.8965  0.3883  0.0489
 5338TIP3    H137429   4.750   0.523   1.664  0.6318  1.8778  0.0406
 5338TIP3    H237430   4.895   0.539   1.705  1.3211 -2.7373 -0.0425
 5339TIP3   OH237431   4.176   6.116   4.145  0.1692  0.1115 -0.2467
 5339TIP3    H137432   4.086   6.097   4.120 -0.0038 -0.1192  0.5385
 5339TIP3    H237433   4.210   6.033   4.178 -0.5305  1.0009  3.0340
 5340TIP3   OH237434   5.923   6.721   0.944 -0.0701  0.0690 -0.0548
 5340TIP3    H137435   5.925   6.637   0.898  1.4851 -0.8981  1.6505
 5340TIP3    H237436   5.874   6.703   1.024 -1.3226  1.3019 -0.5121
 5341TIP3   OH237437   5.333   6.351  15.546  0.6298 -0.2088  0.2002
 5341TIP3    H137438   5.331   6.396  15.631  0.8013  1.5129 -0.6514
 5341TIP3    H237439   5.408   6.391  15.500  0.3254 -0.8512 -0.8847
 5342TIP3   OH237440   3.785   2.948   0.071 -0.3999  0.0543  0.0952
 5342TIP3    H137441   3.836   2.937   0.151  0.2741 -1.9891 -0.5639
 5342TIP3    H237442   3.700   2.907   0.091  0.9444 -3.8198 -1.2454
 5343TIP3   OH237443   2.283   1.617   1.107  0.2065 -0.1836 -0.4518
 5343TIP3    H137444   2.295   1.525   1.083  1.2519  0.3835 -2.3291
 5343TIP3    H237445   2.246   1.658   1.028  1.0361  1.2627 -0.1383
 5344TIP3   OH237446   5.466   5.468  10.710  0.1149  0.4077  0.2077
 5344TIP3    H137447   5.433   5.549  10.670 -0.3114  0.1303 -0.0160
 5344TIP3    H237448   5.557   5.487  10.731  0.0120  0.9571  0.1827
 5345TIP3   OH237449   5.689   1.139   0.420 -0.2469  0.1422  0.0195
 5345TIP3    H137450   5.647   1.110   0.339 -0.7153  1.5271 -0.2627
 5345TIP3    H237451   5.740   1.064   0.449  0.1180 -0.3103 -1.6888
 5346TIP3   OH237452   5.371   3.971   5.842  0.3872  0.1099 -0.5951
 5346TIP3    H137453   5.366   3.960   5.937 -0.1395  0.1005 -0.6207
 5346TIP3    H237454   5.341   4.061   5.827  0.8293  0.2379 -0.7211
 5347TIP3   OH237455   3.427   4.579   0.030  0.1555 -0.4864 -0.5304
 5347TIP3    H137456   3.460   4.495   0.064 -0.3370  0.1161  1.5666
 5347TIP3    H237457   3.332   4.572   0.037  0.1518  0.6578  0.7310
 5348TIP3   OH237458   1.425   5.479   0.423  0.4593 -0.1597 -0.1636
 5348TIP3    H137459   1.355   5.436   0.375  0.2727 -1.3279  1.0990
 5348TIP3    H237460   1.430   5.567   0.384 -1.5789 -0.1030 -0.4166
 5349TIP3   OH237461   1.436   0.523   1.844 -0.0214 -0.4984  0.1578
 5349TIP3    H137462   1.528   0.519   1.817 -0.0483 -2.0161  0.2487
 5349TIP3    H237463   1.392   0.456   1.792 -0.8046 -0.8267  1.2051
 5350TIP3   OH237464   2.388   4.890  11.007 -0.0672 -0.1563  0.3821
 5350TIP3    H137465   2.408   4.813  10.954 -1.5420  0.1422 -0.6776
 5350TIP3    H237466   2.415   4.964  10.954  0.7580  0.1069  1.1343
 5351TIP3   OH237467   2.167   5.020  15.058 -0.2587 -0.3306 -0.2927
 5351TIP3    H137468   2.083   5.032  15.015 -0.7345  0.3036  0.7731
 5351TIP3    H237469   2.219   4.969  14.996 -1.0022  0.3283 -1.4941
 5352TIP3   OH237470   6.457   0.718   3.282  0.3836 -0.0083  0.4958
 5352TIP3    H137471   6.511   0.731   3.360 -0.1387 -0.7723  1.0044
 5352TIP3    H237472   6.511   0.750   3.210  1.2932 -0.2450  1.0512
 5353TIP3   OH237473   3.099   6.254   5.549  0.0408  0.2354 -0.7734
 5353TIP3    H137474   3.007   6.264   5.524 -0.3049  0.7057  0.5983
 5353TIP3    H237475   3.131   6.182   5.495 -1.8969 -1.8528  0.6944
 5354TIP3   OH237476   1.381   6.558  13.595 -0.1574  0.0009 -0.4497
 5354TIP3    H137477   1.466   6.572  13.555  1.7515  1.2008  3.5370
 5354TIP3    H237478   1.335   6.641  13.584 -0.5883 -0.4236 -2.0085
 5355TIP3   OH237479   3.169   3.983  16.026  0.2715  0.2451  0.0485
 5355TIP3    H137480   3.078   3.954  16.036  0.4791 -0.9529 -1.1746
 5355TIP3    H237481   3.207   3.972  16.113 -1.1848  2.5728  1.0859
 5356TIP3   OH237482   5.958   6.412   2.433 -0.5200 -0.3258 -0.0673
 5356TIP3    H137483   5.928   6.370   2.514  0.5772  0.0637  0.5583
 5356TIP3    H237484   5.977   6.339   2.374 -1.5010 -0.6069 -0.0586
 5357TIP3   OH237485   4.515   0.032  11.208 -0.2082 -0.2034 -0.1526
 5357TIP3    H137486   4.423   0.053  11.194 -0.2578 -0.7483 -0.7026
 5357TIP3    H237487   4.535  -0.033  11.141  0.6545  0.1142 -0.2148
 5358TIP3   OH237488   1.872   5.621  17.223  0.5769  0.3725  0.6399
 5358TIP3    H137489   1.849   5.574  17.303 -0.7010  1.2359  0.8098
 5358TIP3    H237490   1.832   5.570  17.153  0.8505  0.1514  0.6465
 5359TIP3   OH237491   4.957   2.325   5.173  0.1482  0.7609 -0.0417
 5359TIP3    H137492   4.881   2.288   5.218 -1.5445  2.9854 -0.8322
 5359TIP3    H237493   5.023   2.336   5.241 -0.1660 -1.2761  0.6623
 5360TIP3   OH237494   6.422   4.098  10.525  0.1713 -0.1317 -0.2318
 5360TIP3    H137495   6.447   4.007  10.517 -1.7269 -0.9341  1.7242
 5360TIP3    H237496   6.478   4.132  10.595  0.3897 -0.0098 -0.4669
 5361TIP3   OH237497   2.210   5.690   4.006  0.2492  0.2555  0.2243
 5361TIP3    H137498   2.250   5.608   4.037 -0.7843  0.0785  1.1691
 5361TIP3    H237499   2.116   5.676   4.019  0.1204  1.9808  1.3950
 5362TIP3   OH237500   5.495   2.505   0.367  0.2703 -0.8003  0.3536
 5362TIP3    H137501   5.577   2.509   0.318 -0.9684 -1.0959 -1.8820
 5362TIP3    H237502   5.491   2.587   0.415  0.7721  0.3215 -1.4445
 5363TIP3   OH237503   3.870   2.208  16.601  0.1721  0.1354 -0.5787
 5363TIP3    H137504   3.791   2.156  16.586 -0.0955 -0.3813  2.1419
 5363TIP3    H237505   3.848   2.295  16.567 -1.8889  0.2072  0.7339
 5364TIP3   OH237506   4.864   3.490   3.150  1.4121  0.2276 -0.0623
 5364TIP3    H137507   4.894   3.581   3.149  0.1775  0.6451 -1.4387
 5364TIP3    H237508   4.772   3.494   3.176  1.5124 -0.7007  0.5024
 5365TIP3   OH237509   0.238   2.668  14.563 -0.4155  0.3215  0.6264
 5365TIP3    H137510   0.212   2.747  14.612 -2.0586  0.8392 -0.9584
 5365TIP3    H237511   0.331   2.682  14.544 -0.5844  1.7373  0.6809
 5366TIP3   OH237512   6.223   0.890  12.532  0.1233 -0.0500 -0.1809
 5366TIP3    H137513   6.309   0.931  12.532 -0.4533  1.2330 -0.7533
 5366TIP3    H237514   6.197   0.890  12.440 -0.4828 -0.4163 -0.0123
 5367TIP3   OH237515   1.066   4.506  16.300  0.0238 -0.0109  0.2047
 5367TIP3    H137516   0.982   4.486  16.260 -0.9583  0.4773  1.9369
 5367TIP3    H237517   1.066   4.601  16.311  1.3135  0.1392 -0.7955
 5368TIP3   OH237518   6.406   6.074   3.983 -0.3505 -0.0480  0.0658
 5368TIP3    H137519   6.343   6.145   3.986 -1.0402 -0.6720  0.9692
 5368TIP3    H237520   6.362   6.001   4.026  0.2392 -1.1111 -1.0618
 5369TIP3   OH237521   2.580   5.663   0.673 -0.3422 -0.0692  0.2940
 5369TIP3    H137522   2.609   5.734   0.730  0.0058 -0.4655  0.6114
 5369TIP3    H237523   2.567   5.705   0.588 -2.3628  0.8709  0.9962
 5370TIP3   OH237524   6.558   4.363  16.905  0.3147  0.1199  0.6266
 5370TIP3    H137525   6.550   4.267  16.903  0.8800  0.0387  1.4604
 5370TIP3    H237526   6.650   4.379  16.882  0.1711  0.4718  0.3020
 5371TIP3   OH237527   3.375   2.409  12.873  0.4527 -0.3292  0.6166
 5371TIP3    H137528   3.420   2.326  12.889 -0.0518 -0.7699 -0.1603
 5371TIP3    H237529   3.445   2.473  12.860  0.8667 -0.9203 -0.1599
 5372TIP3   OH237530   5.778   4.756   1.928 -0.0007 -0.6272 -0.3719
 5372TIP3    H137531   5.838   4.690   1.892 -0.2339 -0.9969 -0.0878
 5372TIP3    H237532   5.835   4.831   1.948  0.6547 -1.4883  1.2683
 5373TIP3   OH237533   6.609   5.004   1.052 -0.3139 -0.4173  0.1768
 5373TIP3    H137534   6.668   4.967   1.117 -0.1006  1.4760  1.1398
 5373TIP3    H237535   6.660   5.003   0.970  0.8080  0.4589  0.8250
 5374TIP3   OH237536   3.091   0.718  12.093  0.2759 -0.1110  0.2204
 5374TIP3    H137537   3.091   0.628  12.061  2.0888  0.7541 -2.5002
 5374TIP3    H237538   3.147   0.716  12.171 -0.1032 -1.3711  0.4817
 5375TIP3   OH237539   5.248   0.717  15.092 -0.4500 -0.4724  0.0970
 5375TIP3    H137540   5.294   0.635  15.108  1.6435  0.8177  1.0707
 5375TIP3    H237541   5.273   0.741  15.003 -2.4960 -1.6862 -0.8897
 5376TIP3   OH237542   0.714   0.721  12.499  0.0601 -0.2534  0.1517
 5376TIP3    H137543   0.709   0.788  12.568 -0.6691 -0.2342  0.0913
 5376TIP3    H237544   0.789   0.667  12.523  1.1788  1.0713 -0.2415
 5377TIP3   OH237545   1.143   4.722  11.864  0.0169 -0.3188  0.0554
 5377TIP3    H137546   1.054   4.732  11.829  0.1412  2.3862  0.2536
 5377TIP3    H237547   1.191   4.796  11.826  1.3894 -0.0303  2.2019
 5378TIP3   OH237548   3.192   2.715   6.535  0.1519 -0.2689  0.3417
 5378TIP3    H137549   3.260   2.654   6.565 -2.4310 -3.0703  1.0732
 5378TIP3    H237550   3.187   2.780   6.605  0.9788 -0.9383  1.0643
 5379TIP3   OH237551   4.548   4.651   2.507 -0.0039  0.0337  0.2302
 5379TIP3    H137552   4.452   4.653   2.503 -0.1563 -0.8439  2.2447
 5379TIP3    H237553   4.572   4.728   2.559  0.2929 -0.4037  0.7490
 5380TIP3   OH237554   2.607   2.134   5.181 -0.0260 -0.2311  0.0440
 5380TIP3    H137555   2.662   2.104   5.254 -0.7439 -0.3650  0.5393
 5380TIP3    H237556   2.542   2.191   5.221 -0.7844 -0.7634 -0.3981
 5381TIP3   OH237557   1.336   5.798   2.385 -1.0018  0.0781  0.4002
 5381TIP3    H137558   1.312   5.853   2.311  0.1793  0.4936  0.3011
 5381TIP3    H237559   1.281   5.720   2.377 -1.2898  0.3729 -0.5761
 5382TIP3   OH237560   2.892   0.100   0.204 -0.0223  0.2009 -1.0101
 5382TIP3    H137561   2.927   0.073   0.289  0.5136  1.7336 -0.7050
 5382TIP3    H237562   2.967   0.099   0.145 -0.3072 -0.4345 -1.3800
 5383TIP3   OH237563   2.859   3.082  17.211 -0.0534 -0.3804  0.0175
 5383TIP3    H137564   2.803   3.010  17.239  1.8668 -2.2803 -0.6743
 5383TIP3    H237565   2.852   3.082  17.115  3.0714 -2.5943 -0.3904
 5384TIP3   OH237566   2.216   0.252   0.013  0.4046  0.1238 -0.3780
 5384TIP3    H137567   2.155   0.315   0.051 -0.9801 -0.6159 -1.2591
 5384TIP3    H237568   2.226   0.280  -0.078  0.1366 -0.6457 -0.6532
 5385TIP3   OH237569   3.762   0.148  15.452 -0.3855 -0.6255  0.3763
 5385TIP3    H137570   3.820   0.092  15.504  0.4619 -0.3798 -0.2668
 5385TIP3    H237571   3.727   0.089  15.385 -0.2443 -0.5979  0.2778
 5386TIP3   OH237572   4.501   5.131  14.718 -0.3137  0.7519  0.2228
 5386TIP3    H137573   4.497   5.147  14.624 -0.3325  3.5068  0.5953
 5386TIP3    H237574   4.410   5.135  14.747 -0.1176  4.7020  0.8727
 5387TIP3   OH237575   4.401   6.534  16.329 -0.7895 -0.7142 -0.0112
 5387TIP3    H137576   4.346   6.552  16.405 -0.7026  0.4599 -0.2122
 5387TIP3    H237577   4.382   6.605  16.268 -0.0157 -1.0200 -0.6212
 5388TIP3   OH237578   3.193   2.583   0.664 -0.5802  0.2271  0.0142
 5388TIP3    H137579   3.222   2.496   0.636 -1.4993 -0.0109 -0.2407
 5388TIP3    H237580   3.198   2.581   0.760  2.9332  1.1649 -0.0400
 5389TIP3   OH237581   1.340   4.640  15.469 -0.1201  0.0071 -0.4622
 5389TIP3    H137582   1.278   4.684  15.411  0.3008 -0.9123 -1.6631
 5389TIP3    H237583   1.378   4.710  15.521 -0.0275  0.9773 -1.7858
 5390TIP3   OH237584   4.211   2.995   0.851  0.3182  0.2921  0.0936
 5390TIP3    H137585   4.288   3.016   0.798  0.5817  0.7579  0.6476
 5390TIP3    H237586   4.246   2.974   0.937 -0.1322 -0.0905  0.1871
 5391TIP3   OH237587   0.834   2.588  16.862 -0.2947 -0.0311  0.0640
 5391TIP3    H137588   0.917   2.572  16.906 -0.1964 -0.5000 -0.2853
 5391TIP3    H237589   0.857   2.633  16.781 -0.1208 -2.2639 -1.2152
 5392TIP3   OH237590   4.268   3.349   4.627  0.6865  0.9198  0.2079
 5392TIP3    H137591   4.326   3.320   4.557 -0.0117  1.2933 -0.5408
 5392TIP3    H237592   4.205   3.407   4.584 -0.8705 -0.2709  0.7719
 5393TIP3   OH237593   6.446   6.441   0.778 -0.1721  0.2016 -0.2597
 5393TIP3    H137594   6.411   6.527   0.754  1.7363  1.0224 -0.3121
 5393TIP3    H237595   6.539   6.458   0.795  0.1269 -1.7734  0.2390
 5394TIP3   OH237596   4.426   3.902  13.036 -0.1678 -0.7786 -0.1054
 5394TIP3    H137597   4.393   3.990  13.022  2.2160  0.6258  2.2700
 5394TIP3    H237598   4.392   3.877  13.123  0.4157 -1.5632 -0.0893
 5395TIP3   OH237599   1.557   5.984  11.267 -0.2599 -0.0054  0.1461
 5395TIP3    H137600   1.598   6.008  11.184 -0.6223  0.5247  0.1193
 5395TIP3    H237601   1.549   6.066  11.315  0.8505 -0.4394  1.1181
 5396TIP3   OH237602   6.716   2.274   5.670  0.1658 -0.0986 -0.6314
 5396TIP3    H137603   6.708   2.313   5.757 -1.6756 -1.2251 -0.2312
 5396TIP3    H237604   6.627   2.278   5.635  0.8748  0.2697 -2.4526
 5397TIP3   OH237605   3.629   3.862  11.910 -0.8380 -0.0877 -0.4770
 5397TIP3    H137606   3.689   3.912  11.854 -0.5290  0.8011  0.6055
 5397TIP3    H237607   3.552   3.918  11.919 -0.9066 -0.2455 -0.0587
 5398TIP3   OH237608   6.387   5.170   1.425  0.1828  0.1081 -0.2724
 5398TIP3    H137609   6.318   5.230   1.453 -0.7634 -0.6193 -1.0270
 5398TIP3    H237610   6.468   5.219   1.443 -0.5447  1.5148 -0.6295
 5399TIP3   OH237611   6.258   2.080   3.062  0.3621 -0.0479 -0.1649
 5399TIP3    H137612   6.263   2.138   3.137  0.5180 -1.5075  0.9945
 5399TIP3    H237613   6.189   2.018   3.084  0.7089 -0.7764 -1.0398
 5400TIP3   OH237614   0.561   2.895   4.286  0.4054  0.4687 -0.2933
 5400TIP3    H137615   0.593   2.891   4.376  3.2190  0.0105 -1.2322
 5400TIP3    H237616   0.468   2.871   4.293  0.1064  2.0499  2.6372
 5401TIP3   OH237617   3.197   0.625  11.563 -0.1853  0.2672  0.5643
 5401TIP3    H137618   3.135   0.553  11.569  1.0042 -0.7392  0.9829
 5401TIP3    H237619   3.179   0.679  11.640  0.0922 -0.5261  1.1858
 5402TIP3   OH237620   1.585   2.275  16.433 -0.2199 -0.0248  0.1980
 5402TIP3    H137621   1.558   2.183  16.443  0.5589 -0.2136  0.6759
 5402TIP3    H237622   1.537   2.306  16.357 -3.2860  0.2198  2.0596
 5403TIP3   OH237623   2.481   5.833  16.304  0.0784  0.1714 -0.3947
 5403TIP3    H137624   2.482   5.824  16.399 -2.0158  1.6585 -0.1682
 5403TIP3    H237625   2.562   5.880  16.283 -0.5429  1.9661  0.9743
 5404TIP3   OH237626   0.726   2.478   4.133 -0.4209  0.0870  0.4381
 5404TIP3    H137627   0.653   2.471   4.193  0.2662  0.7239  1.3721
 5404TIP3    H237628   0.687   2.508   4.051 -1.3073 -0.3785  0.6802
 5405TIP3   OH237629   1.626   3.024   4.521 -0.1966 -0.8218  0.0751
 5405TIP3    H137630   1.582   2.946   4.484  2.8732 -2.1648 -1.1035
 5405TIP3    H237631   1.620   3.012   4.615 -0.7928 -1.8968 -0.0775
 5406TIP3   OH237632   3.654   3.156  17.076  0.2466  0.2814 -0.3841
 5406TIP3    H137633   3.587   3.091  17.057  0.2901 -0.1762  0.9206
 5406TIP3    H237634   3.685   3.185  16.990  1.3062 -2.5229 -1.0691
 5407TIP3   OH237635   1.473   3.257  12.345 -0.4134  0.1091 -0.2690
 5407TIP3    H137636   1.497   3.236  12.435 -0.1681 -0.6507 -0.4988
 5407TIP3    H237637   1.381   3.232  12.338 -0.2153 -0.5965 -0.4442
 5408TIP3   OH237638   0.739   1.964   2.708 -0.1203 -0.5371  0.4630
 5408TIP3    H137639   0.726   1.886   2.654  0.9487 -0.5471  0.1902
 5408TIP3    H237640   0.824   1.998   2.681 -1.4639  1.9592 -0.9033
 5409TIP3   OH237641   2.516   3.682   3.262  0.7208 -0.1504 -0.4401
 5409TIP3    H137642   2.592   3.634   3.294 -0.4135 -0.9018  1.2659
 5409TIP3    H237643   2.507   3.655   3.170  0.5264 -2.7538  0.2818
 5410TIP3   OH237644   6.458   5.133   3.308 -0.4808  0.4426 -0.2293
 5410TIP3    H137645   6.477   5.226   3.322  0.6286  0.5348 -2.0591
 5410TIP3    H237646   6.474   5.092   3.393  1.8554  1.5104 -0.0934
 5411TIP3   OH237647   0.162   5.424   1.681 -0.4326 -0.1018  0.5081
 5411TIP3    H137648   0.131   5.337   1.655 -0.5946 -0.2986  1.3559
 5411TIP3    H237649   0.226   5.446   1.613  0.0846 -1.1572  0.6277
 5412TIP3   OH237650   4.198   5.034   1.603 -0.3567 -0.6707  0.2600
 5412TIP3    H137651   4.214   5.127   1.623 -0.1145 -0.4714 -0.7945
 5412TIP3    H237652   4.262   4.987   1.656  0.0505 -0.1840  0.2102
 5413TIP3   OH237653   3.049   3.727  16.399 -0.4941  0.3437 -0.1899
 5413TIP3    H137654   3.044   3.674  16.319 -0.0704 -0.9628  0.6145
 5413TIP3    H237655   3.054   3.662  16.470 -1.9962  1.4673  0.9906
 5414TIP3   OH237656   3.974   4.909   3.550 -0.2227 -0.8282  0.0146
 5414TIP3    H137657   3.987   4.907   3.456 -1.2785  0.7389 -0.2075
 5414TIP3    H237658   4.046   4.962   3.584  0.5732 -1.9915  0.2063
 5415TIP3   OH237659   6.692   0.671   0.608 -0.2930  0.1057 -0.4598
 5415TIP3    H137660   6.698   0.652   0.702  0.0985  2.2189 -0.0248
 5415TIP3    H237661   6.770   0.722   0.588 -0.2328 -0.5357 -2.0262
 5416TIP3   OH237662   6.001   1.308   0.597 -0.1132  0.5501  0.0206
 5416TIP3    H137663   6.077   1.297   0.541 -0.1711 -0.1159  0.0614
 5416TIP3    H237664   5.999   1.401   0.618 -0.8788  1.1026 -2.2061
 5417TIP3   OH237665   6.199   0.187  14.971  0.2279  0.1090  0.1186
 5417TIP3    H137666   6.110   0.165  14.943  0.2036  1.6501 -1.1444
 5417TIP3    H237667   6.255   0.152  14.902  0.3287  2.0159 -0.8232
 5418TIP3   OH237668   1.371   6.432   4.214 -0.0601 -0.2952 -0.1114
 5418TIP3    H137669   1.330   6.518   4.221 -1.3832 -0.6631 -2.3624
 5418TIP3    H237670   1.404   6.428   4.124  2.1424 -1.2484  0.6890
 5419TIP3   OH237671   2.851   1.642  14.163 -0.4214 -0.2294  0.4256
 5419TIP3    H137672   2.817   1.731  14.173 -1.2025 -0.6247  1.5529
 5419TIP3    H237673   2.854   1.608  14.253  0.4668 -1.1224  0.0663
 5420TIP3   OH237674   0.657   4.985   6.035 -0.0261 -0.5540 -0.5475
 5420TIP3    H137675   0.727   5.010   6.095 -1.1412  2.9369 -0.4753
 5420TIP3    H237676   0.613   4.911   6.078  0.4793  0.4881  1.9255
 5421TIP3   OH237677   6.131   3.546  12.541  0.3481 -0.2395  0.1684
 5421TIP3    H137678   6.200   3.482  12.559  0.3050 -0.2709  0.2226
 5421TIP3    H237679   6.173   3.611  12.485  0.4523 -0.2035  0.2861
 5422TIP3   OH237680   5.666   5.105   1.188  0.0499  0.0479  0.0211
 5422TIP3    H137681   5.656   5.143   1.275  1.5098 -1.0062  0.6916
 5422TIP3    H237682   5.710   5.021   1.203  0.1121 -0.2691 -1.7112
 5423TIP3   OH237683   5.134   2.016  14.344 -0.0687 -0.5105  0.4775
 5423TIP3    H137684   5.038   2.024  14.346 -0.2344 -2.1619  2.5019
 5423TIP3    H237685   5.164   2.053  14.427  0.9845 -0.7178  0.2068
 5424TIP3   OH237686   3.366   0.107  12.082 -0.7161 -0.6432  0.0621
 5424TIP3    H137687   3.448   0.150  12.106 -0.6115 -0.7695 -0.0664
 5424TIP3    H237688   3.299   0.154  12.132 -0.5603 -0.5744  0.2090
 5425TIP3   OH237689   3.179   2.546   4.319  0.2276  0.4731 -0.3647
 5425TIP3    H137690   3.190   2.479   4.387  0.0195  2.3889  1.6808
 5425TIP3    H237691   3.090   2.533   4.286  0.4038 -0.6158 -0.4398
 5426TIP3   OH237692   5.261   2.481  16.656 -0.0252  0.2118 -0.3093
 5426TIP3    H137693   5.239   2.569  16.627  2.0919  1.5290  1.7085
 5426TIP3    H237694   5.342   2.460  16.609  0.0460 -0.2233  0.0035
 5427TIP3   OH237695   1.865   2.386  12.589 -0.6340  0.1864 -0.5355
 5427TIP3    H137696   1.842   2.438  12.666  0.5042 -2.3504  1.6539
 5427TIP3    H237697   1.815   2.306  12.597 -0.9521  0.0846 -2.8327
 5428TIP3   OH237698   1.137   1.835   3.450 -0.2025  0.3675  0.0792
 5428TIP3    H137699   1.217   1.844   3.501 -0.1342  1.8137 -0.2289
 5428TIP3    H237700   1.079   1.782   3.505  0.3584  0.7311  1.0448
 5429TIP3   OH237701   5.158   4.383   2.737  0.7918  0.1396 -0.2708
 5429TIP3    H137702   5.148   4.477   2.719  1.2868  0.1647 -0.4421
 5429TIP3    H237703   5.072   4.346   2.719  0.5292  0.5977  0.0265
 5430TIP3   OH237704   2.925   3.680   0.277  0.1127 -0.6400  0.3528
 5430TIP3    H137705   2.870   3.756   0.263  1.3914  0.2026 -0.2716
 5430TIP3    H237706   2.951   3.652   0.189 -0.6706 -2.0641  0.5465
 5431TIP3   OH237707   4.516   2.506   3.490 -0.0789  0.1109  0.2378
 5431TIP3    H137708   4.506   2.411   3.490  1.4505 -0.1003  1.9039
 5431TIP3    H237709   4.496   2.532   3.400  1.0477 -1.9788 -0.6872
 5432TIP3   OH237710   5.935   4.412   5.402 -0.0734  0.2538 -0.1840
 5432TIP3    H137711   5.889   4.485   5.444  0.8581  1.0780 -0.5395
 5432TIP3    H237712   5.993   4.455   5.338  1.0131 -0.7585  0.0994
 5433TIP3   OH237713   1.829   6.632   5.738 -0.4467 -0.4680  0.5905
 5433TIP3    H137714   1.760   6.639   5.804 -0.8319  0.5105  0.0963
 5433TIP3    H237715   1.859   6.541   5.745 -1.0824 -0.6236  1.5019
 5434TIP3   OH237716   6.190   4.012  12.207  0.6315  0.4627 -0.2315
 5434TIP3    H137717   6.148   4.065  12.275 -0.8805 -0.6186 -0.2641
 5434TIP3    H237718   6.124   4.005  12.138 -0.1526 -3.1249  0.6514
 5435TIP3   OH237719   1.603   0.093  15.525  0.5276  0.8072  0.1226
 5435TIP3    H137720   1.599  -0.002  15.519 -0.8868  0.8491  0.0276
 5435TIP3    H237721   1.560   0.113  15.608  0.7808  1.3790  0.1231
 5436TIP3   OH237722   5.370   4.264  11.552  0.1688 -0.0013 -0.3543
 5436TIP3    H137723   5.281   4.237  11.532 -0.0889  1.0680 -0.7399
 5436TIP3    H237724   5.386   4.232  11.641 -2.0649  3.0705  1.3640
 5437TIP3   OH237725   0.442   2.877  10.432 -0.3302 -0.1731  0.8248
 5437TIP3    H137726   0.380   2.814  10.395 -0.3347  0.8007 -0.9487
 5437TIP3    H237727   0.437   2.952  10.373  2.0415  0.2155  1.0306
 5438TIP3   OH237728   5.799   0.501   1.887 -0.0171 -0.1363  0.2855
 5438TIP3    H137729   5.806   0.427   1.827  0.0557 -0.3614  0.5758
 5438TIP3    H237730   5.736   0.473   1.954 -0.8933  0.4898 -0.2447
 5439TIP3   OH237731   1.620   5.694   1.566 -0.2254  0.2908  0.5862
 5439TIP3    H137732   1.580   5.781   1.571 -0.7553  0.0808  0.1761
 5439TIP3    H237733   1.562   5.645   1.508  1.1665  0.2714 -0.8554
 5440TIP3   OH237734   0.162   0.552  13.143 -0.0740  0.6903 -0.4483
 5440TIP3    H137735   0.181   0.462  13.118 -0.5318  0.7402 -0.9968
 5440TIP3    H237736   0.069   0.551  13.167 -0.0957  1.0319 -0.5159
 5441TIP3   OH237737   2.697   2.415  11.273  0.0984 -0.2992 -0.3686
 5441TIP3    H137738   2.665   2.336  11.229 -0.5711  0.8319 -2.0226
 5441TIP3    H237739   2.644   2.486  11.237  1.5962  1.0876  0.0191
 5442TIP3   OH237740   0.097   1.232   0.519  0.4142  0.3838  0.1422
 5442TIP3    H137741   0.126   1.277   0.439 -0.2830  1.0155  0.2368
 5442TIP3    H237742   0.077   1.303   0.580 -0.5063 -0.0614  0.3695
 5443TIP3   OH237743   1.372   4.889  15.930 -0.5384 -0.9508  0.5782
 5443TIP3    H137744   1.344   4.801  15.955 -0.4964 -1.1004  0.1063
 5443TIP3    H237745   1.295   4.944  15.948 -2.3759 -1.8156 -3.5531
 5444TIP3   OH237746   0.843   6.477   2.903 -0.2733 -0.6106  0.7412
 5444TIP3    H137747   0.804   6.398   2.864 -1.6343 -0.4568  1.7172
 5444TIP3    H237748   0.846   6.458   2.997  0.2510  0.1419  0.8814
 5445TIP3   OH237749   1.616   4.552  16.995  0.0496  0.3099 -0.5783
 5445TIP3    H137750   1.656   4.470  16.966 -0.4181  0.2395 -1.0383
 5445TIP3    H237751   1.543   4.525  17.051 -0.3399  0.3969 -1.0364
 5446TIP3   OH237752   3.362   2.236   4.795  1.0742  0.0296  0.4685
 5446TIP3    H137753   3.270   2.219   4.774  0.7310  2.0862  0.1648
 5446TIP3    H237754   3.364   2.237   4.891  0.9665 -0.8155  0.4924
 5447TIP3   OH237755   5.368   6.488   6.000  0.0140  0.4077  0.2289
 5447TIP3    H137756   5.285   6.515   5.960 -0.3409  0.9941  1.3369
 5447TIP3    H237757   5.425   6.564   5.990  0.6924 -0.2367 -1.1769
 5448TIP3   OH237758   4.106   6.437   5.542 -0.4480  0.3004 -0.2339
 5448TIP3    H137759   4.179   6.472   5.593 -0.8425  1.7802 -0.6450
 5448TIP3    H237760   4.050   6.394   5.607 -0.0169  0.5375  0.3011
 5449TIP3   OH237761   0.265   2.748   2.341 -0.0711 -0.2538  0.2184
 5449TIP3    H137762   0.286   2.841   2.348  2.0775 -0.7904  1.8216
 5449TIP3    H237763   0.234   2.737   2.251 -1.1283  2.1089  0.2163
 5450TIP3   OH237764   5.068   3.868  14.972 -0.2832  0.3480 -0.3021
 5450TIP3    H137765   5.078   3.958  14.942  0.9636  0.5378  0.5741
 5450TIP3    H237766   5.154   3.845  15.009 -0.7931 -0.9407  0.1694
 5451TIP3   OH237767   6.479   3.593  16.131  0.2176  0.2421 -0.2663
 5451TIP3    H137768   6.558   3.575  16.080  0.0778 -0.3495 -0.2771
 5451TIP3    H237769   6.509   3.647  16.204  1.1458 -2.3212  1.3456
 5452TIP3   OH237770   0.739   6.365   0.993  0.0469 -0.4934 -0.0302
 5452TIP3    H137771   0.755   6.373   0.899  0.8238 -0.6936  0.0789
 5452TIP3    H237772   0.826   6.358   1.032 -0.2838 -2.3135  0.5200
 5453TIP3   OH237773   3.211   4.813  10.622 -0.0107  0.3180 -0.2085
 5453TIP3    H137774   3.152   4.888  10.631 -0.8610 -0.0633 -2.0242
 5453TIP3    H237775   3.237   4.814  10.530  1.7090 -0.3737  0.2226
 5454TIP3   OH237776   0.920   4.352  16.985  0.1504  0.0662  0.0865
 5454TIP3    H137777   0.958   4.421  17.040  0.5860  0.4479 -0.6827
 5454TIP3    H237778   0.881   4.399  16.911 -1.2980 -0.3658  0.5460
 5455TIP3   OH237779   0.686   0.875  13.976  0.7006 -0.2911 -0.1960
 5455TIP3    H137780   0.639   0.905  13.898  1.0152 -0.0714 -0.3003
 5455TIP3    H237781   0.659   0.937  14.044  1.1448  0.0769 -0.3491
 5456TIP3   OH237782   2.408   4.575  13.342 -0.5707  0.9128  0.3556
 5456TIP3    H137783   2.465   4.587  13.267  0.4854  2.3615  1.3300
 5456TIP3    H237784   2.450   4.506  13.394 -2.1947 -1.3545 -1.1124
 5457TIP3   OH237785   0.335   5.448  16.893 -0.6365 -0.1790  0.0481
 5457TIP3    H137786   0.285   5.529  16.887 -1.6494 -0.8907 -3.2412
 5457TIP3    H237787   0.426   5.476  16.882 -0.9789  0.5779 -1.1375
 5458TIP3   OH237788   2.994   0.903   0.500 -0.2013  0.3860  0.1281
 5458TIP3    H137789   2.899   0.909   0.490 -0.1750  1.0624  0.2287
 5458TIP3    H237790   3.021   0.990   0.527  0.5184  0.3474 -0.4280
 5459TIP3   OH237791   2.529   1.320   5.033  0.4203  0.2260 -0.0263
 5459TIP3    H137792   2.525   1.312   4.938  2.0411  0.6889 -0.1646
 5459TIP3    H237793   2.525   1.230   5.065  1.2564 -0.0260 -0.6138
 5460TIP3   OH237794   2.000   6.667  14.212  0.4832 -0.3203  0.2572
 5460TIP3    H137795   1.987   6.714  14.295  2.7807  1.2651 -0.1612
 5460TIP3    H237796   1.949   6.716  14.148  2.9545  1.9439 -0.2007
 5461TIP3   OH237797   6.263   6.330   3.105 -0.0453 -0.7129  0.0655
 5461TIP3    H137798   6.352   6.340   3.138  0.0510 -0.0765 -0.3471
 5461TIP3    H237799   6.208   6.320   3.183  0.3048 -0.3650  0.3593
 5462TIP3   OH237800   0.951   0.205  12.319  0.4424 -0.0154  0.3216
 5462TIP3    H137801   1.042   0.180  12.302  0.8060  0.5370  1.3841
 5462TIP3    H237802   0.956   0.263  12.395 -0.8302 -0.1793  0.5427
 5463TIP3   OH237803   4.924   3.531   3.681 -0.1280 -0.0285  0.2804
 5463TIP3    H137804   4.918   3.622   3.653 -0.1454  0.4686  1.7935
 5463TIP3    H237805   4.856   3.522   3.747 -1.9707 -1.9326 -1.7392
 5464TIP3   OH237806   4.016   6.076  17.198  0.1228  0.8117 -0.0714
 5464TIP3    H137807   4.039   6.065  17.290  0.1949  1.5662  0.0121
 5464TIP3    H237808   4.097   6.104  17.155  0.0214  0.7566 -0.3045
 5465TIP3   OH237809   1.805   3.941  11.338  0.5307 -0.0343 -0.7181
 5465TIP3    H137810   1.808   3.849  11.311  1.8475 -0.5585  1.0546
 5465TIP3    H237811   1.894   3.961  11.365 -0.0994  1.2492  0.5465
 5466TIP3   OH237812   2.921   5.184   2.780  0.1546 -0.3299  0.0211
 5466TIP3    H137813   2.869   5.132   2.718 -0.4389 -0.4457  0.5975
 5466TIP3    H237814   2.902   5.144   2.865  1.1577 -0.3379  0.2480
 5467TIP3   OH237815   3.647   3.010  16.200 -0.1672  0.4725  0.6408
 5467TIP3    H137816   3.661   3.088  16.254  0.8682 -0.7044  2.1964
 5467TIP3    H237817   3.631   2.940  16.263  3.2594 -1.4324 -0.3275
 5468TIP3   OH237818   3.616   1.746  16.663  0.0006  0.0744 -0.2400
 5468TIP3    H137819   3.550   1.738  16.595 -0.4238 -1.5193  0.3183
 5468TIP3    H237820   3.572   1.794  16.734  0.2271  1.1264 -0.7920
 5469TIP3   OH237821   3.634   0.648  17.082 -0.5128 -0.3273 -0.1536
 5469TIP3    H137822   3.596   0.734  17.064 -0.5091 -0.2998 -0.0330
 5469TIP3    H237823   3.588   0.589  17.024 -0.8297 -0.3133  0.0813
 5470TIP3   OH237824   1.410   3.904  16.358  0.6120  0.3444 -0.4188
 5470TIP3    H137825   1.322   3.870  16.374  0.2802  0.6519 -1.5468
 5470TIP3    H237826   1.459   3.829  16.325  1.3616 -0.3509  2.0124
 5471TIP3   OH237827   6.357   3.500  16.646 -0.0551 -0.0725  0.5294
 5471TIP3    H137828   6.393   3.547  16.721 -0.9701 -2.3565  2.5024
 5471TIP3    H237829   6.384   3.409  16.658 -2.7254 -1.0766 -0.2297
 5472TIP3   OH237830   6.698   5.708   6.536 -0.1190  0.3711 -0.2459
 5472TIP3    H137831   6.605   5.694   6.518 -0.2546  1.0723 -0.1398
 5472TIP3    H237832   6.711   5.674   6.624 -0.4021  0.7730 -0.0463
 5473TIP3   OH237833   3.547   1.043   0.143  0.1087 -0.5111  0.0642
 5473TIP3    H137834   3.474   0.985   0.162 -0.5846 -0.0436 -1.0735
 5473TIP3    H237835   3.600   1.042   0.223 -1.4893 -0.3326  1.1652
 5474TIP3   OH237836   5.120   4.800  16.681  0.1168 -0.1339  0.0032
 5474TIP3    H137837   5.116   4.727  16.619 -1.8724 -0.3755  0.3480
 5474TIP3    H237838   5.214   4.813  16.697  0.6610 -0.6502 -2.3251
 5475TIP3   OH237839   1.838   1.044   3.973  0.4252 -0.5168  0.1978
 5475TIP3    H137840   1.818   1.081   3.887 -2.4468 -3.3071 -0.4976
 5475TIP3    H237841   1.774   1.085   4.032  1.3588  0.2070  0.7386
 5476TIP3   OH237842   5.963   6.377  11.498  0.0210  0.5023 -0.6657
 5476TIP3    H137843   5.983   6.331  11.417  0.9225 -0.3658  0.0235
 5476TIP3    H237844   5.927   6.310  11.556 -0.3038  1.0391 -0.2238
 5477TIP3   OH237845   5.410   4.811  11.771  0.4298 -0.2188  0.5006
 5477TIP3    H137846   5.373   4.752  11.837  0.3107  1.2055  1.7647
 5477TIP3    H237847   5.367   4.786  11.690 -0.4664 -1.1151  1.2265
 5478TIP3   OH237848   4.846   0.424  13.660  0.5198 -0.4353  0.7183
 5478TIP3    H137849   4.844   0.496  13.723 -1.5739 -1.6351  2.1035
 5478TIP3    H237850   4.931   0.383  13.674  0.8226  0.4099  1.4734
 5479TIP3   OH237851   1.621   3.083   0.474  0.3824  0.0720  0.1060
 5479TIP3    H137852   1.602   3.125   0.390  0.0500  3.2320  1.6181
 5479TIP3    H237853   1.714   3.061   0.470 -0.0485 -1.7071 -1.7545
 5480TIP3   OH237854   1.382   5.592   1.798 -0.2794  0.0358 -0.4763
 5480TIP3    H137855   1.434   5.664   1.762  1.1793 -1.3172 -1.2189
 5480TIP3    H237856   1.308   5.584   1.738  0.4031 -0.0928 -1.3327
 5481TIP3   OH237857   4.031   1.775   4.616  0.6659  0.5937  0.5466
 5481TIP3    H137858   4.041   1.869   4.633 -1.8600  1.1781 -0.6891
 5481TIP3    H237859   3.941   1.755   4.644  1.2308 -1.5230  0.9886
 5482TIP3   OH237860   3.612   5.547   3.234 -0.1378  0.3249  0.4844
 5482TIP3    H137861   3.592   5.461   3.272  1.2399 -0.9813 -1.5281
 5482TIP3    H237862   3.621   5.605   3.310 -0.8646 -1.3388  1.9263
 5483TIP3   OH237863   0.429   4.903   4.118  0.0483 -0.4451  0.2388
 5483TIP3    H137864   0.395   4.821   4.152 -1.3507  0.6778  1.7233
 5483TIP3    H237865   0.500   4.926   4.178  0.9419 -0.9191 -0.6183
 5484TIP3   OH237866   0.517   5.465  14.382  0.0816  0.1277 -0.1197
 5484TIP3    H137867   0.480   5.546  14.417  0.8853  0.6018 -0.3318
 5484TIP3    H237868   0.544   5.416  14.460 -2.3466 -0.9490  0.1395
 5485TIP3   OH237869   4.150   2.997   5.110  0.0086  0.4022  0.1873
 5485TIP3    H137870   4.069   3.039   5.083 -0.5458 -0.7812 -0.0651
 5485TIP3    H237871   4.163   3.026   5.201 -0.3059  1.1609 -0.0045
 5486TIP3   OH237872   4.718   6.658  15.678 -0.0803  0.4866  0.6965
 5486TIP3    H137873   4.773   6.581  15.665 -1.3679 -0.6085  1.4756
 5486TIP3    H237874   4.647   6.648  15.614  1.5564  2.9096 -1.7033
 5487TIP3   OH237875   4.051   0.633   1.670  0.2994 -0.1021  0.2918
 5487TIP3    H137876   3.970   0.583   1.655  0.1928 -0.1457  0.9688
 5487TIP3    H237877   4.117   0.587   1.619  0.0779 -0.5914  0.4320
 5488TIP3   OH237878   3.006   0.674   4.118 -0.7247  0.0244  0.4136
 5488TIP3    H137879   3.011   0.719   4.034 -2.3613 -0.4786  0.0243
 5488TIP3    H237880   2.968   0.738   4.178 -0.1839  0.1555  0.6285
 5489TIP3   OH237881   4.934   0.805  15.484 -0.4346 -0.3230 -0.2513
 5489TIP3    H137882   5.008   0.814  15.545 -0.2237 -2.8216 -0.0372
 5489TIP3    H237883   4.967   0.839  15.401  0.2815  0.3606  0.2920
 5490TIP3   OH237884   0.993   4.234   4.550 -0.4189  0.3148  0.1256
 5490TIP3    H137885   1.037   4.318   4.541 -0.1828  0.1100 -0.7529
 5490TIP3    H237886   0.971   4.209   4.461 -1.2306 -0.1688  0.4519
 5491TIP3   OH237887   5.183   2.868   3.431  0.1962 -0.0652  0.4133
 5491TIP3    H137888   5.230   2.817   3.497  0.5449  0.7688  0.8266
 5491TIP3    H237889   5.093   2.874   3.464  0.6535  1.4647  1.5281
 5492TIP3   OH237890   1.879   5.690  12.613 -0.0754  0.5997 -0.1531
 5492TIP3    H137891   1.836   5.706  12.529  1.9729  0.4716 -1.2972
 5492TIP3    H237892   1.807   5.682  12.676 -1.8148 -1.4725 -2.2126
 5493TIP3   OH237893   1.902   0.870   5.937 -0.7117 -0.2586  0.2208
 5493TIP3    H137894   1.852   0.791   5.957  0.2298 -0.9052  0.1299
 5493TIP3    H237895   1.984   0.859   5.987 -0.4238  0.4955 -0.0715
 5494TIP3   OH237896   2.755   5.372   6.366 -0.0954 -0.7240 -0.1852
 5494TIP3    H137897   2.821   5.385   6.297  0.2346 -2.8023 -0.3098
 5494TIP3    H237898   2.682   5.428   6.340  1.0205  0.4876 -0.8387
 5495TIP3   OH237899   5.745   1.443  16.733  0.0459 -0.0975 -0.8151
 5495TIP3    H137900   5.764   1.360  16.777 -0.5085  0.6497  0.9076
 5495TIP3    H237901   5.652   1.439  16.713 -0.1571  0.4231 -0.0043
 5496TIP3   OH237902   0.769   0.662   2.948  0.1819  0.0004  0.7019
 5496TIP3    H137903   0.683   0.680   2.986  0.2332  0.2855  0.6857
 5496TIP3    H237904   0.754   0.662   2.853 -0.0298 -1.1362  0.7223
 5497TIP3   OH237905   5.205   3.826  16.312 -0.0141  0.1485 -0.3587
 5497TIP3    H137906   5.165   3.739  16.302  3.6998 -1.6216 -1.5352
 5497TIP3    H237907   5.204   3.864  16.224  0.4236  0.2902 -0.3072
 5498TIP3   OH237908   0.913   3.703  11.889  0.0773 -0.3199 -0.6109
 5498TIP3    H137909   0.929   3.686  11.982 -0.1078  0.0086 -0.5185
 5498TIP3    H237910   1.000   3.722  11.854  0.6314 -3.3013 -1.1245
 5499TIP3   OH237911   4.353   6.456   0.493 -0.4702 -0.0982 -0.2238
 5499TIP3    H137912   4.299   6.530   0.519 -1.4423 -0.7305 -0.4140
 5499TIP3    H237913   4.316   6.381   0.539  1.8489 -0.1796  1.7554
 5500TIP3   OH237914   2.565   6.043   3.560 -0.2506  0.0511  0.1860
 5500TIP3    H137915   2.640   6.089   3.522 -1.0388  0.2334 -1.2085
 5500TIP3    H237916   2.583   6.042   3.654  1.2097  0.6042 -0.0588
 5501TIP3   OH237917   2.163   0.285  14.437 -0.6333  0.4283  0.1587
 5501TIP3    H137918   2.211   0.292  14.519 -1.8841  0.5139  0.9057
 5501TIP3    H237919   2.149   0.376  14.410 -1.3082  0.4310  0.5088
 5502TIP3   OH237920   6.723   2.150  14.075 -0.8270  0.1414 -0.0982
 5502TIP3    H137921   6.757   2.068  14.039 -0.3054  0.2323  0.1676
 5502TIP3    H237922   6.679   2.192  14.002  1.8552  1.2268 -1.2495
 5503TIP3   OH237923   6.327   3.155   0.538  0.1170 -0.9047  0.1401
 5503TIP3    H137924   6.367   3.095   0.601  1.9372 -1.7035 -1.6449
 5503TIP3    H237925   6.366   3.130   0.454 -3.0825 -0.6935 -1.5436
 5504TIP3   OH237926   1.632   2.395   4.501  0.0884 -0.3035 -0.0597
 5504TIP3    H137927   1.725   2.411   4.520 -0.0775 -0.5204  1.0428
 5504TIP3    H237928   1.607   2.328   4.565 -0.4558 -1.3632 -1.3364
 5505TIP3   OH237929   0.624   3.234   4.614 -0.3357 -0.0380  0.1604
 5505TIP3    H137930   0.586   3.150   4.641  0.0487 -0.2207  0.1291
 5505TIP3    H237931   0.548   3.291   4.600 -0.5722 -0.1584  0.9084
 5506TIP3   OH237932   5.518   1.239  14.042 -0.2317  0.1202  0.9657
 5506TIP3    H137933   5.494   1.152  14.009  2.9852  0.0388 -1.7500
 5506TIP3    H237934   5.452   1.297  14.006 -1.2547 -0.9242  1.0784
 5507TIP3   OH237935   4.254   5.517  14.633 -0.5043 -0.6993  0.5069
 5507TIP3    H137936   4.223   5.427  14.621  0.0266 -0.6231 -1.9894
 5507TIP3    H237937   4.345   5.507  14.663 -0.1278 -1.0450 -0.6854
 5508TIP3   OH237938   4.032   0.817  13.408 -0.3152 -0.0044 -0.1674
 5508TIP3    H137939   4.081   0.773  13.338 -1.1165  0.4224 -1.0237
 5508TIP3    H237940   4.002   0.746  13.464 -1.2633 -0.5499 -1.3112
 5509TIP3   OH237941   3.962   5.680  12.428  0.6825 -0.1497  0.4053
 5509TIP3    H137942   3.924   5.597  12.401  0.5702 -0.5880  1.8169
 5509TIP3    H237943   3.889   5.728  12.468  1.1098 -0.0925  1.1377
 5510TIP3   OH237944   2.502   0.084  16.701 -0.2928 -0.3328 -0.1066
 5510TIP3    H137945   2.501   0.033  16.619  2.0804  0.7061 -0.8653
 5510TIP3    H237946   2.533   0.022  16.766 -2.2548 -1.1871  0.0927
 5511TIP3   OH237947   1.190   5.823   2.821 -0.3840 -0.4006  0.0164
 5511TIP3    H137948   1.175   5.918   2.824 -0.1714 -0.3428 -0.6624
 5511TIP3    H237949   1.266   5.809   2.878 -1.2229 -0.3362  1.1725
 5512TIP3   OH237950   2.514   0.034  12.089 -0.7021  0.9609  0.1492
 5512TIP3    H137951   2.479  -0.053  12.111 -1.1111  1.8324  3.4606
 5512TIP3    H237952   2.438   0.085  12.063 -0.8749  1.0143  0.7456
 5513TIP3   OH237953   6.328   0.560   5.773 -0.3129  0.6520  0.1357
 5513TIP3    H137954   6.333   0.634   5.712  0.8855  1.4454  1.1515
 5513TIP3    H237955   6.277   0.593   5.847 -0.9065  0.0138  0.0249
 5514TIP3   OH237956   2.185   4.538  15.645 -0.0471 -0.4343  0.1794
 5514TIP3    H137957   2.172   4.443  15.646 -1.2549 -0.2824  0.3322
 5514TIP3    H237958   2.277   4.549  15.622 -0.3027 -1.6223 -1.6501
 5515TIP3   OH237959   5.062   2.970   1.599  0.2400  0.4192 -0.2454
 5515TIP3    H137960   5.095   2.908   1.665 -0.6050  0.7814  0.5474
 5515TIP3    H237961   5.048   3.052   1.648  1.4695  1.2971 -1.3004
 5516TIP3   OH237962   5.082   0.225   5.033 -0.1078  0.9661 -0.3053
 5516TIP3    H137963   5.068   0.144   4.985  1.2273 -0.2072  1.1717
 5516TIP3    H237964   5.019   0.223   5.104 -0.1235  1.2773 -0.3062
 5517TIP3   OH237965   4.537   6.626   1.764  0.0703 -0.3980 -0.8266
 5517TIP3    H137966   4.590   6.705   1.750  1.0725 -0.8253  0.3370
 5517TIP3    H237967   4.592   6.555   1.731 -0.7137 -0.6410 -1.6240
 5518TIP3   OH237968   4.563   3.033   5.262  0.1474  0.2628 -0.1792
 5518TIP3    H137969   4.540   3.114   5.308 -1.2009 -1.4123  2.2822
 5518TIP3    H237970   4.483   3.011   5.213  0.3713  0.1682 -0.5060
 5519TIP3   OH237971   5.772   0.627   4.840  0.1005 -0.3640  0.0209
 5519TIP3    H137972   5.771   0.600   4.932 -0.0676 -0.2277  0.0583
 5519TIP3    H237973   5.864   0.649   4.823  0.0983 -0.2170  0.2049
 5520TIP3   OH237974   1.989   0.168  13.610  0.2186 -0.1739  0.8167
 5520TIP3    H137975   2.006   0.106  13.681  1.6798  0.8240  1.4061
 5520TIP3    H237976   2.040   0.135  13.536 -1.0167 -1.0179  0.3207
 5521TIP3   OH237977   6.396   1.569   4.928 -0.0586 -0.6624 -0.3368
 5521TIP3    H137978   6.334   1.618   4.874  1.0153 -0.2248 -1.2112
 5521TIP3    H237979   6.372   1.477   4.915 -0.3034 -0.5169 -0.9375
 5522TIP3   OH237980   6.078   5.237  16.064 -0.1592 -0.0885  0.1567
 5522TIP3    H137981   6.069   5.250  16.159  1.0386  1.6310  0.0753
 5522TIP3    H237982   6.167   5.265  16.044  0.2911 -2.2765 -1.2218
 5523TIP3   OH237983   2.323   4.086  14.623 -0.5586  0.1934 -0.2596
 5523TIP3    H137984   2.289   4.141  14.694 -0.1693  1.4397 -1.0214
 5523TIP3    H237985   2.245   4.043  14.587 -0.9316  0.6374  0.0065
 5524TIP3   OH237986   1.198   3.160  12.301 -0.0702 -0.1769  0.0098
 5524TIP3    H137987   1.118   3.172  12.252  1.3495  0.5451 -2.2688
 5524TIP3    H237988   1.185   3.078  12.349 -1.7095 -0.6667 -1.1946
 5525TIP3   OH237989   1.346   5.892   1.186 -0.6178  0.1603 -0.2406
 5525TIP3    H137990   1.309   5.828   1.246  1.4082 -1.0696 -0.1986
 5525TIP3    H237991   1.302   5.876   1.103  1.7634 -3.4176 -1.0530
 5526TIP3   OH237992   4.130   2.612   1.910  0.0378 -0.3101  0.1139
 5526TIP3    H137993   4.160   2.591   1.822  1.4819 -0.3700  0.6070
 5526TIP3    H237994   4.079   2.535   1.937  0.7788 -0.8901 -0.1365
 5527TIP3   OH237995   3.835   0.400   4.077  0.2290  0.1505 -0.4054
 5527TIP3    H137996   3.911   0.345   4.062  0.7667  0.4600  0.9687
 5527TIP3    H237997   3.866   0.466   4.140 -0.6378  1.4601 -1.3030
 5528TIP3   OH237998   6.016   4.078  16.484 -0.1912  0.4410  0.2168
 5528TIP3    H137999   5.992   4.133  16.559  0.1657  0.0490  0.6241
 5528TIP3    H238000   6.107   4.053  16.501 -0.0903  0.4019 -0.3814
 5529TIP3   OH238001   4.727   5.762  11.414  0.3366  0.9327 -0.4034
 5529TIP3    H138002   4.820   5.781  11.406  0.5173 -0.0024 -0.7143
 5529TIP3    H238003   4.722   5.666  11.412 -0.6507  0.9743 -0.6019
 5530TIP3   OH238004   1.482   1.129   1.788 -0.0506  0.3189 -0.0988
 5530TIP3    H138005   1.554   1.162   1.842  1.1719  0.5893 -1.7859
 5530TIP3    H238006   1.515   1.046   1.753 -0.4279  0.5670 -1.0875
 5531TIP3   OH238007   2.741   0.120  12.262  0.8083 -0.2527  0.4717
 5531TIP3    H138008   2.679   0.098  12.193  0.7732  0.0327  0.4110
 5531TIP3    H238009   2.824   0.081  12.233  0.8214 -0.0341  0.2099
 5532TIP3   OH238010   1.088   4.643  15.690  0.1442  0.2473 -0.4645
 5532TIP3    H138011   1.172   4.629  15.646  0.3968  0.7648 -0.1495
 5532TIP3    H238012   1.058   4.728  15.659  1.0166  1.2962  1.4425
 5533TIP3   OH238013   1.707   4.432   5.228 -0.0090  0.1376 -0.4695
 5533TIP3    H138014   1.785   4.381   5.208  0.9020  1.9503 -1.7989
 5533TIP3    H238015   1.716   4.452   5.321 -0.2847 -1.8384  0.0442
 5534TIP3   OH238016   1.711   3.915   2.553 -0.1301 -0.1606  0.2193
 5534TIP3    H138017   1.791   3.965   2.569  1.2626 -2.8243  2.4358
 5534TIP3    H238018   1.654   3.937   2.627 -1.6429  1.8012 -1.3976
 5535TIP3   OH238019   5.630   2.985   1.345  0.1201 -0.2206 -0.1428
 5535TIP3    H138020   5.554   3.042   1.356 -0.8178 -1.7166  1.6833
 5535TIP3    H238021   5.597   2.912   1.292  0.6943 -0.2116 -0.5290
 5536TIP3   OH238022   4.407   3.901  16.224  0.7933 -0.3180  0.1151
 5536TIP3    H138023   4.479   3.884  16.284  0.3032  1.6612  1.3313
 5536TIP3    H238024   4.346   3.956  16.273 -0.3497  0.1453 -1.7070
 5537TIP3   OH238025   1.673   6.116   4.308  0.6788  0.4122  0.3267
 5537TIP3    H138026   1.593   6.064   4.302  1.1938 -0.4256  0.6018
 5537TIP3    H238027   1.695   6.115   4.401  0.8368  0.9107  0.2980
 5538TIP3   OH238028   3.263   5.702   1.680 -0.1449  0.2415  0.5223
 5538TIP3    H138029   3.233   5.644   1.750  0.3264  0.2710  0.7531
 5538TIP3    H238030   3.206   5.779   1.686 -3.8198 -1.8514 -2.5426
 5539TIP3   OH238031   3.769   5.801   2.742 -0.1903 -0.1927  0.5738
 5539TIP3    H138032   3.859   5.805   2.710 -0.5703 -1.2021 -0.7295
 5539TIP3    H238033   3.771   5.734   2.810 -0.0031 -0.4435  0.3252
 5540TIP3   OH238034   2.441   5.073  16.503 -0.5038 -0.1861  0.3572
 5540TIP3    H138035   2.408   5.036  16.584  0.3387 -3.3541 -0.6095
 5540TIP3    H238036   2.449   4.998  16.444  2.3488  1.3995 -1.4918
 5541TIP3   OH238037   4.612   0.275  11.272  0.0413  0.0096 -0.2145
 5541TIP3    H138038   4.584   0.360  11.236 -1.6305  0.1902  1.3825
 5541TIP3    H238039   4.551   0.212  11.234 -0.0374 -0.1764  0.2219
 5542TIP3   OH238040   6.029   3.260   0.826  0.2159 -0.2095  0.7488
 5542TIP3    H138041   6.091   3.267   0.899 -0.1822 -1.6153  1.2422
 5542TIP3    H238042   5.961   3.325   0.846  1.6038  1.5134  0.0855
 5543TIP3   OH238043   5.276   0.071   6.178 -0.4380  0.5461  0.2776
 5543TIP3    H138044   5.234  -0.013   6.161  1.1241 -0.4022  0.9259
 5543TIP3    H238045   5.369   0.053   6.175 -0.0370  2.4611 -0.4966
 5544TIP3   OH238046   5.885   4.428   5.052  0.7477  0.1421  0.3249
 5544TIP3    H138047   5.842   4.357   5.100  1.1071 -0.9626 -0.9163
 5544TIP3    H238048   5.932   4.477   5.119  0.9001 -1.0955  1.1648
 5545TIP3   OH238049   2.093   1.558   4.549 -0.5220 -0.5242 -0.0322
 5545TIP3    H138050   2.079   1.634   4.492  0.4072 -0.8686 -0.7538
 5545TIP3    H238051   2.147   1.499   4.496 -1.0799 -1.6071  0.5916
 5546TIP3   OH238052   4.910   1.525  11.666  0.4959  0.1597  0.5190
 5546TIP3    H138053   4.945   1.437  11.678 -1.5931 -0.5032  2.4959
 5546TIP3    H238054   4.842   1.515  11.600 -0.3351  0.0702  1.3660
 5547TIP3   OH238055   0.934   5.711   3.169  0.0874  0.0460  0.3496
 5547TIP3    H138056   0.972   5.628   3.139  1.9305  0.9892 -0.1006
 5547TIP3    H238057   0.992   5.739   3.240  1.0817  2.1737 -1.2074
 5548TIP3   OH238058   3.973   0.497  10.512  0.4191 -1.0411  0.6215
 5548TIP3    H138059   3.937   0.410  10.493 -1.9816  0.1469 -0.8066
 5548TIP3    H238060   3.954   0.511  10.605 -0.6492 -1.4553  0.4881
 5549TIP3   OH238061   5.380   1.832  15.955  0.5530 -0.3564 -0.4294
 5549TIP3    H138062   5.393   1.740  15.931 -0.7691 -0.6507 -0.0469
 5549TIP3    H238063   5.353   1.875  15.873 -0.0247 -0.5509 -0.3392
 5550TIP3   OH238064   0.617   0.198  13.882 -0.0517  1.1518 -0.0959
 5550TIP3    H138065   0.568   0.116  13.897  1.5842  0.3768  1.3949
 5550TIP3    H238066   0.606   0.247  13.964  0.3334  1.6967 -0.3690
 5551TIP3   OH238067   1.263   1.088  14.566 -0.1218 -0.4977 -0.1925
 5551TIP3    H138068   1.220   1.010  14.602 -0.0823 -0.2524  0.4017
 5551TIP3    H238069   1.191   1.151  14.554  0.0484 -0.0884  0.7986
 5552TIP3   OH238070   5.443   1.704   5.813 -0.3226 -0.3448 -0.1143
 5552TIP3    H138071   5.483   1.618   5.819  1.1570  0.3729  1.3799
 5552TIP3    H238072   5.517   1.765   5.812 -1.3009  0.9042 -1.9275
 5553TIP3   OH238073   6.326   6.208   5.090 -0.0520 -0.0121 -0.0261
 5553TIP3    H138074   6.418   6.231   5.079  0.3006 -1.2985  0.1610
 5553TIP3    H238075   6.321   6.167   5.176 -0.8529  0.2480  0.0670
 5554TIP3   OH238076   5.800   1.163  16.798 -0.3269 -0.5116 -0.8899
 5554TIP3    H138077   5.849   1.113  16.863  0.8754  2.6367  0.8206
 5554TIP3    H238078   5.713   1.172  16.836 -0.6093 -1.3802 -1.2966
 5555TIP3   OH238079   5.167   2.014  10.942  0.0567  0.0533 -0.0135
 5555TIP3    H138080   5.196   1.968  10.864  1.6124 -0.0175  0.5554
 5555TIP3    H238081   5.153   1.946  11.007  1.7608  0.2720  0.6451
 5556TIP3   OH238082   3.677   0.481   1.840 -0.2598 -0.4168 -0.1969
 5556TIP3    H138083   3.638   0.460   1.925  0.6883 -0.0116  0.3549
 5556TIP3    H238084   3.770   0.490   1.858 -0.3348  2.4316 -0.7221
 5557TIP3   OH238085   4.085   3.693   1.043  0.0266 -0.0160  0.5327
 5557TIP3    H138086   4.131   3.625   1.091  0.4738  0.4665  0.7894
 5557TIP3    H238087   4.113   3.681   0.952 -1.1396 -1.1924  0.2929
 5558TIP3   OH238088   6.546   2.582   2.807  0.1492 -0.1298  0.0726
 5558TIP3    H138089   6.476   2.645   2.795 -1.0537 -1.0192  1.9804
 5558TIP3    H238090   6.616   2.631   2.849 -0.2035  0.2474  0.2178
 5559TIP3   OH238091   0.073   6.137  16.280 -0.1596  0.3461 -0.0709
 5559TIP3    H138092   0.016   6.162  16.352 -0.7150 -0.1592 -0.3260
 5559TIP3    H238093   0.070   6.212  16.220 -1.3642 -0.0835 -0.5648
 5560TIP3   OH238094   6.683   6.617   1.426 -0.0163  0.4464  0.5536
 5560TIP3    H138095   6.679   6.705   1.464  1.6687  0.5668  0.4958
 5560TIP3    H238096   6.595   6.581   1.441 -0.8077  2.2043  0.3659
 5561TIP3   OH238097   0.922   5.282  15.485  0.3459  0.7090  0.0516
 5561TIP3    H138098   0.834   5.309  15.510 -0.4922 -1.8080  0.0851
 5561TIP3    H238099   0.970   5.276  15.568  0.3317  1.2818  0.1084
 5562TIP3   OH238100   3.779   2.973  15.927  0.2555 -0.3291  1.0053
 5562TIP3    H138101   3.745   2.970  16.016  1.0214  0.1799  1.3210
 5562TIP3    H238102   3.722   2.912  15.878 -1.8624  1.3429  1.2394
 5563TIP3   OH238103   4.498   2.543   2.420 -0.0265  0.2237 -0.7807
 5563TIP3    H138104   4.415   2.499   2.402  0.2804 -0.3407 -0.8297
 5563TIP3    H238105   4.500   2.617   2.360 -2.6520  3.1024  2.2695
 5564TIP3   OH238106   4.598   2.524   1.577  0.0436 -0.2140 -0.2907
 5564TIP3    H138107   4.625   2.615   1.573 -0.0025 -0.1632  0.4093
 5564TIP3    H238108   4.680   2.475   1.585  0.2263 -0.4004 -2.5343
 5565TIP3   OH238109   4.224   4.602   5.473  1.0173 -0.4750 -0.4955
 5565TIP3    H138110   4.169   4.659   5.527  0.0503 -1.4271 -0.4328
 5565TIP3    H238111   4.313   4.631   5.490  0.6031  0.4273  0.2214
 5566TIP3   OH238112   1.312   1.405   3.073  0.1772 -0.3312  0.2561
 5566TIP3    H138113   1.393   1.383   3.028 -0.2033 -2.4096  0.4935
 5566TIP3    H238114   1.254   1.439   3.004  0.8687  0.1558 -0.0947
 5567TIP3   OH238115   1.663   2.781  16.115 -0.2274 -0.0800 -0.0231
 5567TIP3    H138116   1.747   2.739  16.131  0.6282  1.5899  0.0267
 5567TIP3    H238117   1.675   2.828  16.032 -0.9714  0.5293  0.2041
 5568TIP3   OH238118   3.998   0.008  15.583 -0.4601  0.5094  1.3967
 5568TIP3    H138119   4.063  -0.027  15.644 -0.9668 -1.4229  0.8915
 5568TIP3    H238120   4.048   0.067  15.526  1.3885 -2.3970 -0.2478
 5569TIP3   OH238121   6.079   5.542   0.648 -0.2784  0.3561 -0.2836
 5569TIP3    H138122   5.999   5.489   0.656  1.2642 -2.2152 -0.6016
 5569TIP3    H238123   6.095   5.576   0.736 -0.9571 -0.2959  0.1063
 5570TIP3   OH238124   3.618   1.790  14.783 -0.2505  0.0197  0.3087
 5570TIP3    H138125   3.692   1.843  14.752 -0.1087  0.1669  0.8994
 5570TIP3    H238126   3.552   1.853  14.810 -0.9645 -0.0998 -1.0327
 5571TIP3   OH238127   1.832   3.419  14.423  0.1267 -0.1522 -0.4447
 5571TIP3    H138128   1.840   3.391  14.514 -0.0978 -2.0115 -0.9604
 5571TIP3    H238129   1.922   3.417  14.389  0.0023 -1.3670 -0.7615
 5572TIP3   OH238130   3.872   3.763   5.346  0.5016 -0.4977 -0.3234
 5572TIP3    H138131   3.927   3.748   5.270  1.2644 -1.2265  0.3626
 5572TIP3    H238132   3.914   3.836   5.392  0.0232 -0.0365 -0.5986
 5573TIP3   OH238133   2.421   1.508   4.117 -1.2290  0.5998  0.4623
 5573TIP3    H138134   2.363   1.433   4.101 -1.5606  0.9946 -0.1873
 5573TIP3    H238135   2.393   1.574   4.054 -0.9221  1.2702  1.0203
 5574TIP3   OH238136   4.586   4.926  15.738 -0.0221 -0.3780 -0.0483
 5574TIP3    H138137   4.515   4.865  15.720 -0.7798  0.8670 -1.4900
 5574TIP3    H238138   4.543   5.005  15.770  0.8068 -0.0041  0.1653
 5575TIP3   OH238139   5.117   5.049  13.985  0.0871  0.1099 -0.5151
 5575TIP3    H138140   5.096   5.048  14.078  1.7597  0.9087 -0.0994
 5575TIP3    H238141   5.052   5.108  13.947 -2.1325 -2.0523 -0.3123
 5576TIP3   OH238142   6.682   4.362  10.865 -0.7143  0.2333 -0.5758
 5576TIP3    H138143   6.660   4.302  10.795  2.1278 -2.7593  0.7853
 5576TIP3    H238144   6.769   4.395  10.842  0.5535 -1.2817  1.6331
 5577TIP3   OH238145   0.889   5.376  11.300 -0.1108  0.2952 -0.0789
 5577TIP3    H138146   0.886   5.331  11.385 -0.7125 -0.7102 -0.6165
 5577TIP3    H238147   0.812   5.434  11.302 -0.0592  0.3590  0.1045
 5578TIP3   OH238148   5.121   5.356  15.745 -0.1801  0.5568 -0.6516
 5578TIP3    H138149   5.067   5.394  15.814  0.6542  0.4282  0.1108
 5578TIP3    H238150   5.059   5.316  15.684 -1.0478 -3.7327  2.4983
 5579TIP3   OH238151   0.100   4.055  11.082  0.2313 -0.0156 -0.6259
 5579TIP3    H138152   0.165   3.984  11.082  0.0033 -0.2674  0.7429
 5579TIP3    H238153   0.026   4.020  11.032 -0.2949 -1.2034  0.8894
 5580TIP3   OH238154   0.651   2.027   3.766  0.5320  0.0940 -0.4724
 5580TIP3    H138155   0.589   2.096   3.790  0.1109 -0.4590  0.0653
 5580TIP3    H238156   0.706   2.017   3.844  2.3681  1.6822 -1.4780
 5581TIP3   OH238157   4.507   5.952  10.656 -0.1533 -0.0891 -0.3331
 5581TIP3    H138158   4.425   5.972  10.701  0.4610 -0.4201  0.9888
 5581TIP3    H238159   4.480   5.904  10.578 -1.1706 -1.6400  0.8888
 5582TIP3   OH238160   1.237   2.810   0.587  0.5931  0.4595 -0.4959
 5582TIP3    H138161   1.332   2.802   0.580  0.6521  0.7343 -0.0384
 5582TIP3    H238162   1.217   2.779   0.676  0.1370 -0.6053 -0.9540
 5583TIP3   OH238163   5.161   3.231  11.285 -0.5770  0.1782 -0.3417
 5583TIP3    H138164   5.229   3.211  11.220 -0.1768  2.2302 -0.6224
 5583TIP3    H238165   5.079   3.221  11.238 -0.3156  0.9233 -0.9719
 5584TIP3   OH238166   0.009   1.937  13.903 -0.0709 -0.4063 -0.0495
 5584TIP3    H138167   0.064   1.980  13.838  1.5064 -1.9676  0.1757
 5584TIP3    H238168   0.011   1.844  13.879 -0.5483 -0.8384  1.4386
 5585TIP3   OH238169   1.730   3.568  14.181 -0.6225 -0.9418 -0.5109
 5585TIP3    H138170   1.799   3.518  14.137  1.3603 -2.2470  3.5134
 5585TIP3    H238171   1.774   3.646  14.214 -1.6318 -0.6510  0.2011
 5586TIP3   OH238172   1.414   4.567   5.820 -0.2256  0.0699  0.4308
 5586TIP3    H138173   1.361   4.595   5.894  0.8546 -1.7243  1.9945
 5586TIP3    H238174   1.485   4.631   5.816 -1.5479  1.5307 -0.6220
 5587TIP3   OH238175   6.601   2.442   2.458 -0.3499  0.3298 -0.2241
 5587TIP3    H138176   6.648   2.525   2.445 -1.0114  1.0603  1.7239
 5587TIP3    H238177   6.587   2.409   2.369  0.9327  1.7203 -1.0048
 5588TIP3   OH238178   4.143   1.659   0.108 -0.2171 -0.1232  0.3014
 5588TIP3    H138179   4.221   1.636   0.059  0.2747  1.9873 -0.0307
 5588TIP3    H238180   4.154   1.617   0.193  1.1348 -0.1117  0.1465
 5589TIP3   OH238181   2.153   0.951   6.827  0.6424  0.5658  0.0266
 5589TIP3    H138182   2.151   0.870   6.775  0.4562 -0.5075  1.6521
 5589TIP3    H238183   2.063   0.961   6.859  0.3118  2.2040 -1.2607
 5590TIP3   OH238184   1.034   5.062  15.296  0.0895 -0.1730 -0.0837
 5590TIP3    H138185   0.980   5.068  15.375  1.3348  1.7746  0.7130
 5590TIP3    H238186   0.972   5.066  15.224 -1.0294 -1.2453  0.7953
 5591TIP3   OH238187   1.305   3.060  12.747 -0.2572  0.0126 -0.3516
 5591TIP3    H138188   1.214   3.029  12.757 -0.0364 -0.7331 -0.6121
 5591TIP3    H238189   1.358   2.981  12.755  0.4993  0.6550  1.5057
 5592TIP3   OH238190   4.714   6.533  15.377 -0.7727  0.1793  0.3092
 5592TIP3    H138191   4.654   6.483  15.320 -0.9430  1.0976 -0.3389
 5592TIP3    H238192   4.656   6.577  15.439 -0.9238  2.0929 -1.1164
 5593TIP3   OH238193   5.471   1.638   1.662 -0.2636  0.5115  0.4308
 5593TIP3    H138194   5.425   1.606   1.740  1.1121 -2.1781  0.2775
 5593TIP3    H238195   5.402   1.672   1.605 -1.9346 -1.9518  0.8490
 5594TIP3   OH238196   3.667   3.198   0.761  0.2763 -0.5952  0.5728
 5594TIP3    H138197   3.594   3.211   0.823 -2.6928 -0.7920 -2.6011
 5594TIP3    H238198   3.671   3.279   0.712  0.7075 -1.3900 -0.7486
 5595TIP3   OH238199   2.422   2.681   2.548 -0.3422  0.0742  0.0999
 5595TIP3    H138200   2.452   2.712   2.634  0.0430 -0.3640  0.1268
 5595TIP3    H238201   2.458   2.593   2.541  2.5803  1.2686 -1.9622
 5596TIP3   OH238202   3.502   0.305   1.668 -0.2349  0.4769 -0.0973
 5596TIP3    H138203   3.567   0.350   1.721 -0.8791  0.9362  0.3200
 5596TIP3    H238204   3.546   0.287   1.585  0.0645  1.7915 -0.2379
 5597TIP3   OH238205   6.696   4.501  12.772  0.0211 -0.7435 -0.4222
 5597TIP3    H138206   6.777   4.534  12.733 -0.3323  2.3345  1.1562
 5597TIP3    H238207   6.704   4.522  12.865 -3.1126  0.9376 -0.4208
 5598TIP3   OH238208   5.242   4.266   2.211  0.8676 -0.2574 -0.0499
 5598TIP3    H138209   5.261   4.346   2.163  2.0698 -0.1928  0.5116
 5598TIP3    H238210   5.305   4.202   2.177 -1.1499 -1.4895 -1.7118
 5599TIP3   OH238211   5.239   4.266  14.122 -0.0323 -0.4238 -0.1752
 5599TIP3    H138212   5.171   4.231  14.064  0.4597 -0.3036 -0.8499
 5599TIP3    H238213   5.249   4.358  14.094 -1.1630  0.2311  1.4274
 5600TIP3   OH238214   6.416   3.232  16.630 -0.4140  0.8574  0.6674
 5600TIP3    H138215   6.476   3.160  16.647 -1.3359 -0.7457 -2.1663
 5600TIP3    H238216   6.335   3.206  16.673 -0.1723  1.2526  1.3859
 5601TIP3   OH238217   5.554   2.176   5.331 -0.2220  0.0193 -0.1454
 5601TIP3    H138218   5.562   2.258   5.379  0.3874  0.4048 -0.8883
 5601TIP3    H238219   5.480   2.191   5.272 -0.6397 -0.2680  0.2991
 5602TIP3   OH238220   2.802   2.056  15.290 -0.1376 -0.5402 -0.8032
 5602TIP3    H138221   2.807   2.151  15.289 -2.1115 -0.3537  0.5563
 5602TIP3    H238222   2.860   2.029  15.360  0.4305 -0.3486 -1.1956
 5603TIP3   OH238223   2.559   6.131   0.401 -0.3252 -0.0054 -0.1216
 5603TIP3    H138224   2.625   6.122   0.332  1.0648  0.3990  1.0989
 5603TIP3    H238225   2.479   6.156   0.355  1.1170  2.6501 -1.4006
 5604TIP3   OH238226   0.970   1.475  15.757  0.4972 -0.0082  0.2569
 5604TIP3    H138227   0.950   1.433  15.841 -0.2938 -0.5808 -0.2021
 5604TIP3    H238228   0.893   1.529  15.738  1.1897  1.0756  0.4744
 5605TIP3   OH238229   4.815   1.378  12.095 -0.9187  0.3155 -0.4944
 5605TIP3    H138230   4.801   1.434  12.171  0.9280 -0.0054  0.1245
 5605TIP3    H238231   4.898   1.407  12.058 -0.0232 -1.8228 -0.3000
 5606TIP3   OH238232   0.287   1.871  15.524 -0.2368 -0.3327 -0.5053
 5606TIP3    H138233   0.354   1.891  15.458  1.3319 -0.4558  0.9793
 5606TIP3    H238234   0.336   1.834  15.597 -2.0185 -0.9182  0.4501
 5607TIP3   OH238235   0.494   2.363   2.662 -0.3634  0.0301  0.7206
 5607TIP3    H138236   0.408   2.363   2.620 -0.4023 -0.9600  0.7794
 5607TIP3    H238237   0.507   2.453   2.690 -1.7413  0.0241  1.4312
 5608TIP3   OH238238   0.347   1.392  15.479  0.1813 -1.2131  0.2705
 5608TIP3    H138239   0.397   1.352  15.407  1.5374  1.1091 -0.1729
 5608TIP3    H238240   0.265   1.419  15.438  0.6109 -0.6365 -0.2251
 5609TIP3   OH238241   5.704   3.711   4.084 -0.1098 -0.0079 -0.3129
 5609TIP3    H138242   5.778   3.717   4.023  1.2191  0.4852  1.2554
 5609TIP3    H238243   5.699   3.618   4.106  1.4856  0.2042  1.1714
 5610TIP3   OH238244   5.085   1.821  15.227 -0.4456  0.9587  0.0605
 5610TIP3    H138245   5.113   1.912  15.213  0.1198  0.9479  1.0859
 5610TIP3    H238246   5.161   1.778  15.264 -1.4056  0.6210  1.7365
 5611TIP3   OH238247   3.578   4.417   3.342  0.0083 -0.7817 -0.1610
 5611TIP3    H138248   3.531   4.351   3.393  1.6939  0.1363  2.8434
 5611TIP3    H238249   3.658   4.374   3.314  0.8800 -0.2481  1.3832
 5612TIP3   OH238250   0.228   5.614   3.616  0.3689  0.1065  0.2634
 5612TIP3    H138251   0.154   5.584   3.669  0.3271  0.8746  0.6494
 5612TIP3    H238252   0.203   5.593   3.526  0.0847 -0.4658  0.4698
 5613TIP3   OH238253   6.380   3.944  15.626 -0.3938 -0.3389 -0.5538
 5613TIP3    H138254   6.309   3.967  15.686  1.3856 -0.3112  1.6738
 5613TIP3    H238255   6.395   3.851  15.642 -0.3038 -0.4825 -1.4502
 5614TIP3   OH238256   0.437   1.271  12.995  0.1011  0.6522 -0.5234
 5614TIP3    H138257   0.347   1.299  13.008  0.2183  0.8845 -0.1772
 5614TIP3    H238258   0.480   1.290  13.079 -0.1255 -1.7735  0.2300
 5615TIP3   OH238259   6.568   6.527   4.357  0.4728  0.6680  0.0952
 5615TIP3    H138260   6.555   6.481   4.274  0.7922  0.2063  0.2996
 5615TIP3    H238261   6.481   6.535   4.394  0.2686  1.2705 -0.4918
 5616TIP3   OH238262   1.435   1.947  15.461  0.2193 -0.1619 -0.3066
 5616TIP3    H138263   1.413   2.041  15.459 -2.6994 -0.7370 -0.0887
 5616TIP3    H238264   1.371   1.909  15.521  2.3288 -2.1174  0.8165
 5617TIP3   OH238265   6.007   2.798  16.177 -0.4750 -0.4191  0.4637
 5617TIP3    H138266   5.913   2.812  16.189 -0.9905 -0.4431 -2.7555
 5617TIP3    H238267   6.040   2.881  16.144  0.9598 -0.0255  2.6923
 5618TIP3   OH238268   0.616   2.086   0.349  0.6962  0.6974  0.1024
 5618TIP3    H138269   0.623   2.117   0.439 -0.3307  0.3443  0.3247
 5618TIP3    H238270   0.698   2.111   0.308  1.4977  0.1959  1.3438
 5619TIP3   OH238271   3.693   3.081   3.429  0.0915  0.2118  0.1732
 5619TIP3    H138272   3.760   3.026   3.390 -2.0022 -0.3242 -2.9940
 5619TIP3    H238273   3.738   3.125   3.502  3.3663 -1.3041 -0.7330
 5620TIP3   OH238274   3.222   5.883  12.044 -0.1198  0.1144  0.1011
 5620TIP3    H138275   3.142   5.936  12.049 -0.2389 -0.1405  3.2030
 5620TIP3    H238276   3.292   5.946  12.029 -0.7261  0.4843 -1.3641
 5621TIP3   OH238277   5.808   2.869  16.721 -0.3048 -0.3238 -0.0249
 5621TIP3    H138278   5.767   2.798  16.671 -0.5399  0.5870 -1.1732
 5621TIP3    H238279   5.735   2.925  16.748  0.0939  2.1192 -3.3241
 5622TIP3   OH238280   0.794   4.963  12.119 -0.7437 -0.4505  0.0357
 5622TIP3    H138281   0.788   5.055  12.094 -3.8603 -0.9541 -1.6299
 5622TIP3    H238282   0.795   4.964  12.215  3.5459  1.3213  0.1555
 5623TIP3   OH238283   0.778   3.142   3.210 -0.4872  0.1675  0.6273
 5623TIP3    H138284   0.838   3.071   3.233 -0.0106  0.4473  0.2759
 5623TIP3    H238285   0.692   3.111   3.237 -0.9550 -2.2822 -2.9911
 5624TIP3   OH238286   5.197   4.703  11.037  0.3046 -0.2831 -0.3499
 5624TIP3    H138287   5.240   4.776  10.993 -0.0441  0.6969  0.8902
 5624TIP3    H238288   5.266   4.637  11.048  1.4126  1.0584  1.1577
 5625TIP3   OH238289   1.416   1.990  16.068  0.3209 -0.1607  0.1871
 5625TIP3    H138290   1.441   2.063  16.012 -0.7480 -0.6926 -1.0427
 5625TIP3    H238291   1.337   2.020  16.114 -0.2772 -0.6059 -0.5232
 5626TIP3   OH238292   3.889   2.625   5.590  0.6013 -0.1073 -0.7564
 5626TIP3    H138293   3.833   2.561   5.634  2.4613 -1.4277 -0.2441
 5626TIP3    H238294   3.897   2.592   5.501  0.3588  0.2360 -0.9080
 5627TIP3   OH238295   0.425   3.361  15.885 -0.1598  0.3442 -0.2934
 5627TIP3    H138296   0.478   3.376  15.807 -0.5896 -0.6165 -0.7914
 5627TIP3    H238297   0.486   3.325  15.949 -0.3419 -1.6724 -1.1740
 5628TIP3   OH238298   5.700   5.509   1.064 -0.0268  0.1155 -0.2748
 5628TIP3    H138299   5.794   5.489   1.070  0.1172  1.0143  3.4333
 5628TIP3    H238300   5.697   5.604   1.054 -0.5543  0.0342 -0.8959
 5629TIP3   OH238301   5.571   3.485   3.532 -0.4880  0.4424 -0.2755
 5629TIP3    H138302   5.634   3.514   3.598 -0.4351  0.9789 -0.5595
 5629TIP3    H238303   5.485   3.501   3.572 -0.4557  0.2771 -0.1336
 5630TIP3   OH238304   5.545   6.524   2.655  0.3536 -0.9693 -0.3454
 5630TIP3    H138305   5.569   6.600   2.603 -0.3198 -0.5534 -0.0710
 5630TIP3    H238306   5.536   6.453   2.592  2.5602 -1.2349 -0.4294
 5631TIP3   OH238307   4.156   6.033   0.237  0.4922 -0.1809 -0.0525
 5631TIP3    H138308   4.172   6.126   0.252  0.5819 -0.3065  0.6496
 5631TIP3    H238309   4.241   5.999   0.209  0.7923 -0.3045  0.9814
 5632TIP3   OH238310   3.181   0.231   2.072  0.8708  0.0911 -0.1354
 5632TIP3    H138311   3.112   0.279   2.117 -0.1404  0.5753 -2.1205
 5632TIP3    H238312   3.150   0.220   1.983  1.5352 -3.3527 -0.0941
 5633TIP3   OH238313   3.270   3.303   4.143  0.2523 -0.3885 -0.2133
 5633TIP3    H138314   3.341   3.306   4.079  0.4239  0.7852  0.0017
 5633TIP3    H238315   3.266   3.392   4.178 -1.4236 -0.3890 -0.3321
 5634TIP3   OH238316   0.057   1.483  10.825  0.9818 -0.1136  0.4818
 5634TIP3    H138317   0.100   1.487  10.740 -0.1045 -0.7898 -0.1230
 5634TIP3    H238318   0.098   1.408  10.868  1.8446  0.4970  0.7456
 5635TIP3   OH238319   5.423   3.207  12.379  0.3861  0.7255 -0.1156
 5635TIP3    H138320   5.346   3.224  12.324 -0.4575 -1.6064  0.1985
 5635TIP3    H238321   5.388   3.157  12.452  2.1298  0.1552  0.3602
 5636TIP3   OH238322   3.159   5.526  16.020  0.1764  0.1485 -0.7409
 5636TIP3    H138323   3.151   5.581  16.097 -0.4837  0.3708 -0.9663
 5636TIP3    H238324   3.073   5.485  16.009  0.0911  0.5393 -1.6708
 5637TIP3   OH238325   5.619   3.921  14.492 -1.1250  0.5539 -0.0073
 5637TIP3    H138326   5.532   3.952  14.518 -0.7096  1.0019  0.9014
 5637TIP3    H238327   5.602   3.841  14.442 -2.1386  1.6050 -1.3807
 5638TIP3   OH238328   5.781   2.087   2.665  0.5747 -0.0930 -0.0584
 5638TIP3    H138329   5.733   2.157   2.621 -0.2712 -1.1877 -0.9662
 5638TIP3    H238330   5.872   2.115   2.663  0.5255  0.1162 -2.1866
 5639TIP3   OH238331   4.617   2.707  11.394 -0.1943  0.4434 -0.0950
 5639TIP3    H138332   4.704   2.679  11.367 -0.4997 -0.3438 -0.3054
 5639TIP3    H238333   4.564   2.701  11.314 -0.4505  0.8657  0.0390
 5640TIP3   OH238334   1.107   3.269   2.429 -0.0663 -0.4525  0.0594
 5640TIP3    H138335   1.095   3.178   2.405  1.0059 -0.7789  0.7186
 5640TIP3    H238336   1.177   3.300   2.371  0.2813 -0.3388  0.5397
 5641TIP3   OH238337   2.021   2.939  13.773 -0.3374  0.6986  0.0531
 5641TIP3    H138338   1.979   3.012  13.728 -0.9205  0.1469 -0.3194
 5641TIP3    H238339   2.112   2.966  13.783 -0.2913  1.0224 -1.0808
 5642TIP3   OH238340   3.838   2.817  11.350  0.0987 -0.2040 -0.0428
 5642TIP3    H138341   3.841   2.836  11.443  2.2202 -3.9451  0.8682
 5642TIP3    H238342   3.888   2.888  11.309 -1.2868  1.7650  1.5215
 5643TIP3   OH238343   1.798   4.584  14.298 -0.1356  0.5075  0.2152
 5643TIP3    H138344   1.764   4.606  14.211 -1.6603 -3.3912 -0.4008
 5643TIP3    H238345   1.890   4.562  14.283 -0.3597 -0.0365 -0.4531
 5644TIP3   OH238346   2.586   4.588   3.497 -0.2414  0.2325  0.3917
 5644TIP3    H138347   2.490   4.585   3.504 -0.2278 -2.4282  0.4346
 5644TIP3    H238348   2.616   4.603   3.587 -0.6115 -1.7508  0.8831
 5645TIP3   OH238349   4.305   5.782   5.717  0.8593  0.0394  0.4613
 5645TIP3    H138350   4.385   5.828   5.742  0.5075  0.3111  1.1050
 5645TIP3    H238351   4.301   5.707   5.776 -1.4451  2.1850  3.3518
 5646TIP3   OH238352   0.273   1.120   1.151  0.9549 -0.0513  0.7528
 5646TIP3    H138353   0.196   1.063   1.148  0.9333 -0.0010  0.1868
 5646TIP3    H238354   0.344   1.066   1.115  0.8862  0.3478  0.0064
 5647TIP3   OH238355   4.214   1.425   3.346  0.2728  0.5100 -0.1413
 5647TIP3    H138356   4.133   1.375   3.356  0.1519  0.6406 -0.4657
 5647TIP3    H238357   4.279   1.358   3.322  0.0605  0.5324 -0.8171
 5648TIP3   OH238358   3.516   5.727   2.710  0.0494 -0.4868 -0.8820
 5648TIP3    H138359   3.606   5.747   2.736  0.0892  2.1751 -2.6217
 5648TIP3    H238360   3.467   5.722   2.792  1.4978 -0.4617  0.0203
 5649TIP3   OH238361   5.733   2.307  16.327 -0.2449 -0.5578  0.0005
 5649TIP3    H138362   5.779   2.230  16.292 -2.0016 -1.6937  0.0826
 5649TIP3    H238363   5.794   2.379  16.312  1.7308 -2.0275  0.4407
 5650TIP3   OH238364   4.437   3.791  14.596 -0.3795 -0.2676  0.0024
 5650TIP3    H138365   4.447   3.754  14.684 -0.0726  1.6315  0.8109
 5650TIP3    H238366   4.358   3.749  14.562 -0.6816 -0.8122  1.3089
 5651TIP3   OH238367   2.715   5.937  13.855  0.8548 -0.6483 -0.4692
 5651TIP3    H138368   2.740   6.023  13.891 -1.6342 -0.7737  1.8552
 5651TIP3    H238369   2.682   5.888  13.930 -0.8418 -2.4769 -2.2999
 5652TIP3   OH238370   3.096   0.548   4.341 -0.1769 -0.1143  0.5322
 5652TIP3    H138371   3.192   0.541   4.347 -0.1931 -0.2712  0.6328
 5652TIP3    H238372   3.081   0.614   4.273 -0.0086 -1.2253 -0.6174
 5653TIP3   OH238373   1.871   5.823   5.812 -0.7298  0.2059 -0.5276
 5653TIP3    H138374   1.814   5.889   5.851  0.4336  1.7118 -1.2703
 5653TIP3    H238375   1.935   5.802   5.880  0.2101  1.4995 -0.9700
 5654TIP3   OH238376   5.576   1.026   6.687 -0.0328  0.1453 -0.0995
 5654TIP3    H138377   5.618   0.945   6.715 -0.2169  0.1574  0.2164
 5654TIP3    H238378   5.543   1.008   6.599 -1.0951 -0.5068  0.4097
 5655TIP3   OH238379   2.867   0.840   4.289 -0.1115  0.4729  0.2332
 5655TIP3    H138380   2.934   0.908   4.277  0.0278  0.1168 -1.1755
 5655TIP3    H238381   2.807   0.853   4.216  1.0489 -2.1978 -1.3026
 5656TIP3   OH238382   5.101   1.957   2.795 -0.3465 -0.0839  0.3214
 5656TIP3    H138383   5.031   1.891   2.795 -0.8146  0.3947 -0.1802
 5656TIP3    H238384   5.084   2.009   2.873  0.4109 -0.9365  1.0799
 5657TIP3   OH238385   2.321   1.280  16.707  0.1643  0.4728 -0.2893
 5657TIP3    H138386   2.252   1.325  16.756 -0.9425  0.1733 -1.4935
 5657TIP3    H238387   2.402   1.323  16.734 -0.2979 -0.1387  2.2603
 5658TIP3   OH238388   3.649   4.168  15.508 -0.0759 -0.1224 -0.2923
 5658TIP3    H138389   3.602   4.157  15.590 -0.6420 -1.3858 -0.7546
 5658TIP3    H238390   3.738   4.193  15.534  0.0642 -1.6023  0.7613
 5659TIP3   OH238391   3.783   2.992   4.294 -0.4581 -0.3130 -0.7919
 5659TIP3    H138392   3.774   3.073   4.345  0.9537 -0.0700 -0.8832
 5659TIP3    H238393   3.731   3.007   4.215 -0.5978  0.3128 -0.5883
 5660TIP3   OH238394   5.698   5.165  13.838 -0.0834  0.2294  0.1022
 5660TIP3    H138395   5.758   5.138  13.769 -0.3807  0.7052 -0.3473
 5660TIP3    H238396   5.750   5.159  13.918  0.0571 -0.9926 -0.0641
 5661TIP3   OH238397   1.844   6.317   5.718 -0.2261  0.1486  0.1258
 5661TIP3    H138398   1.917   6.270   5.757  0.2309  1.9885  1.6296
 5661TIP3    H238399   1.773   6.308   5.782 -0.0745  1.5784  0.5266
 5662TIP3   OH238400   0.768   1.639  15.744  0.6762 -0.3870  0.1954
 5662TIP3    H138401   0.728   1.635  15.832  3.0563 -0.5552  1.3322
 5662TIP3    H238402   0.704   1.688  15.692 -1.1551 -0.9262  1.8060
 5663TIP3   OH238403   3.693   6.423   4.804  0.0730 -0.0991 -0.5838
 5663TIP3    H138404   3.605   6.398   4.774 -0.2842 -0.0642  0.3865
 5663TIP3    H238405   3.740   6.447   4.724 -1.7037  2.8059 -0.8956
 5664TIP3   OH238406   4.460   4.423  11.338  0.0682  0.1419  0.1020
 5664TIP3    H138407   4.396   4.478  11.384  2.0807  1.3072  1.6803
 5664TIP3    H238408   4.415   4.397  11.258 -1.5916  2.7940  0.0217
 5665TIP3   OH238409   6.155   6.351   0.092 -0.0481 -0.0676  0.5624
 5665TIP3    H138410   6.211   6.341   0.015 -0.8141  1.2347 -0.2020
 5665TIP3    H238411   6.081   6.402   0.061 -0.2594  0.7021  2.2395
 5666TIP3   OH238412   6.339   6.774  15.608  0.0879  0.0764  0.1955
 5666TIP3    H138413   6.418   6.820  15.580  1.0573 -0.8445  1.3265
 5666TIP3    H238414   6.276   6.845  15.626  0.7380  0.8339 -0.4051
 5667TIP3   OH238415   1.757   4.667  14.589  0.1594  0.5262  0.0658
 5667TIP3    H138416   1.765   4.666  14.494 -1.2328 -0.0469 -0.0646
 5667TIP3    H238417   1.663   4.670  14.605  0.3968  1.4680  1.4330
 5668TIP3   OH238418   0.559   1.998  10.569 -0.3241  0.2774  0.0283
 5668TIP3    H138419   0.601   1.928  10.518  0.9209  0.3895  0.8549
 5668TIP3    H238420   0.627   2.026  10.631 -0.2577  3.2484 -1.2407
 5669TIP3   OH238421   0.203   3.963  15.901 -0.1551 -0.1757 -0.4613
 5669TIP3    H138422   0.185   3.935  15.991  0.8484 -0.8480 -0.4606
 5669TIP3    H238423   0.245   3.887  15.860 -1.2467 -0.1279 -1.7155
 5670TIP3   OH238424   4.292   0.247   2.440 -0.3228 -0.5014 -0.1860
 5670TIP3    H138425   4.209   0.279   2.474 -0.4261  0.2851 -1.1220
 5670TIP3    H238426   4.350   0.244   2.516 -1.0335 -0.4882  0.3674
 5671TIP3   OH238427   5.445   1.347  14.724 -0.0735  0.2602  0.2977
 5671TIP3    H138428   5.350   1.352  14.727 -0.3851  0.4493 -4.0161
 5671TIP3    H238429   5.475   1.432  14.756 -1.3759  0.5061  0.9186
 5672TIP3   OH238430   6.487   1.617  15.027 -0.3495 -0.3068  0.0409
 5672TIP3    H138431   6.421   1.581  15.085 -0.5917  0.2330  0.1100
 5672TIP3    H238432   6.448   1.613  14.940 -0.3729 -0.2209  0.0477
 5673TIP3   OH238433   1.642   3.781   1.839  0.2332 -0.3469  0.0493
 5673TIP3    H138434   1.626   3.841   1.911 -0.3180  1.8389 -1.7810
 5673TIP3    H238435   1.737   3.786   1.825  0.3202 -0.6612  0.5291
 5674TIP3   OH238436   0.025   2.322  17.116 -0.1316  0.0417 -0.1818
 5674TIP3    H138437   0.032   2.343  17.209 -2.3549 -0.5612  0.1715
 5674TIP3    H238438   0.063   2.397  17.072  2.1729 -0.2261  1.1911
 5675TIP3   OH238439   0.397   5.151   0.745  0.3790 -0.0113  0.1479
 5675TIP3    H138440   0.361   5.090   0.680 -0.9961 -0.1906  1.0346
 5675TIP3    H238441   0.379   5.238   0.709 -1.6077 -0.0758  0.8432
 5676TIP3   OH238442   3.565   5.931  13.246  0.5887 -0.4579 -0.0253
 5676TIP3    H138443   3.644   5.947  13.195  1.3859 -0.2056  1.2223
 5676TIP3    H238444   3.513   5.872  13.192  2.1051 -1.4818 -0.4441
 5677TIP3   OH238445   6.080   1.471  12.558 -0.0584  0.1442 -0.4300
 5677TIP3    H138446   6.005   1.457  12.501  1.7037 -1.0125 -2.6404
 5677TIP3    H238447   6.113   1.558  12.534  0.2405 -0.0256 -0.6402
 5678TIP3   OH238448   4.045   5.752   4.121 -0.2283  0.1666 -0.0883
 5678TIP3    H138449   4.009   5.690   4.058  0.6223  0.6777 -1.0899
 5678TIP3    H238450   4.003   5.835   4.101 -0.6255  0.1459  0.6146
 5679TIP3   OH238451   4.329   4.748   4.577 -0.3664  0.0385  0.2541
 5679TIP3    H138452   4.337   4.779   4.486 -0.4367  0.1473  0.2852
 5679TIP3    H238453   4.258   4.684   4.573 -0.6390  0.3339  0.3073
 5680TIP3   OH238454   4.044   3.460   0.400 -0.0216  0.0321  0.3862
 5680TIP3    H138455   4.024   3.553   0.410 -0.3921  0.1693 -1.2297
 5680TIP3    H238456   4.060   3.449   0.306  0.7275 -1.4054  0.6455
 5681TIP3   OH238457   4.972   0.825   3.939 -0.3165 -0.2938  0.3797
 5681TIP3    H138458   5.039   0.854   4.001 -1.6959 -1.4613  2.5360
 5681TIP3    H238459   4.911   0.899   3.933  0.2595  0.1428 -0.3047
 5682TIP3   OH238460   0.906   2.258  13.915 -0.4438 -0.5005  0.9310
 5682TIP3    H138461   0.913   2.168  13.947  1.4192 -0.1592  1.6030
 5682TIP3    H238462   0.850   2.252  13.838 -2.2415 -1.8729  2.2702
 5683TIP3   OH238463   0.833   3.658   0.699  0.7861 -0.0835 -0.8934
 5683TIP3    H138464   0.864   3.632   0.612  3.4909  0.8584 -0.3121
 5683TIP3    H238465   0.897   3.621   0.759 -0.7656 -0.3076  0.7129
 5684TIP3   OH238466   1.371   2.930   5.869  0.1017  0.0240 -0.4769
 5684TIP3    H138467   1.337   2.932   5.779 -0.1415 -2.1280 -0.4830
 5684TIP3    H238468   1.361   2.839   5.896  1.8086  0.2625  1.1167
 5685TIP3   OH238469   0.001   5.377  14.845 -0.0833 -0.7986  0.0242
 5685TIP3    H138470  -0.091   5.376  14.818 -0.1735 -0.7435  0.3289
 5685TIP3    H238471   0.006   5.312  14.915  0.1233 -0.8391 -0.0269
 5686TIP3   OH238472   3.764   1.964   3.576  0.4282 -0.7342 -0.3120
 5686TIP3    H138473   3.679   1.965   3.533  0.8775 -1.6245 -1.2473
 5686TIP3    H238474   3.827   1.946   3.506  1.3898 -0.1573  0.3719
 5687TIP3   OH238475   6.461   4.792  11.589  0.0972  0.6950 -0.1771
 5687TIP3    H138476   6.398   4.844  11.539 -0.0308  1.9927  1.2413
 5687TIP3    H238477   6.453   4.704  11.555 -1.2745  1.1806 -1.1836
 5688TIP3   OH238478   4.995   4.310  16.702 -0.0005  0.0836  0.0146
 5688TIP3    H138479   4.982   4.331  16.610 -1.2187 -0.5061  0.0386
 5688TIP3    H238480   5.062   4.241  16.701  2.9327  2.7141 -0.1399
 5689TIP3   OH238481   6.002   6.392   4.709  0.0161 -0.3592  0.2195
 5689TIP3    H138482   5.941   6.336   4.662 -0.5202  0.6793 -0.3661
 5689TIP3    H238483   6.068   6.332   4.744 -1.4143 -1.5189  1.0174
 5690TIP3   OH238484   3.687   1.100   5.790 -0.7180 -0.5839 -0.0264
 5690TIP3    H138485   3.724   1.173   5.840 -0.9568 -1.1939  1.0958
 5690TIP3    H238486   3.640   1.048   5.856  0.1638 -2.2225 -0.6307
 5691TIP3   OH238487   2.175   1.425   1.579 -0.7920  0.1223 -0.4439
 5691TIP3    H138488   2.256   1.379   1.599 -0.3942  1.5365  1.5391
 5691TIP3    H238489   2.202   1.499   1.524 -0.6839  0.6482  0.2956
 5692TIP3   OH238490   4.024   2.449   3.957  0.2798 -0.4350  0.1221
 5692TIP3    H138491   4.119   2.439   3.959  0.4233 -0.5204 -2.7693
 5692TIP3    H238492   4.007   2.528   4.009  1.7474 -1.0507  1.6427
 5693TIP3   OH238493   4.575   4.201  11.473  0.0380  0.6884 -0.5547
 5693TIP3    H138494   4.533   4.255  11.407 -0.3358  1.1935  0.0805
 5693TIP3    H238495   4.655   4.249  11.497 -0.1721  0.8500 -0.1615
 5694TIP3   OH238496   4.904   0.224   0.262 -0.1854 -0.2652 -0.2654
 5694TIP3    H138497   4.826   0.233   0.207 -2.2268  0.3681  2.5234
 5694TIP3    H238498   4.928   0.132   0.255 -1.2713 -0.5013 -1.0738
 5695TIP3   OH238499   1.027   6.043  12.252 -0.1802  0.2777  0.6308
 5695TIP3    H138500   1.067   6.013  12.333 -0.3266 -2.1481 -0.1242
 5695TIP3    H238501   0.941   6.000  12.249 -0.3851  0.7177 -0.5585
 5696TIP3   OH238502   2.787   0.486   6.560  0.0712 -0.0440 -0.1727
 5696TIP3    H138503   2.759   0.402   6.524  0.3195 -0.4968  0.6531
 5696TIP3    H238504   2.879   0.494   6.535  0.1758 -0.2412  0.1459
 5697TIP3   OH238505   3.211   5.607   3.116  0.0710  0.1616  0.2665
 5697TIP3    H138506   3.300   5.600   3.080 -0.1453  1.1756 -0.5373
 5697TIP3    H238507   3.174   5.520   3.105  0.5776  0.0285 -0.5224
 5698TIP3   OH238508   4.404   5.062  11.992  0.3149  0.3958 -0.5850
 5698TIP3    H138509   4.324   5.068  12.044  1.0882  0.3435  0.6527
 5698TIP3    H238510   4.408   4.971  11.963  1.0676 -0.2238  1.3024
 5699TIP3   OH238511   5.694   2.112  12.998 -0.5016 -0.3142  0.1021
 5699TIP3    H138512   5.637   2.185  12.975 -0.2826  0.1791  1.0800
 5699TIP3    H238513   5.776   2.154  13.025 -0.7543 -0.8519  1.7881
 5700TIP3   OH238514   1.642   3.615   0.305  0.2599  0.1701 -0.6261
 5700TIP3    H138515   1.654   3.647   0.395  0.0195  1.3479 -0.9907
 5700TIP3    H238516   1.712   3.551   0.293 -0.2598 -0.6791  0.6978
 5701TIP3   OH238517   5.066   4.021   5.582 -0.7836 -0.2480  0.4019
 5701TIP3    H138518   5.043   3.979   5.665  0.8553 -0.8465  0.6108
 5701TIP3    H238519   5.144   3.973   5.552 -0.9362  0.3909 -1.1501
 5702TIP3   OH238520   6.426   4.598  15.643  0.1223 -0.1422 -0.0376
 5702TIP3    H138521   6.362   4.538  15.682  0.1266 -1.0478 -1.3580
 5702TIP3    H238522   6.509   4.552  15.650  0.5850  0.8244  1.2289
 5703TIP3   OH238523   5.192   6.158   0.481  0.1545  0.2088  0.9924
 5703TIP3    H138524   5.174   6.072   0.518  0.9610  0.5864  2.3456
 5703TIP3    H238525   5.119   6.213   0.510  0.2569  0.2568  1.1634
 5704TIP3   OH238526   2.026   3.025  11.465  0.0431 -0.2973  0.1160
 5704TIP3    H138527   1.978   3.000  11.544 -0.2907  0.0323  0.0218
 5704TIP3    H238528   2.078   2.948  11.443 -2.7487 -1.8671 -1.5546
 5705TIP3   OH238529   2.467   2.584   0.335  0.5002  0.4441 -0.3373
 5705TIP3    H138530   2.536   2.608   0.397  1.2702  0.4261 -1.1730
 5705TIP3    H238531   2.495   2.500   0.298 -0.6660 -0.2687  0.3238
 5706TIP3   OH238532   3.294   2.627  12.122 -0.7111 -0.6539 -0.0865
 5706TIP3    H138533   3.347   2.590  12.192 -0.6482  0.6726  0.6032
 5706TIP3    H238534   3.275   2.717  12.151 -0.6589 -0.0646 -1.7774
 5707TIP3   OH238535   3.540   4.000  16.397 -0.2316  0.0704  0.2993
 5707TIP3    H138536   3.609   3.957  16.347  0.5793 -0.7725  2.0667
 5707TIP3    H238537   3.468   4.009  16.335  0.3273 -1.9199 -0.7081
 5708TIP3   OH238538   4.322   4.587   4.022 -0.2559 -0.4921  0.1650
 5708TIP3    H138539   4.243   4.601   4.073 -0.6384  0.1232 -0.5777
 5708TIP3    H238540   4.334   4.669   3.973  0.8505 -0.5608  0.2821
 5709TIP3   OH238541   5.503   6.778   4.586  0.1866 -0.6062 -0.0695
 5709TIP3    H138542   5.525   6.756   4.496  0.1435 -0.4552 -0.1175
 5709TIP3    H238543   5.413   6.810   4.582  1.0410  2.0238 -0.4144
 5710TIP3   OH238544   0.596   6.007  13.843 -0.4620  0.7328 -0.0554
 5710TIP3    H138545   0.517   5.969  13.880 -0.4186  2.1942  1.7247
 5710TIP3    H238546   0.565   6.068  13.776 -0.6016 -1.2177 -1.8416
 5711TIP3   OH238547   1.726   0.803  13.112  0.2127  0.1105 -0.4178
 5711TIP3    H138548   1.735   0.831  13.203  1.9827 -2.3088  0.2516
 5711TIP3    H238549   1.748   0.881  13.060  0.3261  1.2075  1.2265
 5712TIP3   OH238550   6.279   0.702   4.284 -0.5333 -0.0722  0.0044
 5712TIP3    H138551   6.197   0.680   4.328  0.3222 -0.2046  1.6021
 5712TIP3    H238552   6.319   0.617   4.265  0.1918 -0.0100  1.1529
 5713TIP3   OH238553   6.299   1.350   4.172 -0.4017 -0.0818 -0.1827
 5713TIP3    H138554   6.291   1.281   4.237  0.4861 -2.4320 -2.3971
 5713TIP3    H238555   6.383   1.392   4.192  0.5175 -1.6713 -0.5314
 5714TIP3   OH238556   4.716   4.452   4.408 -0.1679  0.2686  0.3553
 5714TIP3    H138557   4.749   4.530   4.453 -2.1031  0.4131  1.6654
 5714TIP3    H238558   4.713   4.385   4.476 -0.2009 -0.4273 -0.3262
 5715TIP3   OH238559   5.373   2.432   2.758  0.0428 -0.3070  0.2416
 5715TIP3    H138560   5.370   2.515   2.805 -2.5580 -1.1144  1.6850
 5715TIP3    H238561   5.445   2.384   2.798  1.9714  1.3521 -0.9943
 5716TIP3   OH238562   4.064   5.455  12.818 -0.2982  0.0991 -0.3289
 5716TIP3    H138563   3.997   5.507  12.863 -1.0098 -0.9978 -0.0756
 5716TIP3    H238564   4.110   5.409  12.889  0.2637  0.3056 -0.5533
 5717TIP3   OH238565   4.505   4.840   0.316  0.0222 -0.9357  0.0648
 5717TIP3    H138566   4.438   4.825   0.383 -1.1382 -0.2999 -0.9210
 5717TIP3    H238567   4.511   4.757   0.268 -0.8832 -0.6611 -0.5467
 5718TIP3   OH238568   2.544   5.405  12.659  0.2439  0.1576 -0.5501
 5718TIP3    H138569   2.605   5.401  12.585  0.5284 -1.9464 -0.2634
 5718TIP3    H238570   2.460   5.426  12.619  0.3122 -1.3465 -1.5648
 5719TIP3   OH238571   2.032   3.013   2.310  0.0289 -0.1107 -0.2024
 5719TIP3    H138572   2.126   3.030   2.314  0.0042  0.2180 -1.0122
 5719TIP3    H238573   2.026   2.921   2.284  0.1347  0.2802 -1.7111
 5720TIP3   OH238574   4.305   1.737   2.015  0.0780 -0.0779  0.2431
 5720TIP3    H138575   4.312   1.801   1.944 -0.3004  1.8931  1.8692
 5720TIP3    H238576   4.217   1.700   2.005  0.3415 -0.4451 -0.7879
 5721TIP3   OH238577   2.631   5.546  11.962  0.3249 -0.5734  0.1967
 5721TIP3    H138578   2.699   5.613  11.958 -1.0487  0.8125 -1.1510
 5721TIP3    H238579   2.549   5.593  11.946 -0.7054 -2.5416 -0.7764
 5722TIP3   OH238580   5.457   1.441  15.391  0.1637 -0.2095  0.1095
 5722TIP3    H138581   5.384   1.378  15.392  0.5141 -0.6409 -0.5574
 5722TIP3    H238582   5.512   1.411  15.318  1.8401 -0.8311  1.5752
 5723TIP3   OH238583   0.099   4.356   2.497  0.3887 -0.3396  0.4545
 5723TIP3    H138584   0.030   4.327   2.438 -0.7427 -0.0760  1.5889
 5723TIP3    H238585   0.181   4.340   2.450 -0.3669 -2.0290 -0.3495
 5724TIP3   OH238586   1.962   1.607   0.236  0.3700 -0.1100  0.2056
 5724TIP3    H138587   2.047   1.613   0.193  0.1219 -2.0269 -0.6477
 5724TIP3    H238588   1.978   1.553   0.313 -0.0811 -0.5714 -0.0160
 5725TIP3   OH238589   0.354   3.956  15.451 -0.1991  0.0628  0.4688
 5725TIP3    H138590   0.402   3.933  15.531 -0.4852 -0.4354  0.5009
 5725TIP3    H238591   0.415   4.011  15.401  0.1657 -0.0415  0.7977
 5726TIP3   OH238592   3.376   3.778  12.337  0.2657 -0.1869  0.9960
 5726TIP3    H138593   3.441   3.836  12.298 -0.1305  0.1421  0.8195
 5726TIP3    H238594   3.349   3.721  12.265 -1.3318  1.1857  0.4463
 5727TIP3   OH238595   4.927   5.485   6.381 -0.3553 -0.3633 -0.1805
 5727TIP3    H138596   4.881   5.482   6.465 -0.5541 -0.8044 -0.2969
 5727TIP3    H238597   4.906   5.401   6.340  0.9878 -0.8034 -0.0173
 5728TIP3   OH238598   0.568   1.987  13.321  0.2294  0.3732  0.0458
 5728TIP3    H138599   0.509   1.916  13.296 -0.1995  0.1169  1.6878
 5728TIP3    H238600   0.635   1.945  13.375  1.1573  0.8949 -0.6616
 5729TIP3   OH238601   6.720   6.376   1.522  0.0671 -0.0101 -0.7460
 5729TIP3    H138602   6.740   6.462   1.485 -0.3116  0.3566 -0.1080
 5729TIP3    H238603   6.625   6.373   1.526  0.1017 -0.0083  0.2674
 5730TIP3   OH238604   0.504   0.167  12.522 -0.2997  0.4504 -0.0371
 5730TIP3    H138605   0.542   0.132  12.442  0.4265 -0.1119  0.5379
 5730TIP3    H238606   0.502   0.092  12.582  0.7115  1.2235  1.0143
 5731TIP3   OH238607   4.125   1.458  16.971  0.3572  0.0811 -0.1843
 5731TIP3    H138608   4.186   1.512  16.922  0.9255  0.6867  1.1493
 5731TIP3    H238609   4.180   1.400  17.023 -0.2388 -0.8988 -0.6218
 5732TIP3   OH238610   0.193   3.404  11.889  0.3672  0.2803 -0.3447
 5732TIP3    H138611   0.244   3.464  11.834  0.6995 -0.4946 -0.9004
 5732TIP3    H238612   0.128   3.460  11.931  0.8315  1.0728 -0.6515
 5733TIP3   OH238613   3.145   6.543  12.111  0.3944  0.0231  0.7938
 5733TIP3    H138614   3.220   6.537  12.052  0.9897  1.1338  1.4012
 5733TIP3    H238615   3.077   6.584  12.058 -0.2493 -2.1644 -0.1534
 5734TIP3   OH238616   0.835   4.483   5.456 -0.0338  0.5617 -0.7130
 5734TIP3    H138617   0.852   4.414   5.392 -1.8347 -0.9022  0.2749
 5734TIP3    H238618   0.741   4.501   5.447 -0.2512  0.6073  1.1948
 5735TIP3   OH238619   5.644   3.908   1.208  0.2708 -0.0133  0.0836
 5735TIP3    H138620   5.654   3.861   1.291 -0.6420 -1.3631 -0.5249
 5735TIP3    H238621   5.602   3.844   1.149  2.4231  0.2915 -1.9390
 5736TIP3   OH238622   1.364   0.367  17.052  0.5167 -0.2074 -0.4365
 5736TIP3    H138623   1.289   0.394  17.106 -0.5754 -0.9820 -1.5115
 5736TIP3    H238624   1.385   0.444  17.000 -0.0368 -0.2045 -0.6656
 5737TIP3   OH238625   2.958   4.164   4.719  0.0000  0.0398 -0.1557
 5737TIP3    H138626   2.993   4.084   4.758 -3.7467 -1.4701  0.5465
 5737TIP3    H238627   2.943   4.222   4.793  3.2802  1.8686 -0.7151
 5738TIP3   OH238628   6.771   1.245   3.474  0.4025 -0.1535 -0.3513
 5738TIP3    H138629   6.809   1.158   3.489 -1.4943 -1.0080 -0.1998
 5738TIP3    H238630   6.847   1.302   3.462  1.7248 -1.7007  0.1812
 5739TIP3   OH238631   6.755   2.066   3.852 -0.4881 -0.5548  0.0236
 5739TIP3    H138632   6.712   2.061   3.938 -0.7294 -1.2214 -0.1326
 5739TIP3    H238633   6.775   2.159   3.841 -0.5211 -0.4482  0.7706
 5740TIP3   OH238634   0.079   6.366  13.710 -0.2450  0.3614  0.3752
 5740TIP3    H138635   0.009   6.349  13.772  0.7208 -2.9916  0.7430
 5740TIP3    H238636   0.159   6.341  13.756  0.8072  0.6094 -1.2253
 5741TIP3   OH238637   4.490   5.712   0.500 -0.4448 -0.2715 -0.0457
 5741TIP3    H138638   4.534   5.755   0.427  1.0135  1.0049  1.5172
 5741TIP3    H238639   4.491   5.619   0.477 -0.3049  0.1317 -1.7650
 5742TIP3   OH238640   3.351   1.783  12.282  1.0717  0.4150 -0.2654
 5742TIP3    H138641   3.377   1.872  12.308 -0.0217  1.0210 -1.1654
 5742TIP3    H238642   3.330   1.790  12.189  2.0366 -1.0527 -0.6254
 5743TIP3   OH238643   4.518   4.739   3.734 -0.5790  0.1031  0.5932
 5743TIP3    H138644   4.550   4.652   3.757 -0.2905  0.2234  0.6544
 5743TIP3    H238645   4.589   4.778   3.683 -1.8197 -0.7806 -1.9862
 5744TIP3   OH238646   2.587   4.952   5.809  0.1815 -0.2091  0.0228
 5744TIP3    H138647   2.661   4.985   5.758 -0.3026 -3.1552 -2.9840
 5744TIP3    H238648   2.520   5.019   5.800  1.2380  0.8381 -0.3708
 5745TIP3   OH238649   4.808   6.571  14.923 -0.1165 -0.9735  0.3728
 5745TIP3    H138650   4.759   6.489  14.915  2.0819 -2.3498  0.2052
 5745TIP3    H238651   4.880   6.562  14.861  0.4144  0.9137  0.6699
 5746TIP3   OH238652   3.825   1.773   1.230 -0.3998 -0.3279 -0.5955
 5746TIP3    H138653   3.797   1.745   1.317  1.5585  0.7850  0.4546
 5746TIP3    H238654   3.820   1.868   1.232  1.4304 -0.1727 -1.0010
 5747TIP3   OH238655   2.922   2.195  11.340  0.0964  0.1608  0.1497
 5747TIP3    H138656   2.902   2.192  11.246 -0.2607  1.2616  0.1800
 5747TIP3    H238657   2.879   2.117  11.376  0.0822 -0.1705 -0.5712
 5748TIP3   OH238658   2.270   2.671   2.156 -0.8145 -0.2305 -0.5484
 5748TIP3    H138659   2.237   2.582   2.147  0.3269 -0.6849 -0.4268
 5748TIP3    H238660   2.231   2.703   2.238 -1.6395 -0.4209 -0.8590
 5749TIP3   OH238661   2.303   6.604  17.173  0.3825 -0.4143  0.4010
 5749TIP3    H138662   2.214   6.636  17.191  0.3160 -0.8387  0.8522
 5749TIP3    H238663   2.296   6.560  17.089  0.5115  0.8794 -0.3154
 5750TIP3   OH238664   6.022   5.648  13.861  0.3997  0.2688 -0.3416
 5750TIP3    H138665   5.976   5.623  13.782  1.0876 -1.1252 -0.3340
 5750TIP3    H238666   6.090   5.581  13.872 -0.0873  0.0279  1.7777
 5751TIP3   OH238667   5.504   1.394   2.987  0.4320 -0.6004 -0.1157
 5751TIP3    H138668   5.519   1.440   3.069  1.0936 -0.2758 -0.4129
 5751TIP3    H238669   5.413   1.414   2.964  0.2048 -0.7889  0.5871
 5752TIP3   OH238670   0.014   4.988   0.133 -0.1095 -0.1223  0.2147
 5752TIP3    H138671  -0.080   4.966   0.131 -0.1973 -0.0178  1.8960
 5752TIP3    H238672   0.016   5.084   0.135  0.0701 -0.1018 -0.7894
 5753TIP3   OH238673   2.643   3.356  15.511 -0.0974  0.4336 -0.5204
 5753TIP3    H138674   2.642   3.325  15.601  0.3156 -1.5939 -1.1723
 5753TIP3    H238675   2.562   3.323  15.473  0.3465  0.1401 -1.2384
 5754TIP3   OH238676   3.846   2.204   2.571 -0.2026 -0.1967 -0.3587
 5754TIP3    H138677   3.775   2.190   2.634 -0.0477  3.5469  0.9104
 5754TIP3    H238678   3.808   2.263   2.506  1.6057  1.8634  0.3260
 5755TIP3   OH238679   2.862   0.125  14.649 -0.9557  0.0171  0.0163
 5755TIP3    H138680   2.830   0.128  14.739 -1.4124  0.4882 -0.1571
 5755TIP3    H238681   2.885   0.033  14.635  0.6509  0.2096  1.1337
 5756TIP3   OH238682   1.253   4.764   1.840 -0.2301 -0.0805  0.4011
 5756TIP3    H138683   1.214   4.798   1.921  0.0023 -0.0162  0.4864
 5756TIP3    H238684   1.336   4.726   1.868  0.0940  0.4079  0.1138
 5757TIP3   OH238685   0.358   6.643   6.148 -0.0779  0.2445  0.2568
 5757TIP3    H138686   0.320   6.570   6.098  1.2853 -0.7681  0.6462
 5757TIP3    H238687   0.282   6.688   6.186 -0.9720 -0.7170 -0.3360
 5758TIP3   OH238688   6.688   3.782  15.763 -0.3119  0.1308  0.1542
 5758TIP3    H138689   6.756   3.729  15.722 -0.2025  0.9037 -0.6801
 5758TIP3    H238690   6.611   3.768  15.709  0.0390  1.7766 -0.8280
 5759TIP3   OH238691   1.910   2.891  14.055  0.2804 -0.4711 -0.6405
 5759TIP3    H138692   1.911   2.798  14.031  0.4038 -0.9402  1.0553
 5759TIP3    H238693   2.000   2.909  14.084  0.3749  0.3149 -1.3770
 5760TIP3   OH238694   6.419   2.829   1.265 -0.1889 -0.4216  0.2281
 5760TIP3    H138695   6.444   2.920   1.281 -2.3575  0.3661 -0.4711
 5760TIP3    H238696   6.402   2.825   1.171 -0.1160 -1.5451  0.2533
 5761TIP3   OH238697   1.616   4.379  12.928 -0.7135  0.2058 -0.3347
 5761TIP3    H138698   1.581   4.443  12.865 -1.4757 -1.2006 -1.4015
 5761TIP3    H238699   1.707   4.405  12.940 -0.7932  1.0372 -1.3342
 5762TIP3   OH238700   0.121   3.099   1.388  0.6005  1.1328 -0.1971
 5762TIP3    H138701   0.135   3.027   1.449 -0.6215  0.4040 -0.7481
 5762TIP3    H238702   0.158   3.176   1.433 -0.9190  0.7775  1.8189
 5763TIP3   OH238703   1.670   3.716   5.868  0.4730  0.1461  0.0575
 5763TIP3    H138704   1.710   3.762   5.794 -0.2109  1.5387  0.5241
 5763TIP3    H238705   1.677   3.777   5.941 -0.3018 -0.5724  0.7508
 5764TIP3   OH238706   0.619   3.537   4.856  0.1471 -1.1741 -0.2813
 5764TIP3    H138707   0.529   3.561   4.831  0.8910 -0.4573 -2.5294
 5764TIP3    H238708   0.633   3.581   4.940 -1.2336 -0.3835 -0.4258
 5765TIP3   OH238709   4.519   0.451  14.763  0.8101  0.2194 -0.1642
 5765TIP3    H138710   4.503   0.357  14.760 -2.8099  0.6245  1.4708
 5765TIP3    H238711   4.591   0.461  14.825  0.2500 -1.4322  0.8195
 5766TIP3   OH238712   0.365   0.253   4.329  0.1039 -0.6184  0.0449
 5766TIP3    H138713   0.316   0.305   4.393 -1.8226 -1.4811 -0.6612
 5766TIP3    H238714   0.358   0.302   4.247 -0.5251 -1.2491 -0.2976
 5767TIP3   OH238715   3.068   0.334   5.235  0.5489  0.1196  0.0564
 5767TIP3    H138716   3.104   0.255   5.194  1.7179  0.5882  0.1417
 5767TIP3    H238717   3.072   0.317   5.329  1.2802  0.4738  0.0933
 5768TIP3   OH238718   3.762   4.518  15.036  0.4818 -0.1997 -0.3494
 5768TIP3    H138719   3.672   4.529  15.004  0.8520  0.2132 -1.2600
 5768TIP3    H238720   3.799   4.606  15.036  0.8857 -0.3637  0.0496
 5769TIP3   OH238721   3.944   3.908   5.923 -0.1572  0.3466 -0.1615
 5769TIP3    H138722   4.019   3.852   5.902 -1.7564 -1.5872 -1.0043
 5769TIP3    H238723   3.983   3.986   5.962  2.3372 -0.2281 -1.3053
 5770TIP3   OH238724   1.365   5.583   5.031 -1.1495 -0.0148  0.2395
 5770TIP3    H138725   1.429   5.648   5.061 -1.0954 -1.0425  2.5894
 5770TIP3    H238726   1.287   5.635   5.008  0.4529  1.2736 -2.8775
 5771TIP3   OH238727   1.909   2.715  13.007  0.5038 -0.4558  0.4199
 5771TIP3    H138728   1.943   2.739  12.921  2.0128 -2.3767  0.4125
 5771TIP3    H238729   1.987   2.698  13.060 -0.3796  1.0471  2.3159
 5772TIP3   OH238730   3.416   5.578   5.059 -0.5057  0.7727 -0.4669
 5772TIP3    H138731   3.323   5.560   5.073 -0.4550 -0.0972 -1.1866
 5772TIP3    H238732   3.418   5.639   4.986 -0.4585 -0.7611 -1.8075
 5773TIP3   OH238733   5.183   0.446  12.128 -0.5611  0.1007 -0.0201
 5773TIP3    H138734   5.154   0.520  12.181  1.2168  1.9044 -1.4533
 5773TIP3    H238735   5.259   0.478  12.081 -1.1374 -1.9000 -2.5330
 5774TIP3   OH238736   1.187   2.667   4.179  0.3239  0.0374  0.0860
 5774TIP3    H138737   1.169   2.598   4.115 -0.3621  1.1329 -0.9486
 5774TIP3    H238738   1.261   2.634   4.231 -0.9256 -2.0820  0.6026
 5775TIP3   OH238739   0.840   4.099   1.654 -0.1699 -0.6384  0.4113
 5775TIP3    H138740   0.907   4.073   1.591  0.2420 -1.0986  1.0391
 5775TIP3    H238741   0.877   4.078   1.740 -0.8010 -0.1829  0.8050
 5776TIP3   OH238742   4.325   1.922   1.782 -0.4879 -0.1087  0.7098
 5776TIP3    H138743   4.271   1.986   1.828  0.9550  1.0308  0.8855
 5776TIP3    H238744   4.390   1.974   1.734 -0.1003 -1.3891 -0.2370
 5777TIP3   OH238745   0.379   3.649  14.964  0.5424 -0.0085  0.4512
 5777TIP3    H138746   0.306   3.711  14.968  0.8324  0.5290 -1.5156
 5777TIP3    H238747   0.386   3.615  15.053 -2.3943 -0.4189  0.6217
 5778TIP3   OH238748   6.564   1.699  12.078 -0.7324  0.2863  0.2071
 5778TIP3    H138749   6.654   1.728  12.065 -0.5878 -0.2963 -0.1533
 5778TIP3    H238750   6.510   1.775  12.056 -0.3419  0.5386  0.1120
 5779TIP3   OH238751   1.710   0.624   1.447 -0.5856  0.1044 -0.7628
 5779TIP3    H138752   1.620   0.638   1.418 -1.3891 -0.7349  1.1772
 5779TIP3    H238753   1.737   0.708   1.483 -1.1108 -0.0155 -0.0730
 5780TIP3   OH238754   1.792   2.398  12.972  0.2561  0.1223  0.0354
 5780TIP3    H138755   1.788   2.316  12.922  3.9620  0.7688 -1.6654
 5780TIP3    H238756   1.780   2.466  12.906 -2.1215  1.0621  1.3301
 5781TIP3   OH238757   3.200   2.611   5.826 -0.1395  0.0181  0.6342
 5781TIP3    H138758   3.169   2.690   5.869  1.6686 -0.3067  2.7459
 5781TIP3    H238759   3.235   2.557   5.898  2.3813 -0.8929 -1.1348
 5782TIP3   OH238760   3.356   5.901   3.805 -0.2601 -0.1330  0.3471
 5782TIP3    H138761   3.423   5.935   3.865  1.5258 -0.3004 -1.4568
 5782TIP3    H238762   3.338   5.974   3.746  0.3512 -0.9311 -0.8467
 5783TIP3   OH238763   1.751   2.252   1.211  0.1951 -0.1574  0.0992
 5783TIP3    H138764   1.757   2.249   1.307 -1.1329 -0.3794  0.1944
 5783TIP3    H238765   1.769   2.162   1.183  1.3422  0.0628  0.0653
 5784TIP3   OH238766   0.383   2.368   5.693  0.6769  0.2683 -0.1628
 5784TIP3    H138767   0.326   2.333   5.624 -0.6047  2.2888 -0.2380
 5784TIP3    H238768   0.324   2.383   5.767  1.1075  2.2666 -0.1783
 5785TIP3   OH238769   0.962   0.544   0.487  0.0424 -0.2299  0.3525
 5785TIP3    H138770   0.899   0.571   0.421  2.4306  2.0701 -1.2335
 5785TIP3    H238771   0.911   0.536   0.568 -2.5630 -0.6462 -1.2247
 5786TIP3   OH238772   2.313   2.467   5.965  0.4754  0.1708  0.3805
 5786TIP3    H138773   2.224   2.432   5.959  0.0633  0.5056  3.2083
 5786TIP3    H238774   2.303   2.554   6.003  1.8630  1.4892 -2.0258
 5787TIP3   OH238775   3.561   1.582  14.460  0.6047 -0.6325  0.4870
 5787TIP3    H138776   3.477   1.626  14.446  0.8402 -0.1421  0.5790
 5787TIP3    H238777   3.554   1.545  14.548 -0.1782 -2.1322 -0.1678
 5788TIP3   OH238778   3.938   3.368  17.066 -0.4515 -0.1829 -0.4258
 5788TIP3    H138779   3.934   3.274  17.083  0.6964 -0.5270 -1.8475
 5788TIP3    H238780   4.016   3.379  17.012 -0.8499  1.5265 -0.7073
 5789TIP3   OH238781   1.407   4.015   3.426  0.3005 -0.0828  0.5026
 5789TIP3    H138782   1.413   4.039   3.518  1.7681  0.4370  0.2958
 5789TIP3    H238783   1.373   4.094   3.383  0.5848  0.0253  0.4718
 5790TIP3   OH238784   5.110   6.781  11.736  0.2984 -0.0212  0.5723
 5790TIP3    H138785   5.187   6.778  11.679  0.6187  0.2142  0.9800
 5790TIP3    H238786   5.117   6.702  11.790 -1.0554 -1.2779 -1.0216
 5791TIP3   OH238787   3.818   1.624   0.845 -0.2935  0.0515 -0.2868
 5791TIP3    H138788   3.904   1.615   0.886 -1.0007 -0.5876  1.0997
 5791TIP3    H238789   3.827   1.700   0.788 -0.1657  3.1847  3.4982
 5792TIP3   OH238790   2.929   5.286  15.580  0.3763  0.3329  1.9983
 5792TIP3    H138791   2.971   5.201  15.590  0.5984 -0.1551 -1.5752
 5792TIP3    H238792   2.999   5.343  15.548  0.0667  1.7420  3.6762
 5793TIP3   OH238793   6.032   0.736   5.580 -0.1371  0.3456 -0.8583
 5793TIP3    H138794   6.010   0.798   5.649  2.7184  0.3120  0.2069
 5793TIP3    H238795   5.958   0.675   5.578 -0.7928  0.9581  1.4570
 5794TIP3   OH238796   3.806   6.160   0.555  1.1077 -0.5868 -0.2043
 5794TIP3    H138797   3.791   6.232   0.616 -1.4462 -1.4621  0.3525
 5794TIP3    H238798   3.875   6.108   0.596  2.4559  1.0826 -0.2532
 5795TIP3   OH238799   0.312   5.554  11.264 -0.4863 -0.2573  0.1150
 5795TIP3    H138800   0.218   5.557  11.282 -0.3820  0.4528  0.5665
 5795TIP3    H238801   0.318   5.562  11.168 -0.8876 -0.3328  0.0822
 5796TIP3   OH238802   5.196   4.124  12.828  0.5212  0.1978 -0.2185
 5796TIP3    H138803   5.148   4.204  12.809  0.9459  0.9259  1.5757
 5796TIP3    H238804   5.286   4.143  12.802  0.4034 -0.1359 -0.8926
 5797TIP3   OH238805   1.372   6.393  11.325  0.1207  0.0868  0.3559
 5797TIP3    H138806   1.441   6.338  11.291 -0.7888 -1.2210  0.5539
 5797TIP3    H238807   1.391   6.481  11.291  1.1775 -0.4892 -0.5641
 5798TIP3   OH238808   4.257   1.264   4.194  0.1995  0.5318 -0.2889
 5798TIP3    H138809   4.188   1.259   4.128  0.0290  0.0468 -0.0730
 5798TIP3    H238810   4.277   1.358   4.200  0.3373  0.5701 -1.1454
 5799TIP3   OH238811   2.335   6.434  16.954  0.2961  0.2572 -0.1379
 5799TIP3    H138812   2.338   6.353  17.004  1.0583  0.2141 -0.2493
 5799TIP3    H238813   2.241   6.449  16.940  0.1496 -0.7617 -0.3778
 5800TIP3   OH238814   0.812   4.220  14.582  0.5623 -0.3407 -0.2571
 5800TIP3    H138815   0.892   4.252  14.540  0.3589  2.3999  1.1938
 5800TIP3    H238816   0.836   4.213  14.675 -1.1747  1.9233  0.4441
 5801TIP3   OH238817   0.124   4.019  16.186  0.6991  0.2663 -0.3974
 5801TIP3    H138818   0.060   4.058  16.246  0.0277 -0.2263 -0.7815
 5801TIP3    H238819   0.096   3.928  16.176  1.0815  0.2142 -1.0913
 5802TIP3   OH238820   6.653   4.500   5.639 -0.1021  0.6264 -0.0948
 5802TIP3    H138821   6.621   4.540   5.720 -1.2068  0.3486 -0.3890
 5802TIP3    H238822   6.722   4.440   5.667  0.3505  1.4073  0.5158
 5803TIP3   OH238823   3.100   3.303  16.871 -1.0066 -0.0489 -0.2214
 5803TIP3    H138824   3.123   3.396  16.874  2.0675 -0.7034  0.1878
 5803TIP3    H238825   3.070   3.288  16.782 -1.1921  1.2465 -0.3978
 5804TIP3   OH238826   5.719   6.592  15.726  0.0718 -0.8615  0.0150
 5804TIP3    H138827   5.731   6.682  15.694 -0.6886 -0.6374  0.3314
 5804TIP3    H238828   5.710   6.540  15.647 -2.0880 -0.2685 -0.1980
 5805TIP3   OH238829   5.729   4.540   3.919 -0.5701 -0.2265 -0.1557
 5805TIP3    H138830   5.671   4.479   3.964 -1.7242  0.4370 -0.7161
 5805TIP3    H238831   5.755   4.494   3.839  1.5859 -1.4582  1.1702
 5806TIP3   OH238832   3.493   0.683  11.754  0.2819  0.8355  0.4306
 5806TIP3    H138833   3.490   0.593  11.722 -1.2395  1.6992 -2.0957
 5806TIP3    H238834   3.405   0.700  11.788  0.7782  1.1736  1.6193
 5807TIP3   OH238835   2.089   5.961   3.502 -0.6165 -0.4083  0.2913
 5807TIP3    H138836   2.120   5.932   3.587 -0.8821  0.9811  0.9023
 5807TIP3    H238837   2.042   5.886   3.466  1.3876 -1.7738  0.3543
 5808TIP3   OH238838   4.033   0.368   3.057 -0.0472 -0.5082 -0.0430
 5808TIP3    H138839   4.091   0.358   3.133  1.3403 -1.4078 -1.1668
 5808TIP3    H238840   4.092   0.365   2.982 -1.3474  0.6815 -1.1709
 5809TIP3   OH238841   4.053   0.544   5.128 -0.1052  0.3648 -0.3601
 5809TIP3    H138842   3.999   0.482   5.078  1.7045 -0.2265 -1.6842
 5809TIP3    H238843   4.068   0.499   5.212 -0.9654  0.1705 -0.3038
 5810TIP3   OH238844   0.958   1.644   3.910  0.1123  0.5411 -0.4008
 5810TIP3    H138845   1.038   1.644   3.962 -0.4196 -0.1080  0.4478
 5810TIP3    H238846   0.896   1.695   3.962 -0.6197 -0.6505 -0.0605
 5811TIP3   OH238847   1.875   3.188  15.033 -0.3230 -0.3013  0.1266
 5811TIP3    H138848   1.916   3.158  15.114  0.1089 -0.2484 -0.0645
 5811TIP3    H238849   1.873   3.283  15.041  0.1099 -0.2703 -0.1031
 5812TIP3   OH238850   5.460   1.761  12.814 -0.4437 -0.4279  0.1766
 5812TIP3    H138851   5.436   1.850  12.788  0.6748  0.2585  1.3237
 5812TIP3    H238852   5.544   1.746  12.771  0.2153 -0.2281  1.3373
 5813TIP3   OH238853   1.168   5.172  11.248  0.6927 -0.7751  0.3897
 5813TIP3    H138854   1.159   5.095  11.192  2.0714 -1.4135  1.0211
 5813TIP3    H238855   1.192   5.242  11.187  1.4010 -1.2864  0.0721
 5814TIP3   OH238856   6.069   3.349  13.531  0.1010  0.4731  0.4254
 5814TIP3    H138857   6.096   3.392  13.451  0.5134 -0.5022  0.0230
 5814TIP3    H238858   6.143   3.293  13.555 -1.4012 -2.1134 -0.5904
 5815TIP3   OH238859   3.923   1.149   4.573 -0.2713  0.1625  0.1976
 5815TIP3    H138860   3.999   1.195   4.537  0.1880 -0.0409  0.8927
 5815TIP3    H238861   3.853   1.165   4.509  0.6979 -0.7578 -1.1389
 5816TIP3   OH238862   5.753   4.114   0.731 -0.7969  0.1612 -0.2657
 5816TIP3    H138863   5.825   4.052   0.718  0.4402  1.3298  0.6772
 5816TIP3    H238864   5.717   4.092   0.817 -1.0134  0.1089 -0.3702
 5817TIP3   OH238865   6.146   0.966   5.823  0.1943 -0.2817 -0.0349
 5817TIP3    H138866   6.219   0.929   5.873  0.7288  1.6885  0.7499
 5817TIP3    H238867   6.182   1.046   5.784 -1.4145  0.4926  0.0044
 5818TIP3   OH238868   3.145   4.705  16.700 -0.1973  0.2062  0.6449
 5818TIP3    H138869   3.056   4.718  16.668 -0.4540 -0.1183  1.2151
 5818TIP3    H238870   3.144   4.617  16.738  0.3233  0.2628  0.8015
 5819TIP3   OH238871   4.767   4.489  15.451  0.2055  0.8984  0.1730
 5819TIP3    H138872   4.766   4.544  15.529  0.8075 -2.2699  2.6271
 5819TIP3    H238873   4.859   4.484  15.426  0.2571  0.4425  0.4365
 5820TIP3   OH238874   5.839   0.556  11.070 -0.7076  0.1008  0.2558
 5820TIP3    H138875   5.805   0.545  10.981 -0.1352 -1.5864  0.2072
 5820TIP3    H238876   5.870   0.646  11.073 -1.8644  0.5786 -0.8431
 5821TIP3   OH238877   5.872   6.715  12.047  0.6055  0.2606  0.1780
 5821TIP3    H138878   5.868   6.620  12.034 -0.7002  0.2663  0.3980
 5821TIP3    H238879   5.808   6.732  12.117  0.7648  1.3131  0.0794
 5822TIP3   OH238880   5.686   3.324   0.253  0.4826 -0.2515  0.2291
 5822TIP3    H138881   5.722   3.410   0.277 -0.3973  0.3392 -0.4726
 5822TIP3    H238882   5.632   3.300   0.329 -0.5511  0.5954 -0.1930
 5823TIP3   OH238883   3.342   6.668  16.280 -0.2446  0.3257  0.2480
 5823TIP3    H138884   3.250   6.691  16.271  0.3444  2.7259 -0.2910
 5823TIP3    H238885   3.368   6.705  16.365  0.1961 -0.5178  0.4951
 5824TIP3   OH238886   1.805   3.734  16.907  0.1526  0.2978  0.3314
 5824TIP3    H138887   1.873   3.686  16.954 -0.4988 -1.2224 -0.1987
 5824TIP3    H238888   1.823   3.715  16.815 -1.6830 -1.2099  0.2196
 5825TIP3   OH238889   1.153   3.358  12.702  0.7234  0.3748 -0.0630
 5825TIP3    H138890   1.076   3.346  12.647  1.5216 -0.4888 -1.0186
 5825TIP3    H238891   1.147   3.288  12.767 -1.1493  2.4159  2.1562
 5826TIP3   OH238892   3.149   5.054   4.608  0.0229  0.1300  0.6530
 5826TIP3    H138893   3.207   4.978   4.613 -2.6162 -2.1180  0.0605
 5826TIP3    H238894   3.112   5.062   4.696  0.7833  1.1942  0.8880
 5827TIP3   OH238895   0.138   3.607  13.476  0.0092  0.1585  0.0477
 5827TIP3    H138896   0.145   3.513  13.457 -0.9794  0.2814 -1.0411
 5827TIP3    H238897   0.194   3.648  13.410  0.3770  0.3472  0.4737
 5828TIP3   OH238898   1.077   3.996   0.843 -0.2166  0.1059 -0.1639
 5828TIP3    H138899   1.083   4.052   0.920  0.2425  0.0733 -0.1739
 5828TIP3    H238900   1.145   4.030   0.784  1.0999 -1.3921  0.4241
 5829TIP3   OH238901   4.818   1.984  17.067  0.2714 -0.4173 -0.1058
 5829TIP3    H138902   4.888   2.028  17.019  1.4830  0.9647  2.6984
 5829TIP3    H238903   4.861   1.909  17.108  0.2392  0.5195  1.7501
 5830TIP3   OH238904   5.758   2.674  13.430  0.6018  0.4557  0.1450
 5830TIP3    H138905   5.806   2.633  13.358 -1.0036 -2.3466  0.5480
 5830TIP3    H238906   5.666   2.668  13.404  0.1638  1.7948  1.2855
 5831TIP3   OH238907   0.822   5.367   4.124 -0.5454  0.4252  0.2396
 5831TIP3    H138908   0.781   5.358   4.210  0.0828 -0.0461  0.5023
 5831TIP3    H238909   0.888   5.298   4.122 -2.1939 -1.2069 -1.6059
 5832TIP3   OH238910   0.981   6.170   2.454  0.6581  0.2098  0.8300
 5832TIP3    H138911   1.057   6.124   2.491  0.3941 -1.3361 -0.4463
 5832TIP3    H238912   1.018   6.250   2.417  1.6204 -0.3457  0.5417
 5833TIP3   OH238913   4.633   5.781   3.082 -0.2084 -0.4364  0.5900
 5833TIP3    H138914   4.685   5.836   3.023 -0.8717  0.2191  0.5990
 5833TIP3    H238915   4.568   5.739   3.025 -2.6856  2.3458  1.1289
 5834TIP3   OH238916   5.025   2.856   0.700  0.3790  0.1294  0.2862
 5834TIP3    H138917   4.947   2.816   0.661  0.1568  1.7241 -1.0292
 5834TIP3    H238918   5.017   2.838   0.794 -0.9879 -0.6884  0.0439
 5835TIP3   OH238919   5.220   4.762  15.446 -0.2179 -0.2534 -0.1457
 5835TIP3    H138920   5.149   4.819  15.478  0.2668  0.5211 -0.4206
 5835TIP3    H238921   5.296   4.820  15.439 -0.1145 -0.5324 -1.9865
 5836TIP3   OH238922   4.039   6.186   2.128  0.2108  1.0138  0.1748
 5836TIP3    H138923   4.090   6.264   2.106 -0.5849  1.3960 -0.3575
 5836TIP3    H238924   4.082   6.115   2.081  0.2902  1.3204 -0.2161
 5837TIP3   OH238925   3.492   2.556   0.288  0.0422  0.1752 -0.2828
 5837TIP3    H138926   3.509   2.557   0.382 -0.3206  2.0957 -0.2019
 5837TIP3    H238927   3.426   2.487   0.277  2.1653 -2.1254  0.4019
 5838TIP3   OH238928   0.938   5.726  14.128 -0.1967 -0.0919 -0.7482
 5838TIP3    H138929   0.875   5.745  14.196 -0.1971  2.2072 -1.3037
 5838TIP3    H238930   1.011   5.684  14.173 -0.8261  0.0250  0.4026
 5839TIP3   OH238931   3.487   4.449   2.659 -0.0006  0.4262 -0.5748
 5839TIP3    H138932   3.510   4.408   2.742  0.3433 -1.3286 -1.4925
 5839TIP3    H238933   3.569   4.450   2.609  0.2827  3.3166 -0.2091
 5840TIP3   OH238934   3.155   3.087  13.400  0.0924  0.1511 -0.3649
 5840TIP3    H138935   3.160   3.134  13.317  0.5465 -0.1629 -0.5221
 5840TIP3    H238936   3.192   3.148  13.464  2.6746 -0.7153 -0.9005
 5841TIP3   OH238937   2.441   5.995  16.902  0.2423 -0.6970  0.4056
 5841TIP3    H138938   2.372   5.940  16.866 -1.2128  2.7058 -2.6289
 5841TIP3    H238939   2.522   5.956  16.869 -0.6310 -1.5899 -0.7780
 5842TIP3   OH238940   2.934   4.360  11.454 -0.0653 -0.3968 -0.3179
 5842TIP3    H138941   3.014   4.353  11.506 -0.7703 -0.4585  0.7991
 5842TIP3    H238942   2.956   4.421  11.384  1.0101 -0.5565 -0.1409
 5843TIP3   OH238943   5.398   4.410  13.792 -0.5381  0.5409 -0.3646
 5843TIP3    H138944   5.450   4.331  13.777  0.1685  1.1016 -0.9441
 5843TIP3    H238945   5.463   4.478  13.809 -1.1568  0.8999  0.6436
 5844TIP3   OH238946   5.365   1.829   0.421  0.4411 -0.3142  0.1082
 5844TIP3    H138947   5.349   1.825   0.515 -0.9278 -0.0029 -0.0882
 5844TIP3    H238948   5.424   1.904   0.410 -0.3416  0.3886  0.6128
 5845TIP3   OH238949   4.249   0.777  13.248  0.0309  0.2196  0.1485
 5845TIP3    H138950   4.265   0.702  13.191  0.0104  1.7096 -1.8908
 5845TIP3    H238951   4.283   0.749  13.333  0.7377 -1.8045 -0.7317
 5846TIP3   OH238952   6.213   2.858  10.424 -0.4491 -0.0216 -0.2994
 5846TIP3    H138953   6.245   2.901  10.345  1.6192  0.1762  0.5844
 5846TIP3    H238954   6.130   2.902  10.444  0.3005  1.7330 -0.8925
 5847TIP3   OH238955   6.168   1.642  14.293  0.0201 -0.5395  0.6369
 5847TIP3    H138956   6.223   1.585  14.346  1.1689 -1.0368 -1.0120
 5847TIP3    H238957   6.215   1.652  14.211 -2.2444 -0.8058 -0.7948
 5848TIP3   OH238958   0.997   5.763   2.411 -0.3332 -0.0376  0.4849
 5848TIP3    H138959   0.941   5.703   2.362  0.5188 -0.9980  0.6493
 5848TIP3    H238960   1.035   5.821   2.345 -1.0158  0.2121  0.3022
 5849TIP3   OH238961   4.502   4.652  15.119 -0.0835  0.0753  0.1433
 5849TIP3    H138962   4.462   4.578  15.164  1.9712 -1.4191 -0.3299
 5849TIP3    H238963   4.477   4.641  15.027  0.1875 -0.0196  0.0792
 5850TIP3   OH238964   5.719   3.965  14.760  0.2510 -0.1792  0.0469
 5850TIP3    H138965   5.690   4.055  14.771 -2.1979 -0.8589 -0.1946
 5850TIP3    H238966   5.710   3.948  14.666  4.7915  0.5124 -0.6985
 5851TIP3   OH238967   6.607   3.952   1.251 -0.6437  0.1656 -0.0189
 5851TIP3    H138968   6.517   3.927   1.271 -0.4175  0.1506  1.0081
 5851TIP3    H238969   6.654   3.869   1.244 -0.6028  0.1929 -0.0736
 5852TIP3   OH238970   5.551   5.071   1.647 -0.1274 -0.2055 -0.4787
 5852TIP3    H138971   5.525   4.992   1.600 -1.0289  0.0547 -0.4365
 5852TIP3    H238972   5.520   5.143   1.592 -2.0747  0.1149  0.9218
 5853TIP3   OH238973   0.844   6.365  11.432 -0.3479 -0.2360  0.2674
 5853TIP3    H138974   0.936   6.377  11.406 -0.2936  0.2089  0.6345
 5853TIP3    H238975   0.806   6.452  11.422 -0.5394 -0.2520  0.8371
 5854TIP3   OH238976   2.345   4.496  16.745  0.0062  0.2493 -0.1454
 5854TIP3    H138977   2.281   4.554  16.705 -0.2803 -0.7466 -1.2052
 5854TIP3    H238978   2.318   4.489  16.837 -2.4521 -1.4400 -0.9020
 5855TIP3   OH238979   2.330   1.627  16.072 -0.4898 -0.2446 -0.1220
 5855TIP3    H138980   2.290   1.545  16.044  0.3489 -0.1870 -1.5960
 5855TIP3    H238981   2.388   1.651  15.999  1.6911  0.0183  1.5908
 5856TIP3   OH238982   2.979   3.152   0.977 -0.1726  0.4475 -0.0130
 5856TIP3    H138983   3.043   3.083   0.963 -1.4870 -0.9015  0.4016
 5856TIP3    H238984   3.030   3.225   1.013  1.0428 -0.7653  0.8249
 5857TIP3   OH238985   3.407   1.322  11.201  0.7558  0.6996 -0.0803
 5857TIP3    H138986   3.456   1.338  11.120  0.7463  0.9865 -0.0287
 5857TIP3    H238987   3.473   1.325  11.270  0.5745  1.7343  0.0604
 5858TIP3   OH238988   1.913   1.255   6.542 -0.1613  0.1448  0.0517
 5858TIP3    H138989   1.959   1.337   6.559 -0.4166  0.5448 -1.1195
 5858TIP3    H238990   1.830   1.281   6.502 -1.2725 -0.5847  1.7607
 5859TIP3   OH238991   5.920   6.639  14.967 -0.0282  0.0181 -0.0085
 5859TIP3    H138992   5.917   6.639  15.063  0.5800  1.6680  0.0489
 5859TIP3    H238993   5.971   6.717  14.945 -0.5674 -0.0652 -1.6887
 5860TIP3   OH238994   2.595   3.194  10.219 -0.4798 -0.2280 -0.0843
 5860TIP3    H138995   2.527   3.260  10.202  0.0268  0.3113 -0.0579
 5860TIP3    H238996   2.650   3.233  10.287  0.1911 -0.4098 -0.5097
 5861TIP3   OH238997   4.302   0.971  15.093 -0.7894 -0.7007  0.1612
 5861TIP3    H138998   4.255   0.888  15.096 -1.9747 -0.1086 -1.0082
 5861TIP3    H238999   4.245   1.033  15.140 -0.6375 -0.2268 -0.2691
 5862TIP3   OH239000   1.009   4.958  16.489  0.5376 -0.2097  0.2732
 5862TIP3    H139001   1.104   4.957  16.506  0.6719 -2.0163 -0.3025
 5862TIP3    H239002   0.998   4.902  16.412 -1.0645 -0.5597  0.7217
 5863TIP3   OH239003   1.119   6.246  14.098  0.8540  0.5821 -0.5589
 5863TIP3    H139004   1.149   6.223  14.186  0.4891 -0.7321 -0.7548
 5863TIP3    H239005   1.151   6.175  14.043 -1.6710 -0.3499 -0.9473
 5864TIP3   OH239006   4.650   3.703   2.063  0.2545  0.1169 -0.1183
 5864TIP3    H139007   4.602   3.710   1.980 -0.5895 -1.1266  0.2361
 5864TIP3    H239008   4.725   3.646   2.043  0.8481  0.9606 -0.3473
 5865TIP3   OH239009   5.893   5.477   5.237 -0.2739 -0.5780 -0.3801
 5865TIP3    H139010   5.822   5.470   5.173 -1.6203 -1.9880  1.1544
 5865TIP3    H239011   5.856   5.531   5.307  0.9501  0.4211 -0.4841
 5866TIP3   OH239012   5.785   1.150   3.760  0.0662 -0.1838  0.2681
 5866TIP3    H139013   5.703   1.125   3.803 -0.7349 -2.4160 -2.2724
 5866TIP3    H239014   5.842   1.074   3.773  0.1085 -0.5344 -1.7209
 5867TIP3   OH239015   4.383   0.290   2.187 -0.1433 -0.1562 -0.1039
 5867TIP3    H139016   4.361   0.270   2.278 -0.6535  0.6073 -0.0474
 5867TIP3    H239017   4.414   0.207   2.151  0.5692 -0.3563  0.9042
 5868TIP3   OH239018   1.786   4.354  11.455 -0.7095 -0.3418 -0.0033
 5868TIP3    H139019   1.826   4.400  11.528  1.3591  0.8929 -1.7889
 5868TIP3    H239020   1.859   4.313  11.409 -2.1173 -2.4592 -0.5048
 5869TIP3   OH239021   5.562   1.344  15.144 -0.3822 -0.1898 -0.4156
 5869TIP3    H139022   5.631   1.381  15.089  0.9594  1.0844  1.9474
 5869TIP3    H239023   5.485   1.398  15.125 -0.4450 -0.8514 -2.2055
 5870TIP3   OH239024   5.557   4.978  10.862  0.2569  0.2640  0.1424
 5870TIP3    H139025   5.557   4.953  10.769  1.0926  0.4722  0.0803
 5870TIP3    H239026   5.471   4.951  10.894  1.3605 -3.5613  0.3285
 5871TIP3   OH239027   0.503   5.927   5.295  0.9498 -0.3919  0.1572
 5871TIP3    H139028   0.503   5.961   5.385 -1.6291 -1.0209  0.4669
 5871TIP3    H239029   0.515   5.832   5.306 -3.3623 -1.0957  0.2937
 5872TIP3   OH239030   1.036   2.416  14.992  0.5665 -0.3031  0.2268
 5872TIP3    H139031   1.071   2.343  15.044  1.0358  0.0043  0.3440
 5872TIP3    H239032   1.081   2.411  14.908  0.8014  0.0162  0.3319
 5873TIP3   OH239033   3.287   2.543   6.090  0.0048  0.2457 -0.3239
 5873TIP3    H139034   3.319   2.465   6.137 -0.0535  0.7148  0.5117
 5873TIP3    H239035   3.282   2.611   6.157 -1.3842  0.5780 -0.7357
 5874TIP3   OH239036   5.942   2.956  15.323  0.1151 -0.1210 -0.5440
 5874TIP3    H139037   5.908   2.967  15.235 -1.8599  0.7373  0.2817
 5874TIP3    H239038   6.021   3.010  15.326  0.9455 -1.1760 -2.1276
 5875TIP3   OH239039   0.995   6.000   1.704 -0.1255  0.0510  0.4021
 5875TIP3    H139040   0.911   6.041   1.685 -0.9138 -0.9394  1.5687
 5875TIP3    H239041   0.992   5.983   1.799  0.7321 -1.3902  0.1979
 5876TIP3   OH239042   6.057   2.921  14.275 -0.6807 -0.0886 -0.2748
 5876TIP3    H139043   6.125   2.888  14.333 -0.6109 -1.8087 -1.2579
 5876TIP3    H239044   6.079   3.013  14.261  0.9737 -0.4003  0.0933
 5877TIP3   OH239045   4.221   4.961  15.881 -0.0103  0.2065  0.0062
 5877TIP3    H139046   4.233   4.873  15.918  0.2658  0.4475  0.4987
 5877TIP3    H239047   4.291   5.013  15.921 -0.0042  0.5876 -0.4925
 5878TIP3   OH239048   5.434   2.168  15.554  0.8234  0.8113  0.2159
 5878TIP3    H139049   5.397   2.175  15.642 -0.3662 -0.7612 -0.1173
 5878TIP3    H239050   5.528   2.156  15.569  0.6861  0.8867  1.2405
 5879TIP3   OH239051   4.952   3.824  15.529 -0.3139  0.6526 -0.0084
 5879TIP3    H139052   4.951   3.782  15.443 -0.1759 -2.1645  1.2649
 5879TIP3    H239053   4.939   3.917  15.510  0.8655  0.2952 -3.1250
 5880TIP3   OH239054   5.650   0.921   1.105  0.0973 -0.2502 -0.4372
 5880TIP3    H139055   5.661   0.962   1.020  0.4928  0.6929  0.0483
 5880TIP3    H239056   5.731   0.941   1.152  0.3762 -1.7447 -0.2299
 5881TIP3   OH239057   2.750   6.187  11.048  1.1364  0.0942 -0.1966
 5881TIP3    H139058   2.743   6.150  10.960 -3.8540  0.3643 -0.1580
 5881TIP3    H239059   2.765   6.280  11.034 -0.3107  0.2482 -0.8637
 5882TIP3   OH239060   2.060   6.246  15.619 -0.1079  0.0069  0.7670
 5882TIP3    H139061   2.011   6.303  15.678  1.0296  2.8119 -0.8312
 5882TIP3    H239062   2.001   6.232  15.545 -1.0007 -2.3614  1.8326
 5883TIP3   OH239063   0.746   1.962  16.039 -0.4622 -0.4763  0.0902
 5883TIP3    H139064   0.784   1.877  16.017 -0.2967 -0.1726 -0.8743
 5883TIP3    H239065   0.743   1.964  16.134  2.1890 -0.4211  0.2500
 5884TIP3   OH239066   3.806   4.189   4.077  0.1957  0.5148  0.0578
 5884TIP3    H139067   3.712   4.209   4.075  0.1334  0.2819  0.4789
 5884TIP3    H239068   3.819   4.146   4.161  0.5834  0.0469 -0.2393
 5885TIP3   OH239069   1.349   6.729   1.974  0.5700 -0.6775 -0.4585
 5885TIP3    H139070   1.421   6.690   1.924  1.0048  1.1481 -1.3140
 5885TIP3    H239071   1.384   6.812   2.005 -1.0478  0.0744 -0.5656
 5886TIP3   OH239072   1.145   4.143  16.565 -1.1080 -0.2443  0.2400
 5886TIP3    H139073   1.124   4.148  16.472 -1.3462  1.1931  0.3441
 5886TIP3    H239074   1.061   4.125  16.607 -1.5987  1.9818  0.3676
 5887TIP3   OH239075   1.751   0.424  13.681 -0.3357  0.2069  0.4237
 5887TIP3    H139076   1.772   0.421  13.588 -0.4894 -2.3105  0.3964
 5887TIP3    H239077   1.822   0.475  13.720 -0.6404  1.9024 -1.1171
 5888TIP3   OH239078   2.448   4.867  10.585 -0.0179  0.3515  0.6456
 5888TIP3    H139079   2.373   4.813  10.560 -1.3744  2.1033  0.6869
 5888TIP3    H239080   2.518   4.805  10.604 -1.0770 -1.3014 -0.6314
 5889TIP3   OH239081   6.741   0.499   6.485  0.4493 -0.0846  0.0856
 5889TIP3    H139082   6.836   0.488   6.493  0.2930 -1.1224  0.6138
 5889TIP3    H239083   6.727   0.507   6.391  0.9400 -1.3033 -0.1215
 5890TIP3   OH239084   2.593   1.241  14.841  0.0600 -0.4598  0.7709
 5890TIP3    H139085   2.667   1.198  14.798  0.5986  0.7403  0.4519
 5890TIP3    H239086   2.614   1.334  14.836 -2.1330  0.0345 -0.6220
 5891TIP3   OH239087   0.611   0.612   2.710 -0.0686 -0.1731  0.4903
 5891TIP3    H139088   0.640   0.579   2.625  0.0996 -0.0833  0.5124
 5891TIP3    H239089   0.539   0.554   2.735 -0.5709  0.2154 -0.0320
 5892TIP3   OH239090   4.720   4.820   6.015  0.4029 -0.4902  0.0068
 5892TIP3    H139091   4.643   4.778   6.053  0.3485 -1.5636 -1.2286
 5892TIP3    H239092   4.741   4.890   6.076 -1.5022 -0.2091  0.4043
 5893TIP3   OH239093   6.063   0.063   0.671 -0.2224 -0.0596 -0.1834
 5893TIP3    H139094   6.028   0.151   0.688  2.8723  0.8389  2.6428
 5893TIP3    H239095   5.986   0.007   0.666 -2.2205  2.2402  2.0351
 5894TIP3   OH239096   2.085   1.844   1.761  0.0429 -0.8267 -0.3058
 5894TIP3    H139097   2.109   1.919   1.708 -1.0353 -0.2666 -0.0291
 5894TIP3    H239098   2.090   1.875   1.852  0.7986 -1.4541 -0.1197
 5895TIP3   OH239099   2.054   5.652   3.184 -0.2074 -0.0137  0.3535
 5895TIP3    H139100   2.004   5.697   3.116  0.9882 -0.8161 -1.1198
 5895TIP3    H239101   2.021   5.563   3.184  1.1077 -0.5390 -0.6003
 5896TIP3   OH239102   5.849   1.485   5.450 -0.0507  0.0291  0.1850
 5896TIP3    H139103   5.889   1.506   5.366  0.8472 -1.4622  0.2005
 5896TIP3    H239104   5.760   1.457   5.428 -0.4219  1.3081 -0.0594
 5897TIP3   OH239105   3.533   3.195  13.905 -0.5366  0.1048  0.0240
 5897TIP3    H139106   3.462   3.258  13.895  0.1958  0.7354 -1.6553
 5897TIP3    H239107   3.513   3.128  13.839  0.5234  0.4230 -0.6461
 5898TIP3   OH239108   1.426   4.327   2.853  0.1722  0.0887  0.3454
 5898TIP3    H139109   1.489   4.365   2.914 -0.8695  0.4468  1.2312
 5898TIP3    H239110   1.349   4.384   2.859 -0.0357  0.0245 -1.1719
 5899TIP3   OH239111   0.460   2.775  13.378 -0.7457  0.0051 -0.3785
 5899TIP3    H139112   0.506   2.837  13.435  1.0337 -0.4705 -1.2241
 5899TIP3    H239113   0.438   2.826  13.300  0.1853 -0.2355 -0.8194
 5900TIP3   OH239114   5.368   6.508   4.750 -0.1918  0.0068  0.0114
 5900TIP3    H139115   5.279   6.540   4.764 -0.0602 -0.2636  1.7051
 5900TIP3    H239116   5.358   6.413   4.742 -0.0956  0.0058 -0.0878
 5901TIP3   OH239117   3.283   1.843   0.629 -0.2302  0.1991  0.2249
 5901TIP3    H139118   3.261   1.890   0.709  1.6278 -0.3610  1.1235
 5901TIP3    H239119   3.376   1.820   0.639 -0.9470 -3.5996 -0.1291
 5902TIP3   OH239120   0.182   3.277  10.468  0.0376 -0.2190  1.1021
 5902TIP3    H139121   0.237   3.216  10.418 -1.0204  0.5315 -1.1371
 5902TIP3    H239122   0.216   3.363  10.444 -1.3923  0.2107  0.5029
 5903TIP3   OH239123   3.987   4.446  15.340 -0.5044 -0.0520  0.4027
 5903TIP3    H139124   4.004   4.352  15.335 -0.5705 -0.1511  1.8384
 5903TIP3    H239125   3.997   4.477  15.250  1.5149 -1.0962  0.2273
 5904TIP3   OH239126   5.940   4.560  11.758  0.1222  0.0207  0.2957
 5904TIP3    H139127   5.910   4.469  11.747 -0.1873  0.2248 -0.5802
 5904TIP3    H239128   5.883   4.611  11.702  0.2288  0.7837  0.8707
 5905TIP3   OH239129   1.878   1.256  15.668  0.3000  0.5178  0.8601
 5905TIP3    H139130   1.873   1.251  15.573  0.0502  1.1187  0.8364
 5905TIP3    H239131   1.823   1.184  15.699  1.2184 -0.3414  0.5565
 5906TIP3   OH239132   0.632   1.983   5.566  0.2031  0.2241  0.7774
 5906TIP3    H139133   0.599   2.035   5.639 -0.7483  0.2492  0.3401
 5906TIP3    H239134   0.557   1.972   5.508  0.6636 -0.7262  0.3330
 5907TIP3   OH239135   1.258   0.677   3.850  0.0174 -0.0085  0.1390
 5907TIP3    H139136   1.331   0.711   3.798 -0.0583  1.4902  0.9656
 5907TIP3    H239137   1.196   0.642   3.786  1.0897 -0.5748 -0.6083
 5908TIP3   OH239138   5.867   6.367   4.968 -0.5107 -0.0175 -0.2832
 5908TIP3    H139139   5.772   6.357   4.978 -0.7720  2.4360  0.3715
 5908TIP3    H239140   5.880   6.382   4.875 -0.8189  0.0474 -0.3157
 5909TIP3   OH239141   1.434   0.065  13.799  0.2357 -0.3417 -0.1718
 5909TIP3    H139142   1.372   0.044  13.729  0.4952 -1.5001 -0.0783
 5909TIP3    H239143   1.397   0.023  13.877  2.1300 -2.9320 -0.5198
 5910TIP3   OH239144   0.988   3.119   4.175 -0.2704  0.2927  0.1180
 5910TIP3    H139145   1.064   3.062   4.163 -0.8103 -0.2725 -0.7479
 5910TIP3    H239146   0.913   3.064   4.150 -0.6518  2.0797 -3.1819
 5911TIP3   OH239147   1.519   2.051   0.523  0.8176  0.4395 -0.6608
 5911TIP3    H139148   1.579   1.979   0.510 -0.3501 -0.8730  0.8108
 5911TIP3    H239149   1.575   2.126   0.545  1.9488 -0.5319 -0.1396
 5912TIP3   OH239150   5.900   2.070  10.876 -0.0986  0.8879  0.3827
 5912TIP3    H139151   5.834   2.115  10.824  0.0955  1.6900  0.7979
 5912TIP3    H239152   5.982   2.116  10.855  0.0965  0.7601  0.8501
 5913TIP3   OH239153   5.113   5.626   2.277  0.1228 -0.5290  0.3253
 5913TIP3    H139154   5.098   5.719   2.262 -0.6974 -0.3581  1.9938
 5913TIP3    H239155   5.036   5.583   2.240 -0.5396 -0.3432  1.4414
 5914TIP3   OH239156   0.852   4.933   5.568 -0.1377  0.2512  0.1595
 5914TIP3    H139157   0.802   4.988   5.628  0.5693  2.0223 -0.8121
 5914TIP3    H239158   0.929   4.905   5.619 -0.2393  0.5882  0.4983
 5915TIP3   OH239159   0.190   2.575   1.175  0.3772  0.0310 -0.1107
 5915TIP3    H139160   0.180   2.647   1.237  1.1710 -0.3384  0.4573
 5915TIP3    H239161   0.114   2.583   1.117  0.0953  0.9107  0.3603
 5916TIP3   OH239162   5.821   0.770  14.424 -0.5424  0.4742 -0.1509
 5916TIP3    H139163   5.845   0.680  14.447  0.3721 -0.1429 -3.0605
 5916TIP3    H239164   5.736   0.762  14.381 -1.1288  1.2291  0.8438
 5917TIP3   OH239165   4.614   3.307   2.907 -0.6382 -0.3097 -0.1111
 5917TIP3    H139166   4.700   3.269   2.920 -0.1661  0.8622  0.2752
 5917TIP3    H239167   4.556   3.231   2.896  0.7136 -1.1225 -2.3758
 5918TIP3   OH239168   1.007   3.365   3.921 -0.0536  0.3417  0.0306
 5918TIP3    H139169   1.025   3.452   3.957  0.9915  1.2690 -2.4691
 5918TIP3    H239170   0.915   3.349   3.941 -0.4793  2.3702 -0.0689
 5919TIP3   OH239171   1.344   4.879   3.743 -0.2724  0.7639 -0.0767
 5919TIP3    H139172   1.408   4.812   3.767  1.9668  3.1637  1.0770
 5919TIP3    H239173   1.290   4.890   3.822 -2.1181 -1.0968 -0.9750
 5920TIP3   OH239174   5.194   2.621  15.410 -0.5608  0.2305  0.4074
 5920TIP3    H139175   5.241   2.623  15.327 -0.6144  1.8240  0.3773
 5920TIP3    H239176   5.102   2.608  15.386 -0.3007 -1.8951  0.4070
 5921TIP3   OH239177   5.664   2.390   4.027  0.0938 -0.6199 -0.0245
 5921TIP3    H139178   5.583   2.365   4.072  0.5559 -4.3221 -0.8976
 5921TIP3    H239179   5.731   2.385   4.095 -0.2889  2.3811  0.6837
 5922TIP3   OH239180   1.466   2.622   2.499  0.0255  0.1034  0.8649
 5922TIP3    H139181   1.462   2.573   2.417  0.7297 -0.1150  0.9528
 5922TIP3    H239182   1.515   2.565   2.558  2.6431  1.6870  0.3898
 5923TIP3   OH239183   3.869   1.163   6.360  0.2418 -0.1814 -0.2276
 5923TIP3    H139184   3.840   1.249   6.389 -1.1564 -0.8994  0.6215
 5923TIP3    H239185   3.959   1.176   6.330  0.9215  1.0870  2.1605
 5924TIP3   OH239186   2.421   1.610  13.509 -0.4996 -0.2278  0.0243
 5924TIP3    H139187   2.458   1.699  13.507  0.0317 -0.4031 -2.9387
 5924TIP3    H239188   2.425   1.585  13.601  0.8275  2.2080  0.7399
 5925TIP3   OH239189   4.970   5.591   0.923  0.1065 -0.4358 -0.0312
 5925TIP3    H139190   4.946   5.569   0.833  0.2659  0.0602 -0.2008
 5925TIP3    H239191   4.923   5.672   0.942 -1.5958 -1.6138  1.0753
 5926TIP3   OH239192   2.214   0.735  12.844  0.2293  0.2315  0.1144
 5926TIP3    H139193   2.198   0.822  12.880 -1.7526  0.5127 -1.3183
 5926TIP3    H239194   2.205   0.676  12.919  1.0052  1.1859  0.9821
 5927TIP3   OH239195   0.928   0.119  10.768  0.2996  0.0528 -0.4685
 5927TIP3    H139196   0.861   0.051  10.773 -0.4136  0.2223 -4.3731
 5927TIP3    H239197   0.880   0.201  10.780  0.0364  0.0908 -1.6455
 5928TIP3   OH239198   5.966   6.501   5.817  0.5586  0.4684 -0.0884
 5928TIP3    H139199   5.904   6.570   5.840  0.0394 -0.2120  0.5969
 5928TIP3    H239200   5.996   6.467   5.902  1.6487  0.5923 -0.4145
 5929TIP3   OH239201   5.985   3.862  14.471 -0.1250 -0.0354 -0.1213
 5929TIP3    H139202   5.974   3.954  14.447  0.4740 -0.3820 -1.8812
 5929TIP3    H239203   6.080   3.849  14.467 -0.2969 -1.0596 -1.2967
 5930TIP3   OH239204   2.396   4.248   0.536 -0.0042  0.2778  0.3891
 5930TIP3    H139205   2.374   4.175   0.594 -1.0495  0.4322  0.2022
 5930TIP3    H239206   2.312   4.274   0.497  0.5082  0.9378 -0.2959
 5931TIP3   OH239207   4.451   4.028   4.607  0.6838  0.1980 -0.0808
 5931TIP3    H139208   4.446   4.013   4.702  1.1249  1.4662  0.1639
 5931TIP3    H239209   4.435   3.942   4.569 -3.2740  0.2793  1.0156
 5932TIP3   OH239210   0.497   2.230   4.274  0.2828 -0.1037  0.0236
 5932TIP3    H139211   0.438   2.187   4.336 -1.3241 -0.7668 -1.8830
 5932TIP3    H239212   0.506   2.319   4.307 -1.6936 -0.0280  0.4510
 5933TIP3   OH239213   4.624   4.084   0.104 -0.1730  0.2141  0.6910
 5933TIP3    H139214   4.715   4.062   0.125  0.7644  1.5054 -1.6822
 5933TIP3    H239215   4.603   4.031   0.027 -0.6940  1.4648 -0.0574
 5934TIP3   OH239216   3.803   2.474  14.896  0.4293  0.4428 -0.7986
 5934TIP3    H139217   3.809   2.511  14.808  0.1919  2.0268 -0.1723
 5934TIP3    H239218   3.867   2.403  14.897  0.6539  0.6038 -2.1404
 5935TIP3   OH239219   1.341   0.223   4.404  0.8398 -0.8541  0.0571
 5935TIP3    H139220   1.249   0.238   4.425  0.7635 -1.7904  0.4448
 5935TIP3    H239221   1.339   0.168   4.326  1.1189  1.6851 -1.8481
 5936TIP3   OH239222   0.243   1.342   3.497  0.1332 -0.0658  0.0960
 5936TIP3    H139223   0.228   1.368   3.589  1.1599 -0.5480  0.4101
 5936TIP3    H239224   0.304   1.269   3.503 -1.9686 -1.9899 -0.8326
 5937TIP3   OH239225   4.795   4.925  14.102  0.6251  0.2261  0.0730
 5937TIP3    H139226   4.883   4.888  14.100  0.4825 -0.0854 -0.6878
 5937TIP3    H239227   4.795   4.990  14.032  0.7126  1.3213  1.0541
 5938TIP3   OH239228   1.329   3.274   2.246 -0.5773  0.5095  0.2865
 5938TIP3    H139229   1.407   3.221   2.231 -1.2370 -0.2205 -0.7457
 5938TIP3    H239230   1.362   3.363   2.259  0.4129  0.2673 -0.4379
 5939TIP3   OH239231   3.523   4.593  14.027  0.2403  0.3235  0.0635
 5939TIP3    H139232   3.523   4.618  14.119 -0.0827 -0.2725  0.2312
 5939TIP3    H239233   3.526   4.497  14.028  0.0563  0.3065 -0.5438
 5940TIP3   OH239234   4.842   5.365  14.535 -0.1822 -0.1429  0.0196
 5940TIP3    H139235   4.871   5.452  14.509  0.1345  0.8588  3.3388
 5940TIP3    H239236   4.922   5.312  14.533  0.5007  0.7240  1.8616
 5941TIP3   OH239237   3.285   6.003  13.788  0.0370 -0.6042 -0.2997
 5941TIP3    H139238   3.203   6.035  13.825  1.3986  0.1926  2.2841
 5941TIP3    H239239   3.316   6.075  13.733  0.3524  0.3073  1.0135
 5942TIP3   OH239240   3.987   2.688   4.094  0.0837  0.1808 -0.8720
 5942TIP3    H139241   3.940   2.657   4.171  1.1464 -1.3441 -0.7991
 5942TIP3    H239242   3.936   2.764   4.064 -1.0959 -0.0125  0.5276
 5943TIP3   OH239243   4.977   2.665  16.324 -0.1379 -0.2732 -0.6645
 5943TIP3    H139244   4.955   2.575  16.300  0.1624  0.1944 -2.8874
 5943TIP3    H239245   4.959   2.670  16.418 -0.0550 -2.6647 -0.4734
 5944TIP3   OH239246   2.880   5.036  16.980  0.1324  0.1989 -0.0707
 5944TIP3    H139247   2.968   5.013  16.948 -0.7762 -2.8358 -0.7868
 5944TIP3    H239248   2.883   5.016  17.073  0.1221 -0.2283 -0.1590
 5945TIP3   OH239249   4.895   3.864  14.239  0.5402 -0.0747 -0.6705
 5945TIP3    H139250   4.852   3.817  14.167 -1.2102  0.7437 -0.2296
 5945TIP3    H239251   4.841   3.843  14.316  1.2580  0.5924  0.0334
 5946TIP3   OH239252   0.105   0.281  10.579 -0.5801  0.1041  0.1911
 5946TIP3    H139253   0.091   0.339  10.504 -1.0376 -0.8890 -0.5115
 5946TIP3    H239254   0.126   0.340  10.652 -1.4715  1.1748 -0.3975
 5947TIP3   OH239255   5.287   5.672   0.016 -0.2449  0.3047  0.0304
 5947TIP3    H139256   5.299   5.725  -0.062 -1.7882  1.0947  0.2770
 5947TIP3    H239257   5.296   5.733   0.089  0.1049 -0.2098  0.4288
 5948TIP3   OH239258   1.598   5.978  15.347 -0.2747  0.2406 -0.3089
 5948TIP3    H139259   1.644   6.055  15.312 -1.4374  0.9293 -0.3766
 5948TIP3    H239260   1.511   5.981  15.307  0.3701 -2.4627 -2.1662
 5949TIP3   OH239261   4.593   0.383  13.847  0.4230 -0.7312  0.3772
 5949TIP3    H139262   4.666   0.424  13.801 -0.7148 -0.0483 -0.8876
 5949TIP3    H239263   4.574   0.441  13.920 -0.8879  0.8483 -1.1418
 5950TIP3   OH239264   6.115   1.035   3.347 -0.2797 -0.3887  0.5220
 5950TIP3    H139265   6.156   1.120   3.327 -0.3039 -0.9646 -2.3482
 5950TIP3    H239266   6.029   1.058   3.381 -0.0171  0.7555  0.4594
 5951TIP3   OH239267   6.522   0.232  15.238  0.4325  0.3615  0.2299
 5951TIP3    H139268   6.468   0.301  15.198  0.3892 -0.7334 -1.7248
 5951TIP3    H239269   6.594   0.280  15.279  0.7469  1.5879 -1.6255
 5952TIP3   OH239270   0.467   5.177   5.045  0.9413 -0.2252 -0.0816
 5952TIP3    H139271   0.496   5.089   5.070 -0.2359 -0.2314  1.4360
 5952TIP3    H239272   0.419   5.209   5.122  2.3172  2.2192 -0.1448
 5953TIP3   OH239273   5.968   1.815  13.894 -0.0347  0.1696 -0.2633
 5953TIP3    H139274   6.003   1.726  13.891  1.2620  0.6557 -0.6934
 5953TIP3    H239275   5.940   1.833  13.804 -0.7692  0.0256 -0.0679
 5954TIP3   OH239276   5.863   5.008  12.300  0.2239 -0.1227  0.7893
 5954TIP3    H139277   5.899   4.930  12.257  2.3697  1.5699 -0.6850
 5954TIP3    H239278   5.838   4.977  12.387 -0.6207 -2.8103 -0.3004
 5955TIP3   OH239279   6.500   3.457  11.821  0.2245  0.1697  0.0248
 5955TIP3    H139280   6.521   3.523  11.888  0.5581 -0.2217  0.3077
 5955TIP3    H239281   6.505   3.506  11.738 -0.5676  0.7476  0.3063
 5956TIP3   OH239282   6.142   0.714   3.819 -0.3555  0.6924  0.0705
 5956TIP3    H139283   6.220   0.702   3.766  0.3979  1.2697  1.0137
 5956TIP3    H239284   6.077   0.654   3.781  0.6620 -0.0858 -0.4794
 5957TIP3   OH239285   4.836   2.685  11.821 -1.1334  0.4047 -0.1621
 5957TIP3    H139286   4.873   2.673  11.734 -0.3836 -1.8915  0.4127
 5957TIP3    H239287   4.748   2.718  11.805 -0.0285  3.0059 -1.6464
 5958TIP3   OH239288   3.868   2.211  13.828  0.6038  0.3499 -0.4493
 5958TIP3    H139289   3.808   2.185  13.759 -1.3803  1.5728  0.7217
 5958TIP3    H239290   3.876   2.305  13.819  1.4750  0.3430  0.1073
 5959TIP3   OH239291   4.584   2.641  16.749  0.7693  0.5710 -0.2056
 5959TIP3    H139292   4.601   2.586  16.673  1.3071  1.6570 -0.8872
 5959TIP3    H239293   4.535   2.584  16.808  1.9837 -0.8975 -0.5340
 5960TIP3   OH239294   5.695   1.340  15.854 -0.1691 -0.6044  0.4287
 5960TIP3    H139295   5.758   1.376  15.792 -0.1251  0.2158  0.9399
 5960TIP3    H239296   5.614   1.388  15.836 -0.8678 -2.1098 -0.6829
 5961TIP3   OH239297   2.761   0.545   5.928  0.4864 -0.6871  0.1817
 5961TIP3    H139298   2.749   0.460   5.968 -2.8250 -1.9044 -2.7961
 5961TIP3    H239299   2.689   0.598   5.962  1.5668  0.4456  0.7844
 5962TIP3   OH239300   0.660   4.256  14.956  0.4666  0.1261 -0.0574
 5962TIP3    H139301   0.600   4.181  14.963 -1.0972  1.3765  0.3333
 5962TIP3    H239302   0.746   4.218  14.974 -0.1362 -1.7681 -0.8504
 5963TIP3   OH239303   2.526   5.214   5.096  0.2794 -0.0235  0.0755
 5963TIP3    H139304   2.477   5.247   5.171 -0.6296 -0.2261 -0.4215
 5963TIP3    H239305   2.514   5.279   5.028 -0.1459 -0.5622 -0.3749
 5964TIP3   OH239306   2.245   5.113  10.603 -0.6713  0.3803 -0.2843
 5964TIP3    H139307   2.322   5.168  10.613 -0.5935  0.2431 -0.1377
 5964TIP3    H239308   2.279   5.027  10.580 -0.7888  0.3679 -0.4144
 5965TIP3   OH239309   5.798   3.262   3.548 -0.1063 -0.2875  0.2336
 5965TIP3    H139310   5.875   3.265   3.491 -0.2032 -1.5457  0.0075
 5965TIP3    H239311   5.812   3.333   3.611  0.4253  0.5603 -0.8068
 5966TIP3   OH239312   2.309   0.344  14.700  0.3264 -0.4571 -0.3469
 5966TIP3    H139313   2.378   0.315  14.760  1.0253 -1.0387 -1.3786
 5966TIP3    H239314   2.228   0.316  14.741  0.8738 -2.2596 -0.3919
 5967TIP3   OH239315   3.178   4.261   2.272 -0.3755 -0.6647  0.1993
 5967TIP3    H139316   3.179   4.165   2.277  0.9980 -0.6842 -0.0184
 5967TIP3    H239317   3.267   4.287   2.293 -1.1906  0.7219  2.3476
 5968TIP3   OH239318   6.507   3.563   2.348 -0.0076  0.1533 -0.1362
 5968TIP3    H139319   6.499   3.618   2.271  3.4040  1.2217  0.1421
 5968TIP3    H239320   6.586   3.511   2.334 -0.6595 -1.4613  1.5949
 5969TIP3   OH239321   1.820   3.420  11.205 -0.3326  0.0731 -0.6248
 5969TIP3    H139322   1.881   3.363  11.158  2.9599  2.1309  0.7978
 5969TIP3    H239323   1.801   3.374  11.286 -1.0814 -0.7670 -1.2565
 5970TIP3   OH239324   1.295   5.902  12.392 -0.7294  0.2876 -0.4166
 5970TIP3    H139325   1.360   5.860  12.448 -2.5598 -1.3278  0.6052
 5970TIP3    H239326   1.309   5.864  12.306 -1.8204 -1.9095  0.3151
 5971TIP3   OH239327   2.882   1.141  13.617 -0.2217 -0.2027  0.1535
 5971TIP3    H139328   2.856   1.098  13.699 -0.1120 -0.7655 -0.1068
 5971TIP3    H239329   2.852   1.082  13.548  0.0885  0.0538 -0.2032
 5972TIP3   OH239330   2.109   2.525   3.211 -0.3462  0.3104  0.2581
 5972TIP3    H139331   2.154   2.450   3.250  0.6022  0.2654 -0.8704
 5972TIP3    H239332   2.072   2.491   3.130 -0.0519  1.0237 -0.1831
 5973TIP3   OH239333   2.797   4.310  15.199  0.0220 -0.4819  0.4335
 5973TIP3    H139334   2.852   4.299  15.276  1.6697 -1.5232 -0.8385
 5973TIP3    H239335   2.783   4.405  15.193  2.5637 -0.0432  0.2405
 5974TIP3   OH239336   0.598   0.239  16.363  0.3510  0.3218  0.0576
 5974TIP3    H139337   0.612   0.333  16.350 -0.9194  0.6167  0.6573
 5974TIP3    H239338   0.633   0.221  16.450 -2.6440  1.0731  1.5868
 5975TIP3   OH239339   6.306   5.692   2.625 -0.3745  0.2077  0.6182
 5975TIP3    H139340   6.349   5.677   2.709 -0.8388 -0.7860  0.6890
 5975TIP3    H239341   6.240   5.623   2.619 -1.0420  0.8850 -0.1014
 5976TIP3   OH239342   1.820   2.127  11.290 -0.3571 -0.3335 -0.2960
 5976TIP3    H139343   1.793   2.126  11.198 -0.4080 -1.7250 -0.2752
 5976TIP3    H239344   1.881   2.201  11.295 -0.2005 -0.3523 -1.4979
 5977TIP3   OH239345   3.979   2.857   1.949  0.0181  0.1825  0.3310
 5977TIP3    H139346   3.979   2.890   1.859  0.2823 -0.0410  0.2468
 5977TIP3    H239347   4.038   2.782   1.947 -0.3228 -0.0968  0.5951
 5978TIP3   OH239348   4.959   2.403  16.979  0.4629 -0.3777 -0.3702
 5978TIP3    H139349   5.029   2.422  17.041  1.4542 -1.6883 -1.0642
 5978TIP3    H239350   4.883   2.384  17.035  1.2352 -1.1640  0.4513
 5979TIP3   OH239351   2.489   0.388   1.706  0.5316  0.4622  0.7388
 5979TIP3    H139352   2.398   0.358   1.699  0.6331  0.6025 -2.8117
 5979TIP3    H239353   2.501   0.405   1.799 -1.8586 -3.2823  1.9670
 5980TIP3   OH239354   3.730   6.410  16.622 -0.6100  0.5278 -0.0684
 5980TIP3    H139355   3.806   6.460  16.653  0.3011 -0.2755 -0.9800
 5980TIP3    H239356   3.665   6.477  16.601  0.3518  1.3106 -0.6225
 5981TIP3   OH239357   1.097   4.433   6.034 -0.4298 -0.0661 -0.1177
 5981TIP3    H139358   1.171   4.484   6.000  1.5681 -3.2452 -0.9583
 5981TIP3    H239359   1.087   4.463   6.125  1.2737  1.1004 -0.2602
 5982TIP3   OH239360   3.606   6.777  13.253  0.1027 -0.2056 -0.2319
 5982TIP3    H139361   3.513   6.781  13.274 -0.0337 -0.3008 -0.8090
 5982TIP3    H239362   3.609   6.764  13.158  0.7128  2.7707 -0.7401
 5983TIP3   OH239363   6.272   2.302   0.030 -0.2161 -0.7664 -0.2381
 5983TIP3    H139364   6.229   2.329  -0.051 -1.9047 -1.0392  0.5278
 5983TIP3    H239365   6.329   2.230   0.004  3.0143  2.1559 -1.9997
 5984TIP3   OH239366   2.982   1.448  12.487  0.6060 -0.5071  0.2796
 5984TIP3    H139367   3.022   1.435  12.573 -0.1108  0.0780  0.7225
 5984TIP3    H239368   3.022   1.528  12.453 -0.6541  0.4869  1.0386
 5985TIP3   OH239369   2.636   4.337   3.872 -0.2456  0.4361 -0.0871
 5985TIP3    H139370   2.717   4.287   3.863  0.4920  1.9699 -3.5159
 5985TIP3    H239371   2.607   4.320   3.961  2.2464 -2.5332  0.3035
 5986TIP3   OH239372   1.195   4.281   0.473 -0.6059 -0.0646 -0.0510
 5986TIP3    H139373   1.280   4.245   0.446 -0.7483 -0.9454  0.6356
 5986TIP3    H239374   1.204   4.376   0.459 -0.5353 -0.3885 -2.7709
 5987TIP3   OH239375   6.014   4.310   4.131  0.4881 -0.0989 -0.0621
 5987TIP3    H139376   5.999   4.327   4.224  4.3029  2.5642  0.2887
 5987TIP3    H239377   5.991   4.393   4.088  1.5939 -0.2805 -1.0540
 5988TIP3   OH239378   1.844   4.121  13.004  0.0122  0.1574 -0.3559
 5988TIP3    H139379   1.919   4.166  12.966 -0.6033  0.8619 -0.7651
 5988TIP3    H239380   1.777   4.189  13.015 -0.5069 -0.4139  0.1789
 5989TIP3   OH239381   0.994   2.431   1.295 -0.0770  0.5833  0.1705
 5989TIP3    H139382   0.948   2.495   1.241 -1.6504 -0.4671  0.1765
 5989TIP3    H239383   1.042   2.377   1.233 -3.3182 -1.7850 -0.5729
 5990TIP3   OH239384   1.529   6.726  12.725  0.1381  0.3487 -0.0559
 5990TIP3    H139385   1.605   6.783  12.735  0.2113 -0.0636  2.2203
 5990TIP3    H239386   1.561   6.653  12.671  0.5730  1.4712 -1.3617
 5991TIP3   OH239387   6.471   6.045  13.323  0.1902  0.3243  0.1599
 5991TIP3    H139388   6.519   6.086  13.250  0.7375  0.6304  0.6784
 5991TIP3    H239389   6.450   6.118  13.381  0.4182 -0.0122  0.6736
 5992TIP3   OH239390   6.123   6.437   5.112 -0.3878 -0.6277 -0.6353
 5992TIP3    H139391   6.047   6.407   5.061 -0.5093 -1.4279  0.0077
 5992TIP3    H239392   6.168   6.357   5.139 -1.1135 -0.3244  1.7172
 5993TIP3   OH239393   6.087   2.167  15.334 -0.1385  0.5953  0.2280
 5993TIP3    H139394   6.172   2.133  15.362 -1.4355 -2.3940  0.9498
 5993TIP3    H239395   6.101   2.193  15.243  1.4682 -0.1566  0.2140
 5994TIP3   OH239396   0.704   4.591  11.405 -0.4631  0.4688  0.3385
 5994TIP3    H139397   0.736   4.637  11.328  0.3849 -0.4371  0.1242
 5994TIP3    H239398   0.675   4.660  11.464  0.3722  1.2565 -0.1448
 5995TIP3   OH239399   3.706   5.502  16.876  0.3169  0.0932 -0.1131
 5995TIP3    H139400   3.640   5.501  16.945 -1.0008 -1.3429 -1.3010
 5995TIP3    H239401   3.706   5.412  16.842  1.5444  0.5398 -1.3822
 5996TIP3   OH239402   4.739   6.788   5.223 -0.2937  0.6641 -0.1174
 5996TIP3    H139403   4.699   6.803   5.309  1.3915 -0.2490  0.8643
 5996TIP3    H239404   4.828   6.823   5.232  0.4035 -0.8266 -0.9770
 5997TIP3   OH239405   1.198   2.110  16.228 -0.0768 -0.5668 -0.4426
 5997TIP3    H139406   1.154   2.043  16.280  1.7435 -1.1100  0.4978
 5997TIP3    H239407   1.135   2.182  16.223 -0.6142 -0.7945  1.9257
 5998TIP3   OH239408   4.035   5.788  16.511 -0.0594  0.0875 -0.0380
 5998TIP3    H139409   4.030   5.726  16.438  1.0022 -0.7758  0.5921
 5998TIP3    H239410   3.952   5.775  16.558 -0.5401  0.3086 -0.8095
 5999TIP3   OH239411   1.115   6.315   5.058  0.4164  0.0060  0.1783
 5999TIP3    H139412   1.176   6.242   5.046  0.3525 -0.1458  0.7220
 5999TIP3    H239413   1.045   6.297   4.995 -0.8477 -1.7797  1.9582
 6000TIP3   OH239414   0.281   6.642  14.215  0.0852 -0.4922 -0.1436
 6000TIP3    H139415   0.266   6.561  14.265 -2.1675 -0.8365 -1.2473
 6000TIP3    H239416   0.220   6.705  14.254 -1.0662 -0.5159 -1.8005
 6001TIP3   OH239417   2.462   2.252  11.413  0.3402  0.2200 -0.3296
 6001TIP3    H139418   2.544   2.278  11.371  0.2895  2.5244  0.8303
 6001TIP3    H239419   2.488   2.190  11.481  0.6083 -2.1366 -2.4291
 6002TIP3   OH239420   6.047   6.330  16.797 -0.3909  0.3011 -0.7143
 6002TIP3    H139421   6.092   6.270  16.855 -0.7460  0.7851  0.0799
 6002TIP3    H239422   6.065   6.417  16.833 -2.4260  0.4799 -0.0037
 6003TIP3   OH239423   5.469   2.397   4.942 -0.0445  0.4323  0.3340
 6003TIP3    H139424   5.396   2.350   4.902 -0.9184 -0.8140  3.1267
 6003TIP3    H239425   5.545   2.371   4.890 -1.0234 -1.4330 -0.2710
 6004TIP3   OH239426   2.273   5.426  13.082  0.4842  0.3035 -0.0323
 6004TIP3    H139427   2.192   5.441  13.032 -0.0933  1.6571  1.2227
 6004TIP3    H239428   2.343   5.446  13.021 -0.1645  0.4419 -0.7469
 6005TIP3   OH239429   1.624   1.586   0.759 -0.2996  0.2058 -0.0589
 6005TIP3    H139430   1.600   1.605   0.669  0.2515  1.7600  0.0832
 6005TIP3    H239431   1.540   1.580   0.805 -0.5568  1.2422 -0.3555
 6006TIP3   OH239432   0.048   0.506  16.752 -0.4081  0.5589 -0.3302
 6006TIP3    H139433   0.049   0.591  16.798  2.3119 -0.8850  2.6709
 6006TIP3    H239434  -0.010   0.452  16.806  0.0747 -0.2471 -0.6205
 6007TIP3   OH239435   5.321   2.251  15.860  0.6462  0.2940 -0.7682
 6007TIP3    H139436   5.353   2.336  15.891 -0.0426  0.1160  0.4789
 6007TIP3    H239437   5.333   2.192  15.934 -0.2529 -0.3578 -1.1252
 6008TIP3   OH239438   3.405   4.112  13.375  0.6095 -0.3377  0.5912
 6008TIP3    H139439   3.317   4.150  13.371  1.3085  1.3826  0.2291
 6008TIP3    H239440   3.443   4.148  13.455  0.7656 -1.5895  1.0868
 6009TIP3   OH239441   4.256   1.800   6.084  0.0261  0.3872  0.3046
 6009TIP3    H139442   4.181   1.859   6.094 -0.8364 -0.4489 -1.0310
 6009TIP3    H239443   4.237   1.728   6.144  1.2779  1.5786  2.2468
 6010TIP3   OH239444   4.250   1.846   3.527  0.0421  0.5353  0.6070
 6010TIP3    H139445   4.283   1.779   3.588  1.4502 -1.2412 -1.9344
 6010TIP3    H239446   4.191   1.899   3.580  0.1752 -1.6773  3.1942
 6011TIP3   OH239447   5.044   5.521  11.222 -0.5007 -0.3029  0.1210
 6011TIP3    H139448   4.969   5.499  11.168 -0.4775  0.4816 -0.2389
 6011TIP3    H239449   5.025   5.608  11.257  0.7540  0.4559 -0.9591
 6012TIP3   OH239450   4.065   6.065   0.621 -0.2130  0.7218 -0.0101
 6012TIP3    H139451   4.028   6.026   0.700  0.9370  1.7687  1.0613
 6012TIP3    H239452   4.084   5.990   0.565  1.5399 -0.2789  1.8220
 6013TIP3   OH239453   3.412   2.061  14.269  0.8957  0.3957 -0.4125
 6013TIP3    H139454   3.478   2.025  14.327 -0.2098 -2.6163 -0.8192
 6013TIP3    H239455   3.452   2.059  14.182  2.0519  3.6013 -0.0721
 6014TIP3   OH239456   4.377   1.223   5.190  0.2527 -0.1946  0.0370
 6014TIP3    H139457   4.365   1.188   5.102  0.3418  3.1690 -1.4864
 6014TIP3    H239458   4.294   1.265   5.211  0.7305  0.3670  0.8961
 6015TIP3   OH239459   0.149   1.388   6.126  0.0366  0.0252 -0.0647
 6015TIP3    H139460   0.076   1.364   6.183 -0.4728  1.6275  0.0158
 6015TIP3    H239461   0.227   1.359   6.174 -0.4797 -0.4748  0.4953
 6016TIP3   OH239462   0.389   5.949   0.099 -0.0556 -0.3439 -0.7371
 6016TIP3    H139463   0.476   5.975   0.069 -0.9963  1.9356 -1.6792
 6016TIP3    H239464   0.340   5.934   0.018 -1.8799  3.2681 -0.4615
 6017TIP3   OH239465   2.440   1.603  13.941 -0.0352  0.9839 -0.5289
 6017TIP3    H139466   2.425   1.540  13.870  0.3831  0.2517  0.0134
 6017TIP3    H239467   2.356   1.647  13.952 -0.5910 -0.0741 -0.3700
 6018TIP3   OH239468   4.443   6.284   3.057 -0.3115  0.0752 -0.2798
 6018TIP3    H139469   4.420   6.196   3.086  0.2101 -0.1664 -0.5767
 6018TIP3    H239470   4.464   6.275   2.964 -2.5771  0.9580 -0.9314
 6019TIP3   OH239471   1.530   3.990  15.549  0.2225  0.2673  0.0061
 6019TIP3    H139472   1.546   4.070  15.600  0.5309  2.0559 -2.7036
 6019TIP3    H239473   1.435   3.989  15.534  0.4498  1.3307 -1.7058
 6020TIP3   OH239474   2.819   0.925  12.866  0.1699 -0.0198  0.1129
 6020TIP3    H139475   2.812   1.001  12.808 -0.1003 -1.3916 -1.7407
 6020TIP3    H239476   2.882   0.868  12.822 -1.6389 -2.0428  0.0391
 6021TIP3   OH239477   5.536   3.046   4.158  1.4742  0.2899  0.3734
 6021TIP3    H139478   5.570   3.028   4.071 -2.7480 -1.9500 -1.0965
 6021TIP3    H239479   5.468   3.112   4.144  1.6796  0.9769  2.2707
 6022TIP3   OH239480   1.034   0.418   3.359 -0.2467  0.0032  0.7223
 6022TIP3    H139481   1.036   0.328   3.324  0.1275  1.2385 -2.8279
 6022TIP3    H239482   1.095   0.466   3.303 -1.4626  2.7798  1.6491
 6023TIP3   OH239483   3.723   6.022   0.209  0.2697 -0.0711 -0.0041
 6023TIP3    H139484   3.657   6.048   0.274 -1.6975 -0.2023 -1.8094
 6023TIP3    H239485   3.794   6.086   0.220 -0.3371  0.3638  1.7300
 6024TIP3   OH239486   6.155   4.785   1.377 -0.4746  0.1839 -0.0082
 6024TIP3    H139487   6.242   4.824   1.367  0.1329 -1.3326 -1.0732
 6024TIP3    H239488   6.097   4.845   1.331  0.3266  0.2047 -1.0356
 6025TIP3   OH239489   3.787   6.623   0.291  0.7849 -0.0491 -0.2493
 6025TIP3    H139490   3.869   6.584   0.320  0.3210 -0.5553  0.4287
 6025TIP3    H239491   3.719   6.565   0.327  0.1392  0.2574 -0.9433
 6026TIP3   OH239492   3.478   3.398  15.238  0.6122  0.2251  0.7423
 6026TIP3    H139493   3.389   3.406  15.202 -0.1518  2.4416  2.8728
 6026TIP3    H239494   3.484   3.306  15.265  0.4806 -1.0028 -2.8100
 6027TIP3   OH239495   4.708   5.444   4.674  0.0361 -0.5429 -0.3218
 6027TIP3    H139496   4.685   5.475   4.586  0.5561  0.2321 -0.2003
 6027TIP3    H239497   4.637   5.385   4.698  0.3290 -1.4663 -1.6111
 6028TIP3   OH239498   6.668   1.267   0.854  0.1331  0.6091 -0.1120
 6028TIP3    H139499   6.749   1.290   0.808  0.7934 -0.6945  0.3270
 6028TIP3    H239500   6.651   1.177   0.828  0.0003  0.1650  1.4275
 6029TIP3   OH239501   5.037   3.900   3.891  0.3153  0.5474 -0.0632
 6029TIP3    H139502   5.069   3.982   3.927  0.5139  0.7035 -0.5806
 6029TIP3    H239503   5.027   3.842   3.967  0.5407  0.9260  0.2575
 6030TIP3   OH239504   0.591   2.353  16.129 -0.0190  0.6811 -0.4336
 6030TIP3    H139505   0.498   2.331  16.126  0.7034 -2.8762 -0.6275
 6030TIP3    H239506   0.608   2.371  16.221 -0.5443 -0.5384 -0.0832
 6031TIP3   OH239507   3.448   1.688  16.060 -0.7773 -0.5262 -0.0299
 6031TIP3    H139508   3.490   1.620  16.113 -0.1151 -1.0336 -1.1597
 6031TIP3    H239509   3.444   1.651  15.972 -1.3666  0.4983 -0.4553
 6032TIP3   OH239510   1.663   2.293   6.220  0.0064 -0.3582  0.3514
 6032TIP3    H139511   1.667   2.241   6.300 -2.3164  2.8016  2.7693
 6032TIP3    H239512   1.745   2.344   6.220 -0.4452  0.3920  1.3467
 6033TIP3   OH239513   4.359   4.051   1.308  0.3185  0.1520 -0.3781
 6033TIP3    H139514   4.348   3.968   1.262  1.6004 -0.5542  0.5286
 6033TIP3    H239515   4.452   4.073   1.297  0.0411  1.3557 -0.4305
 6034TIP3   OH239516   4.094   2.746  11.574 -0.6263 -0.1065  0.2342
 6034TIP3    H139517   4.132   2.729  11.488  0.6026  0.2388  0.6891
 6034TIP3    H239518   4.170   2.749  11.633 -1.2952  1.3411  1.0563
 6035TIP3   OH239519   5.102   4.286   1.902  0.4494 -0.3813 -0.1323
 6035TIP3    H139520   5.159   4.308   1.828 -2.6052  1.5550 -2.1380
 6035TIP3    H239521   5.111   4.360   1.962 -0.7433  0.5746 -1.0602
 6036TIP3   OH239522   2.176   3.148  12.823 -0.2222 -0.0898 -0.4892
 6036TIP3    H139523   2.140   3.114  12.905 -0.2390 -1.0270 -0.8757
 6036TIP3    H239524   2.120   3.111  12.755 -1.8780  2.7773 -0.8505
 6037TIP3   OH239525   1.758   2.784   5.561 -0.3587 -0.4859  0.0257
 6037TIP3    H139526   1.714   2.723   5.620  1.7848 -0.8264  1.4007
 6037TIP3    H239527   1.789   2.854   5.618 -0.2456  0.3770 -1.0772
 6038TIP3   OH239528   3.655   1.018   3.238 -0.3613  0.0981  0.3058
 6038TIP3    H139529   3.657   1.081   3.165 -0.0210  0.1492  0.3587
 6038TIP3    H239530   3.709   0.945   3.207  0.0055  0.2394  0.6192
 6039TIP3   OH239531   4.166   5.566   3.412 -0.5381  0.3980 -0.3773
 6039TIP3    H139532   4.086   5.617   3.422 -0.9315 -0.5029  1.2507
 6039TIP3    H239533   4.137   5.482   3.374 -0.1209  0.6772 -1.3644
 6040TIP3   OH239534   3.446   0.362  15.927  0.2012  0.4311 -0.4982
 6040TIP3    H139535   3.536   0.331  15.922  0.2322  0.6560 -1.4719
 6040TIP3    H239536   3.421   0.346  16.018  1.8035  2.0109  0.2791
 6041TIP3   OH239537   3.587   5.741  11.567 -0.2984 -0.1070 -0.1848
 6041TIP3    H139538   3.626   5.687  11.499  1.0730  0.4979  0.0837
 6041TIP3    H239539   3.660   5.764  11.625 -0.6091  2.7156 -0.7661
 6042TIP3   OH239540   4.544   3.364  13.537  0.6055 -0.3043  0.3296
 6042TIP3    H139541   4.563   3.286  13.485  0.6400  0.0428 -0.1886
 6042TIP3    H239542   4.583   3.346  13.623  1.8991 -0.2743 -0.2177
 6043TIP3   OH239543   0.075   3.529  16.881 -0.2912  0.2256 -0.0169
 6043TIP3    H139544  -0.007   3.486  16.854  0.2777 -1.0468  0.2047
 6043TIP3    H239545   0.059   3.622  16.867 -2.0746  0.0889  0.7976
 6044TIP3   OH239546   6.648   6.295   2.407  0.1487 -0.4143 -0.4372
 6044TIP3    H139547   6.557   6.318   2.387 -0.0408 -1.0460 -0.3049
 6044TIP3    H239548   6.700   6.348   2.347 -0.3118 -0.2068 -0.6565
 6045TIP3   OH239549   0.074   1.897  10.606 -0.1205 -0.6453  0.6267
 6045TIP3    H139550   0.025   1.960  10.555 -1.4720 -1.4720  0.8585
 6045TIP3    H239551   0.146   1.947  10.644 -1.0698  0.6986  0.6874
 6046TIP3   OH239552   5.146   1.232   3.497  0.2403  0.0889  0.0572
 6046TIP3    H139553   5.207   1.293   3.455  1.0219 -0.1571  0.8137
 6046TIP3    H239554   5.149   1.255   3.590  1.9769 -2.2648  0.6797
 6047TIP3   OH239555   0.044   0.440  11.530 -0.3602  0.1773 -0.0292
 6047TIP3    H139556   0.042   0.536  11.532  1.2010  0.2377  0.0580
 6047TIP3    H239557   0.122   0.417  11.580 -0.2472 -1.1098 -0.7697
 6048TIP3   OH239558   0.619   3.649   5.097  0.2927 -0.0058  0.1590
 6048TIP3    H139559   0.560   3.621   5.168 -1.0757  0.1388 -0.8950
 6048TIP3    H239560   0.604   3.743   5.089  0.5003 -0.0090 -0.2797
 6049TIP3   OH239561   2.646   1.951   1.576  0.1707  0.1137 -0.3882
 6049TIP3    H139562   2.686   2.005   1.644  0.6644 -1.1168  0.3479
 6049TIP3    H239563   2.707   1.956   1.502  0.1638  0.6332 -0.3591
 6050TIP3   OH239564   3.957   1.618  13.229 -0.7009  0.3301 -0.0828
 6050TIP3    H139565   3.903   1.592  13.154 -0.1845  2.5772 -1.3282
 6050TIP3    H239566   4.047   1.602  13.201 -0.5753 -0.9003  0.9555
 6051TIP3   OH239567   4.536   3.545   4.520 -0.3627  0.2898  0.3204
 6051TIP3    H139568   4.545   3.577   4.609  0.1733  0.6086  0.1557
 6051TIP3    H239569   4.523   3.625   4.467 -0.2374  0.1363  0.0579
 6052TIP3   OH239570   1.153   6.748   2.241 -0.5730  0.1878 -0.0367
 6052TIP3    H139571   1.108   6.752   2.326 -0.7893  1.1177 -0.1838
 6052TIP3    H239572   1.237   6.792   2.257  0.2775 -1.4548  0.2127
 6053TIP3   OH239573   6.685   0.842   2.475  0.0219  0.9704  0.9015
 6053TIP3    H139574   6.668   0.934   2.496 -0.8487  0.8377  0.8344
 6053TIP3    H239575   6.616   0.820   2.412 -0.5643 -0.0726  1.8764
 6054TIP3   OH239576   0.828   1.516   5.589 -0.1964  0.2447 -0.1395
 6054TIP3    H139577   0.913   1.552   5.615 -0.7572  0.5695  1.3758
 6054TIP3    H239578   0.846   1.465   5.511  1.8902 -1.8181  1.5550
 6055TIP3   OH239579   4.050   2.954   4.252 -0.0851 -0.2540 -0.3891
 6055TIP3    H139580   4.037   2.962   4.158 -0.8735 -1.0453 -0.3622
 6055TIP3    H239581   3.962   2.965   4.289 -0.2254 -2.5050  0.0621
 6056TIP3   OH239582   3.730   6.355  14.763  0.0757 -0.3096  0.5008
 6056TIP3    H139583   3.758   6.380  14.851  1.4037  1.5981 -0.3965
 6056TIP3    H239584   3.702   6.437  14.722 -1.0373 -1.2383 -0.6857
 6057TIP3   OH239585   4.635   2.349  12.150  0.2788 -0.1571  0.0792
 6057TIP3    H139586   4.690   2.392  12.084  0.6404 -0.4691  0.1735
 6057TIP3    H239587   4.565   2.309  12.100  0.5980 -0.4646 -0.1268
 6058TIP3   OH239588   2.135   1.203  15.641  0.0439  0.1068  0.3520
 6058TIP3    H139589   2.124   1.121  15.689 -1.1660  0.4660  0.7382
 6058TIP3    H239590   2.053   1.250  15.655 -0.0370  0.5813 -1.4064
 6059TIP3   OH239591   6.704   0.688  13.907 -0.0203 -0.4155  0.7539
 6059TIP3    H139592   6.624   0.717  13.950 -0.5340 -1.0497  0.2594
 6059TIP3    H239593   6.735   0.614  13.959 -0.7590 -1.3198 -0.0444
 6060TIP3   OH239594   6.777   6.766  15.307  0.0331 -0.6663 -0.1996
 6060TIP3    H139595   6.837   6.840  15.298 -1.3953  0.4005 -1.7557
 6060TIP3    H239596   6.745   6.751  15.218 -1.9368 -1.2114  0.5419
 6061TIP3   OH239597   5.196   2.972  17.131 -0.0269 -0.1629  0.4128
 6061TIP3    H139598   5.121   2.985  17.072  1.3052 -0.1494 -1.3432
 6061TIP3    H239599   5.165   3.006  17.215 -2.0714 -0.3674 -0.1916
 6062TIP3   OH239600   1.256   1.070   1.666 -0.0794 -0.0077 -0.4516
 6062TIP3    H139601   1.271   1.062   1.572  0.4461  0.9828 -0.4624
 6062TIP3    H239602   1.330   1.123   1.697 -0.9114  0.7282  0.3163
 6063TIP3   OH239603   0.620   4.435  16.701  0.3926 -0.2429  0.3491
 6063TIP3    H139604   0.629   4.350  16.744  1.2850 -0.3166  0.0381
 6063TIP3    H239605   0.632   4.416  16.608  0.6967  0.2420  0.2883
 6064TIP3   OH239606   0.117   0.417  16.462  0.1462  0.5034  0.8883
 6064TIP3    H139607   0.087   0.502  16.493  1.1684  0.6945  1.4151
 6064TIP3    H239608   0.195   0.398  16.516  0.1024 -0.6254  0.5839
 6065TIP3   OH239609   1.681   4.781   6.694  0.2136  0.8909 -0.2508
 6065TIP3    H139610   1.585   4.783   6.690  0.1283  1.8338  1.3345
 6065TIP3    H239611   1.705   4.703   6.644 -1.4475 -0.0041  0.2380
 6066TIP3   OH239612   2.396   2.887   1.564 -0.1687 -0.3004  0.6134
 6066TIP3    H139613   2.356   2.846   1.487 -1.7748  1.0024  0.7053
 6066TIP3    H239614   2.388   2.821   1.633 -1.4964 -0.3740  0.4207
 6067TIP3   OH239615   3.109   3.476  14.140  0.6209  0.0030  0.1422
 6067TIP3    H139616   3.024   3.439  14.162  0.6949 -0.6624 -0.6676
 6067TIP3    H239617   3.151   3.491  14.225 -0.3048  0.3749  0.5516
 6068TIP3   OH239618   5.391   5.023  15.971  0.6739  0.5429  0.1333
 6068TIP3    H139619   5.432   5.073  16.042  0.8155  1.6174 -0.6775
 6068TIP3    H239620   5.366   5.089  15.906 -2.5936 -0.0084  0.6617
 6069TIP3   OH239621   5.099   6.029   2.783 -0.3165  0.2701 -0.6944
 6069TIP3    H139622   5.038   6.014   2.711  0.2957 -0.7059 -1.0383
 6069TIP3    H239623   5.165   5.960   2.773 -0.2147  0.1185  0.7903
 6070TIP3   OH239624   5.703   2.037   4.125 -0.4962  0.1717 -0.5151
 6070TIP3    H139625   5.797   2.021   4.121  0.2921  3.8238 -0.1015
 6070TIP3    H239626   5.682   2.080   4.043 -1.5086  0.6627 -0.0147
 6071TIP3   OH239627   2.497   0.947   3.254  0.2450  0.5516 -0.2867
 6071TIP3    H139628   2.455   0.981   3.174  0.0924 -2.1024 -1.4441
 6071TIP3    H239629   2.425   0.910   3.305  0.7874 -1.7036 -1.0624
 6072TIP3   OH239630   5.084   3.005  12.095  0.1891 -0.0182 -0.1796
 6072TIP3    H139631   5.142   3.013  12.019 -1.0655 -1.3860 -1.3642
 6072TIP3    H239632   5.042   2.920  12.083 -1.7446  0.7430  0.8253
 6073TIP3   OH239633   0.721   4.004   0.921  0.3514  0.7483 -0.1043
 6073TIP3    H139634   0.681   3.920   0.900 -1.2603  1.1350  1.2610
 6073TIP3    H239635   0.790   3.983   0.984  0.2350  0.3998 -0.0920
 6074TIP3   OH239636   0.247   2.304   5.277  0.2255  0.3530  0.3830
 6074TIP3    H139637   0.218   2.224   5.323  1.6319 -0.5911 -0.3086
 6074TIP3    H239638   0.247   2.279   5.185 -0.8697  1.6884 -0.0043
 6075TIP3   OH239639   5.013   4.305   0.341 -0.4178  0.0895 -0.2907
 6075TIP3    H139640   5.058   4.384   0.372  0.2555 -0.9520  1.5402
 6075TIP3    H239641   5.083   4.242   0.325 -1.0459 -0.6265 -0.2594
 6076TIP3   OH239642   5.768   4.645  11.569  0.0419 -0.5540 -0.3833
 6076TIP3    H139643   5.693   4.662  11.625  0.1077 -0.3225 -0.3661
 6076TIP3    H239644   5.742   4.678  11.483  1.1530  2.0891  0.2257
 6077TIP3   OH239645   0.583   4.724   3.303  0.3779 -0.4592 -0.4415
 6077TIP3    H139646   0.613   4.656   3.362 -0.7231  0.4443  1.2473
 6077TIP3    H239647   0.644   4.797   3.317 -0.2142 -0.0422  0.0373
 6078TIP3   OH239648   5.173   3.467   3.840 -0.1521  0.0255  0.2639
 6078TIP3    H139649   5.119   3.492   3.765 -0.7455 -1.2042  0.2494
 6078TIP3    H239650   5.113   3.422   3.899  0.9055 -1.7552  0.0607
 6079TIP3   OH239651   4.531   4.553  12.221 -0.2641  0.7212  0.4563
 6079TIP3    H139652   4.592   4.624  12.243 -0.5498  0.7058  1.3184
 6079TIP3    H239653   4.453   4.572  12.272 -0.4637 -0.0425  0.4388
 6080TIP3   OH239654   5.831   4.977   4.633  0.1351  0.4779  0.0787
 6080TIP3    H139655   5.920   4.949   4.653 -0.8848 -2.4228  1.0745
 6080TIP3    H239656   5.817   4.949   4.543  0.3317  1.2891 -0.2114
 6081TIP3   OH239657   6.621   4.794  16.946  0.2599 -0.3126 -0.2894
 6081TIP3    H139658   6.654   4.709  16.918 -0.4901 -1.1623  1.3031
 6081TIP3    H239659   6.667   4.813  17.028 -1.5540 -0.5398  0.8544
 6082TIP3   OH239660   0.882   4.116  17.112  0.5216  0.0553 -0.2749
 6082TIP3    H139661   0.901   4.195  17.062  3.1009  0.3386  0.9805
 6082TIP3    H239662   0.803   4.137  17.162  0.4743  1.3946 -0.8718
 6083TIP3   OH239663   3.283   2.073   3.219 -0.1881  0.0511  0.2441
 6083TIP3    H139664   3.207   2.030   3.180  0.7321  0.0325 -1.6160
 6083TIP3    H239665   3.262   2.078   3.313 -2.1193 -0.6483 -0.1086
 6084TIP3   OH239666   1.382   6.134  13.140 -1.1028 -0.1025  0.5027
 6084TIP3    H139667   1.462   6.111  13.187 -1.1333 -0.1277  0.5427
 6084TIP3    H239668   1.411   6.158  13.052 -1.0092  0.2650  0.6325
 6085TIP3   OH239669   6.704   1.981  16.826  0.0060 -0.2855  0.0555
 6085TIP3    H139670   6.634   1.954  16.886  1.1529 -1.7227  0.8060
 6085TIP3    H239671   6.780   1.995  16.882  0.4976  0.6853 -0.8152
 6086TIP3   OH239672   0.638   0.735  16.521 -0.5293 -0.2430  0.2286
 6086TIP3    H139673   0.561   0.792  16.519 -2.1366 -2.3172 -0.8254
 6086TIP3    H239674   0.702   0.780  16.465 -1.7867  0.4771 -0.6903
 6087TIP3   OH239675   6.667   6.459  11.454  0.2857  0.0099 -0.6379
 6087TIP3    H139676   6.629   6.419  11.532 -1.6198  2.8263  0.0349
 6087TIP3    H239677   6.641   6.401  11.382 -0.7492 -0.9297  0.4457
 6088TIP3   OH239678   2.447   2.840   4.153  0.0441  0.9000  0.2812
 6088TIP3    H139679   2.492   2.755   4.146  0.5456  0.8555  2.9250
 6088TIP3    H239680   2.502   2.900   4.102 -0.3223 -0.3090 -1.6455
 6089TIP3   OH239681   4.293   3.117   2.882  0.0279 -0.1868 -0.4663
 6089TIP3    H139682   4.381   3.082   2.895  0.5248  1.2495  0.2780
 6089TIP3    H239683   4.250   3.054   2.824  0.9259 -1.8736  0.6229
 6090TIP3   OH239684   6.480   5.940   3.087  0.3231  0.0260 -0.4619
 6090TIP3    H139685   6.551   5.926   3.149  0.5927  0.8599 -0.5645
 6090TIP3    H239686   6.494   6.029   3.055  0.2440 -0.4178 -1.7889
 6091TIP3   OH239687   4.097   4.228  14.672  0.4404  0.2201  0.1791
 6091TIP3    H139688   4.093   4.143  14.716 -2.6160  0.8671  1.4366
 6091TIP3    H239689   4.138   4.287  14.736 -3.2014  0.9612  2.1115
 6092TIP3   OH239690   2.223   2.691   6.081 -0.4517  0.0445  0.6846
 6092TIP3    H139691   2.247   2.691   6.174 -0.0509  0.7878  0.5916
 6092TIP3    H239692   2.135   2.653   6.079  0.1639 -1.4996  1.1790
 6093TIP3   OH239693   2.901   1.085  13.925  0.5172  0.5312 -0.1227
 6093TIP3    H139694   2.808   1.071  13.906  0.8824 -0.5103 -1.3162
 6093TIP3    H239695   2.902   1.152  13.993 -1.2121 -1.1685  1.7096
 6094TIP3   OH239696   4.612   4.406   5.373 -0.3313  0.2608  0.4662
 6094TIP3    H139697   4.675   4.368   5.434  0.5115  2.1207  0.8500
 6094TIP3    H239698   4.527   4.374   5.402  0.1812  0.0614  1.7957
 6095TIP3   OH239699   2.182   1.561  14.203 -0.4613  0.0018 -0.0256
 6095TIP3    H139700   2.188   1.474  14.242 -0.5336  0.5058  1.1614
 6095TIP3    H239701   2.102   1.598  14.241 -0.1906  0.7518 -0.1734
 6096TIP3   OH239702   5.138   5.317   2.372  0.7980  0.6587 -0.0262
 6096TIP3    H139703   5.134   5.296   2.279  1.5682 -0.0960  0.0955
 6096TIP3    H239704   5.195   5.393   2.377  1.1665  0.3947 -0.1367
 6097TIP3   OH239705   1.324   3.260   0.058 -0.3531 -0.5386 -0.1209
 6097TIP3    H139706   1.415   3.279   0.035  0.4645 -0.7189  2.6144
 6097TIP3    H239707   1.272   3.318   0.003  1.3621 -0.6737 -1.9984
 6098TIP3   OH239708   4.019   1.565   1.600  0.8188 -0.4007 -0.3420
 6098TIP3    H139709   4.068   1.645   1.578  2.6120 -1.3012  0.1703
 6098TIP3    H239710   4.056   1.498   1.543  0.8339 -1.2996  0.6964
 6099TIP3   OH239711   5.768   3.658   5.100  0.0124  0.9100 -0.2564
 6099TIP3    H139712   5.845   3.602   5.103 -1.7646 -2.0676 -2.8703
 6099TIP3    H239713   5.777   3.707   5.019 -1.1693 -0.2341 -1.1433
 6100TIP3   OH239714   4.752   1.493  15.816 -0.0220  0.0716  0.0406
 6100TIP3    H139715   4.838   1.501  15.777 -0.6974 -1.9752 -2.1022
 6100TIP3    H239716   4.762   1.424  15.882 -0.3801 -1.7162 -1.6784
 6101TIP3   OH239717   4.163   0.107  12.559 -0.0650  0.4181  0.3322
 6101TIP3    H139718   4.125   0.178  12.506 -3.7099 -0.7029  1.1947
 6101TIP3    H239719   4.127   0.027  12.521 -0.0912 -0.6233  2.4343
 6102TIP3   OH239720   2.386   3.805   2.553  0.0096 -0.3244 -0.0039
 6102TIP3    H139721   2.318   3.764   2.608 -0.9562  2.1975  0.8461
 6102TIP3    H239722   2.366   3.899   2.558  1.5485  0.2083 -2.5381
 6103TIP3   OH239723   4.076   6.267  14.639  0.1391 -0.1063  0.1050
 6103TIP3    H139724   4.146   6.263  14.575 -1.0315 -0.5614 -1.2081
 6103TIP3    H239725   3.996   6.268  14.586 -0.8468  0.2058  1.5496
 6104TIP3   OH239726   5.532   3.561  15.459  0.3102  0.4031 -0.0563
 6104TIP3    H139727   5.619   3.527  15.437  0.1486  0.0074 -0.1028
 6104TIP3    H239728   5.549   3.639  15.511  0.7172 -0.3318  0.9639
 6105TIP3   OH239729   0.159   3.161  11.734 -0.9801  0.0232  0.2379
 6105TIP3    H139730   0.145   3.250  11.767 -1.5188 -0.3403  0.9953
 6105TIP3    H239731   0.241   3.167  11.684 -1.7452  1.2628 -0.9158
 6106TIP3   OH239732   3.293   5.326  12.012 -0.4087  0.3933  0.3160
 6106TIP3    H139733   3.311   5.365  11.926 -1.1863  0.1853  0.0454
 6106TIP3    H239734   3.239   5.392  12.056 -1.5067 -0.2433 -0.0427
 6107TIP3   OH239735   1.017   4.562  10.669 -0.3460 -0.0164  0.5009
 6107TIP3    H139736   1.058   4.547  10.584  0.2377  0.1323  0.7534
 6107TIP3    H239737   0.956   4.635  10.654 -1.4883 -1.0688 -0.1815
 6108TIP3   OH239738   3.002   1.191   0.838  0.4634 -0.2984  0.4297
 6108TIP3    H139739   2.919   1.238   0.840  1.6109  1.8469  0.0692
 6108TIP3    H239740   3.022   1.181   0.745  1.0367 -0.0207  0.5209
 6109TIP3   OH239741   2.270   1.851   5.372  0.1278  0.2315  0.5606
 6109TIP3    H139742   2.200   1.852   5.438 -1.2654  0.8480 -0.8600
 6109TIP3    H239743   2.228   1.881   5.292  1.7461 -0.5954 -0.6631
 6110TIP3   OH239744   5.501   5.309  14.621  0.1697  0.3150 -0.4298
 6110TIP3    H139745   5.506   5.303  14.717  0.5791  3.0606 -0.2090
 6110TIP3    H239746   5.559   5.239  14.591  2.1274  1.0178  1.4227
 6111TIP3   OH239747   6.652   3.427   1.386  0.1393  0.2481 -0.5980
 6111TIP3    H139748   6.657   3.342   1.430  2.0541  0.3604 -0.5389
 6111TIP3    H239749   6.623   3.487   1.454  1.9230  0.1980  0.2609
 6112TIP3   OH239750   0.249   3.433  14.514 -0.1373  0.2559  0.1141
 6112TIP3    H139751   0.166   3.478  14.528 -0.1352  0.2059  0.2879
 6112TIP3    H239752   0.249   3.411  14.421 -0.0569  0.7807 -0.0135
 6113TIP3   OH239753   4.219   1.106   4.610  0.5677  0.2476  0.0544
 6113TIP3    H139754   4.209   1.046   4.684 -1.4004  0.7391  0.2231
 6113TIP3    H239755   4.195   1.192   4.646 -0.2717  0.5140 -1.1073
 6114TIP3   OH239756   3.996   1.955   0.942 -0.2789  0.2320 -0.1732
 6114TIP3    H139757   4.017   2.025   0.881  1.3398  0.3988  0.5237
 6114TIP3    H239758   3.919   1.986   0.989 -1.5562  0.0936 -2.0829
 6115TIP3   OH239759   6.421   5.237   4.722 -0.1956 -0.2848  0.1340
 6115TIP3    H139760   6.430   5.311   4.662  0.5031  0.7796  1.4994
 6115TIP3    H239761   6.511   5.213   4.744 -0.3835 -1.9639 -0.7424
 6116TIP3   OH239762   1.206   6.017   1.912 -0.4070  0.4012 -0.3385
 6116TIP3    H139763   1.194   5.922   1.904  1.9084  0.0842 -0.7761
 6116TIP3    H239764   1.199   6.034   2.006  0.0077 -0.3770 -0.1563
 6117TIP3   OH239765   0.328   6.374  16.487 -0.7396 -0.1417  0.1797
 6117TIP3    H139766   0.335   6.296  16.542  1.3223 -0.1922 -0.0731
 6117TIP3    H239767   0.281   6.344  16.409  0.3244 -1.2591 -0.0683
 6118TIP3   OH239768   4.932   3.771  11.568  0.2737 -0.3752 -0.4236
 6118TIP3    H139769   4.915   3.749  11.659 -1.7302 -1.5613 -1.0205
 6118TIP3    H239770   4.854   3.743  11.521  0.4396  1.9169 -2.2784
 6119TIP3   OH239771   6.306   2.497  14.436  0.0012 -0.1129  0.4327
 6119TIP3    H139772   6.276   2.537  14.354 -0.3696 -2.0820 -0.4749
 6119TIP3    H239773   6.225   2.473  14.481  0.1992  1.3405  1.6281
 6120TIP3   OH239774   2.289   0.961  16.768  0.2451  0.0256 -0.1282
 6120TIP3    H139775   2.312   0.986  16.857 -0.1613  0.9948 -0.2906
 6120TIP3    H239776   2.295   1.042  16.718 -2.3560  0.1066 -0.4281
 6121TIP3   OH239777   6.460   5.742   4.574  0.8198 -0.3876 -0.1892
 6121TIP3    H139778   6.419   5.828   4.582  0.6389 -0.1886 -2.6524
 6121TIP3    H239779   6.496   5.740   4.486  2.6737 -2.0749  0.5360
 6122TIP3   OH239780   4.827   0.214   2.213  0.3297  0.2046  0.6747
 6122TIP3    H139781   4.839   0.193   2.306 -0.8560 -2.1077  0.3907
 6122TIP3    H239782   4.745   0.262   2.210  0.0554 -0.2430  0.7930
 6123TIP3   OH239783   3.261   1.477   0.339  0.4705  0.2609  0.4237
 6123TIP3    H139784   3.176   1.521   0.341  0.9390  1.2293 -0.2261
 6123TIP3    H239785   3.295   1.486   0.428  0.4169  0.9405  0.3802
 6124TIP3   OH239786   1.324   6.681   5.174 -0.2600 -0.2595 -0.0391
 6124TIP3    H139787   1.386   6.745   5.140 -0.1882 -1.0392 -1.4332
 6124TIP3    H239788   1.361   6.596   5.148 -0.1799 -0.9198  2.0250
 6125TIP3   OH239789   4.469   1.106  10.800  0.0183 -0.0217 -0.0682
 6125TIP3    H139790   4.532   1.079  10.733  1.0082  0.1465  0.7812
 6125TIP3    H239791   4.397   1.146  10.750  0.1779 -0.9778 -1.0976
 6126TIP3   OH239792   5.232   1.431   2.957  0.0256  0.5066 -0.0905
 6126TIP3    H139793   5.171   1.418   3.029  0.6898 -0.1892  0.3602
 6126TIP3    H239794   5.194   1.383   2.884  0.1564 -0.1423  0.2614
 6127TIP3   OH239795   3.316   5.723  11.686  0.3884 -0.3606 -0.1939
 6127TIP3    H139796   3.406   5.722  11.654  0.4857  0.9516 -0.0157
 6127TIP3    H239797   3.298   5.816  11.704 -0.6939 -0.7055  0.6131
 6128TIP3   OH239798   5.668   0.903  15.025  0.1751  0.0347  0.2964
 6128TIP3    H139799   5.649   0.966  15.095  1.4921  1.2319 -0.3908
 6128TIP3    H239800   5.693   0.823  15.072 -0.7704  0.2215  1.1770
 6129TIP3   OH239801   2.881   1.272   0.391  0.3175  0.5881 -0.3620
 6129TIP3    H139802   2.799   1.321   0.401  0.6497  1.3298 -1.1178
 6129TIP3    H239803   2.900   1.275   0.297 -1.3999 -3.9479 -1.1052
 6130TIP3   OH239804   0.773   6.025   5.196 -0.3207  0.1274 -0.0867
 6130TIP3    H139805   0.790   6.116   5.220 -0.0140 -0.2171  1.0905
 6130TIP3    H239806   0.684   6.008   5.226 -0.6246  0.2244 -0.9118
 6131TIP3   OH239807   1.184   6.017   5.759  0.4964 -0.1153  0.1742
 6131TIP3    H139808   1.152   5.996   5.672  1.4240 -0.1110 -0.1858
 6131TIP3    H239809   1.217   6.107   5.751  2.6705 -0.8830 -0.1150
 6132TIP3   OH239810   5.266   4.734   1.883  0.0266  0.2791  0.1254
 6132TIP3    H139811   5.239   4.824   1.901  0.9756  0.6266 -0.1107
 6132TIP3    H239812   5.223   4.682   1.951 -2.3553  0.5823 -1.0293
 6133TIP3   OH239813   1.535   1.394   3.816  0.1933  0.2121  0.0859
 6133TIP3    H139814   1.495   1.393   3.903  0.9423  1.4063  0.4674
 6133TIP3    H239815   1.461   1.400   3.756 -0.3282 -0.5577  0.6322
 6134TIP3   OH239816   3.963   4.686   0.080 -0.1693  0.1771  0.0133
 6134TIP3    H139817   4.011   4.694  -0.002  1.1571  0.8015  0.8122
 6134TIP3    H239818   3.896   4.755   0.075 -2.2795 -1.8417 -1.8719
 6135TIP3   OH239819   2.393   5.175  11.524  0.1399 -0.4163 -0.0161
 6135TIP3    H139820   2.310   5.128  11.519 -1.2160  1.8194 -0.2093
 6135TIP3    H239821   2.403   5.197  11.617  0.5289 -0.7097  0.0117
 6136TIP3   OH239822   2.900   1.942  12.593  0.0011  0.0777  0.5894
 6136TIP3    H139823   2.905   1.881  12.666 -0.2567  1.2846  1.6377
 6136TIP3    H239824   2.856   1.893  12.524  1.2648 -1.4656  0.8157
 6137TIP3   OH239825   6.605   5.042   4.299 -0.0633  0.2289  0.4003
 6137TIP3    H139826   6.662   5.094   4.243 -0.5354 -0.5528 -0.8531
 6137TIP3    H239827   6.544   5.105   4.338 -0.0317  0.7366 -0.3567
 6138TIP3   OH239828   0.472   4.844   5.028 -0.4762 -0.5594 -0.6750
 6138TIP3    H139829   0.392   4.843   5.081  0.8472  1.0133  1.5326
 6138TIP3    H239830   0.491   4.751   5.013 -1.1469 -1.0903  1.3386
 6139TIP3   OH239831   6.679   4.646  13.093  0.4345 -0.7691  0.0007
 6139TIP3    H139832   6.761   4.692  13.076  0.9510 -1.2674  1.0437
 6139TIP3    H239833   6.706   4.558  13.120 -0.4686 -1.1221 -0.2296
 6140TIP3   OH239834   5.196   0.482   2.468  0.3356  0.1381 -0.2734
 6140TIP3    H139835   5.202   0.513   2.559  1.5509  0.8457 -0.5742
 6140TIP3    H239836   5.230   0.392   2.471  0.2802  0.1257 -0.0135
 6141TIP3   OH239837   4.224   2.967  12.527  0.4597  0.5554 -0.3774
 6141TIP3    H139838   4.282   2.963  12.451  1.6698  1.4411  0.4563
 6141TIP3    H239839   4.280   2.999  12.598 -0.3994 -1.0564  1.1173
 6142TIP3   OH239840   0.283   2.653  10.474 -0.1247  0.7359  0.0029
 6142TIP3    H139841   0.254   2.590  10.540 -0.3815  1.3437  0.4828
 6142TIP3    H239842   0.322   2.599  10.405 -0.7605  0.0281  0.1854
 6143TIP3   OH239843   4.304   3.282  11.651  0.1623 -0.4323  0.0604
 6143TIP3    H139844   4.318   3.347  11.582  2.5464 -1.5366 -0.5939
 6143TIP3    H239845   4.282   3.201  11.605 -0.0320 -0.7579  0.7071
 6144TIP3   OH239846   4.096   4.217  15.959 -0.0004 -0.0169  0.2715
 6144TIP3    H139847   4.159   4.216  15.887 -1.2117 -0.4889 -0.8381
 6144TIP3    H239848   4.149   4.224  16.038  1.4966 -1.5484 -0.5339
 6145TIP3   OH239849   1.320   3.241  14.505 -0.8117  0.0398 -0.1935
 6145TIP3    H139850   1.371   3.322  14.520 -1.4435  0.3555  0.2842
 6145TIP3    H239851   1.359   3.177  14.564  0.8680 -0.5445 -1.8439
 6146TIP3   OH239852   3.858   2.251   5.695  0.3244  0.3327 -0.2315
 6146TIP3    H139853   3.936   2.274   5.645  1.8037  0.1068  1.8106
 6146TIP3    H239854   3.823   2.336   5.724  0.6461  0.3847  0.0142
 6147TIP3   OH239855   2.030   5.033   1.389 -0.0454  0.3575 -0.2899
 6147TIP3    H139856   1.957   4.974   1.405  1.1765 -0.9827  0.6201
 6147TIP3    H239857   1.990   5.115   1.361 -1.9031 -0.1571  0.7342
 6148TIP3   OH239858   3.227   2.017   3.473 -0.5733  0.4359  0.1918
 6148TIP3    H139859   3.141   2.011   3.431 -0.2589 -0.2678 -0.3688
 6148TIP3    H239860   3.241   1.931   3.513  0.3912  0.1331 -0.7601
 6149TIP3   OH239861   4.527   2.900  13.242 -0.1763 -0.2422 -0.2842
 6149TIP3    H139862   4.482   2.823  13.277 -2.6348  1.1905 -0.0039
 6149TIP3    H239863   4.573   2.938  13.317  2.7038 -2.3716 -0.8148
 6150TIP3   OH239864   2.443   2.445   2.352 -0.0921  0.2317 -0.0689
 6150TIP3    H139865   2.446   2.526   2.301 -1.4990  0.4541  0.1592
 6150TIP3    H239866   2.350   2.421   2.354  0.1764 -0.8312  0.7374
 6151TIP3   OH239867   6.634   1.943   4.476 -0.2200  0.3400  0.4559
 6151TIP3    H139868   6.625   1.869   4.417  0.2203  1.2829 -0.8521
 6151TIP3    H239869   6.632   1.905   4.564  1.4276 -1.3696 -0.1897
 6152TIP3   OH239870   2.410   4.650  11.310 -0.2456 -0.5858  0.1063
 6152TIP3    H139871   2.486   4.674  11.258 -0.2309 -0.9741 -0.0537
 6152TIP3    H239872   2.338   4.645  11.248  0.1669 -3.1565 -0.3108
 6153TIP3   OH239873   2.705   6.627  12.000 -0.4648  0.0952 -0.3618
 6153TIP3    H139874   2.666   6.676  11.927  0.6842  0.8601 -0.4935
 6153TIP3    H239875   2.632   6.613  12.061 -1.3616 -0.2494 -1.4879
 6154TIP3   OH239876   5.764   4.229   1.326 -0.2186  0.2238 -0.2966
 6154TIP3    H139877   5.698   4.169   1.363 -1.0063 -0.2898 -2.3905
 6154TIP3    H239878   5.731   4.316   1.347 -0.5844 -0.0514  0.3030
 6155TIP3   OH239879   6.410   0.439   2.367 -0.9510  0.3512  0.0219
 6155TIP3    H139880   6.436   0.523   2.404 -2.1710 -0.0750  1.9756
 6155TIP3    H239881   6.316   0.447   2.352 -0.6854  0.1110 -2.0309
 6156TIP3   OH239882   4.975   4.291  12.789  0.3107  0.0443  0.2254
 6156TIP3    H139883   4.956   4.205  12.827  0.9908  0.2220  0.9868
 6156TIP3    H239884   4.904   4.305  12.726 -1.3830  0.0995  2.0180
 6157TIP3   OH239885   1.826   0.593  16.230 -0.2342  0.0305 -0.4266
 6157TIP3    H139886   1.907   0.553  16.259  0.3235  1.3417 -0.0822
 6157TIP3    H239887   1.806   0.550  16.147  0.4329 -0.7964 -0.1636
 6158TIP3   OH239888   5.953   3.378   4.262  0.5416  0.1208  0.1737
 6158TIP3    H139889   5.959   3.423   4.178 -1.2414 -0.3067 -0.2287
 6158TIP3    H239890   5.971   3.445   4.327  1.4300  0.5751 -0.5118
 6159TIP3   OH239891   5.600   3.998   0.946 -0.1632  0.2227  0.0579
 6159TIP3    H139892   5.635   4.023   1.032  0.6391  1.0271 -0.4851
 6159TIP3    H239893   5.591   3.903   0.951  1.3575  0.0730  0.5016
 6160TIP3   OH239894   2.507   4.874   2.949 -0.6871 -1.4224 -0.0012
 6160TIP3    H139895   2.571   4.929   2.903  0.7853 -1.0644  2.3290
 6160TIP3    H239896   2.550   4.790   2.958 -1.5875 -1.9623 -0.5577
 6161TIP3   OH239897   2.288   0.430  13.310  0.7490  0.4165 -0.7370
 6161TIP3    H139898   2.365   0.393  13.266  1.3431  1.3036 -0.4662
 6161TIP3    H239899   2.248   0.355  13.354  1.1827 -0.1457 -1.2753
 6162TIP3   OH239900   3.815   0.078  17.182  0.4571 -0.5790  0.1938
 6162TIP3    H139901   3.822   0.058  17.275  1.4893 -2.8351 -0.3066
 6162TIP3    H239902   3.905   0.071  17.149  0.2240  0.8939 -0.8706
 6163TIP3   OH239903   1.293   3.907  12.222  0.0797  0.2356  0.5533
 6163TIP3    H139904   1.268   3.821  12.187 -0.1134 -0.2217  1.7649
 6163TIP3    H239905   1.377   3.892  12.265  0.9724  1.0832 -0.8255
 6164TIP3   OH239906   2.806   1.975  13.040 -0.3707  0.3650 -0.2319
 6164TIP3    H139907   2.782   1.941  13.126 -0.4697  0.2653 -0.2999
 6164TIP3    H239908   2.859   2.053  13.060 -0.7784  0.6048 -0.0853
 6165TIP3   OH239909   5.720   6.564  15.206 -0.0290 -0.6059  0.0519
 6165TIP3    H139910   5.721   6.628  15.135 -0.7777  0.1577  0.7016
 6165TIP3    H239911   5.682   6.485  15.168 -1.1357  0.0390 -0.2146
 6166TIP3   OH239912   2.903   5.460   2.756  0.2058  0.0870 -0.4682
 6166TIP3    H139913   2.809   5.477   2.754  0.1765 -0.0043 -2.5027
 6166TIP3    H239914   2.910   5.370   2.787 -0.3242  0.2846  0.2618
 6167TIP3   OH239915   5.688   4.424  15.766  0.5507  0.3357  0.2064
 6167TIP3    H139916   5.684   4.472  15.683  2.5197 -0.5946 -0.5001
 6167TIP3    H239917   5.756   4.358  15.752 -0.9777 -1.6651  1.6564
 6168TIP3   OH239918   5.482   3.756   5.711  0.9773 -0.2129 -0.2008
 6168TIP3    H139919   5.514   3.802   5.633  1.5153  0.4841  0.4200
 6168TIP3    H239920   5.435   3.823   5.760  0.6778 -0.6408  0.0997
 6169TIP3   OH239921   0.404   4.784   6.113  0.3147 -0.5821 -0.7692
 6169TIP3    H139922   0.344   4.715   6.140 -0.8396  0.4779 -0.5163
 6169TIP3    H239923   0.360   4.826   6.038  1.4406 -0.7230 -1.5298
 6170TIP3   OH239924   0.396   1.751   2.129 -0.5913  0.1226  0.1233
 6170TIP3    H139925   0.465   1.689   2.106 -0.4322  0.5629 -0.6225
 6170TIP3    H239926   0.355   1.713   2.206  0.8394  0.1206  0.9245
 6171TIP3   OH239927   2.691   2.016   2.273 -0.2681  0.1320  0.2948
 6171TIP3    H139928   2.628   2.086   2.292  0.8460  1.7539 -1.6404
 6171TIP3    H239929   2.644   1.957   2.215 -0.6272  0.2752  0.4342
 6172TIP3   OH239930   2.554   6.152   5.418  0.2532  0.1766  0.1346
 6172TIP3    H139931   2.521   6.095   5.348  0.9324  0.5256 -0.4784
 6172TIP3    H239932   2.481   6.211   5.437 -0.3569 -0.6914  0.5723
 6173TIP3   OH239933   4.360   4.474  15.295 -0.3558  0.0497  0.4496
 6173TIP3    H139934   4.401   4.513  15.373  1.8100 -0.1601 -0.4907
 6173TIP3    H239935   4.360   4.380  15.313  1.7086 -0.1660 -0.4108
 6174TIP3   OH239936   1.707   1.755  12.484  0.1042  0.0699 -0.4976
 6174TIP3    H139937   1.732   1.809  12.560  2.5700 -0.5604 -0.7739
 6174TIP3    H239938   1.724   1.665  12.512 -0.9026 -0.3347 -1.1370
 6175TIP3   OH239939   2.272   2.379  16.535  0.5637  0.2531  0.1201
 6175TIP3    H139940   2.262   2.301  16.589 -1.3798  0.9813  0.9077
 6175TIP3    H239941   2.351   2.422  16.568 -0.6398  0.7642  2.5846
 6176TIP3   OH239942   5.293   2.640   4.370  0.1894 -0.1937 -0.1294
 6176TIP3    H139943   5.322   2.564   4.320  1.4173  0.2643 -0.1612
 6176TIP3    H239944   5.351   2.642   4.446 -1.1917 -0.4706  0.9559
 6177TIP3   OH239945   0.732   0.365   1.614 -0.2188  0.0641  0.0623
 6177TIP3    H139946   0.672   0.311   1.563 -0.5734  0.9593 -0.4822
 6177TIP3    H239947   0.785   0.411   1.549 -0.2229  0.7140  0.5100
 6178TIP3   OH239948   3.952   0.264   6.115  0.0257  0.2141 -0.1418
 6178TIP3    H139949   3.905   0.227   6.040 -0.6764  0.2727  0.2669
 6178TIP3    H239950   3.939   0.359   6.106 -0.0751  0.2194  0.0692
 6179TIP3   OH239951   0.344   3.062   3.477  0.4322  0.3454  0.2687
 6179TIP3    H139952   0.288   2.987   3.498  0.5172 -0.2315 -1.3495
 6179TIP3    H239953   0.393   3.079   3.557  1.2981 -2.1403  0.3715
 6180TIP3   OH239954   3.676   4.908  17.101  0.2969 -0.3171 -0.3977
 6180TIP3    H139955   3.749   4.924  17.041  0.7723 -0.8448  0.0371
 6180TIP3    H239956   3.716   4.898  17.187 -0.2893 -0.5802 -0.1472
 6181TIP3   OH239957   6.488   6.603   0.220  0.1897 -0.7690 -0.3105
 6181TIP3    H139958   6.415   6.637   0.168  0.1590  0.4149  0.4716
 6181TIP3    H239959   6.540   6.680   0.241 -0.1504 -1.0896  1.9728
 6182TIP3   OH239960   6.368   4.923   5.217 -0.2730  0.4212  0.3620
 6182TIP3    H139961   6.332   5.011   5.209 -0.0908  0.5361  0.7749
 6182TIP3    H239962   6.461   4.936   5.236 -0.1781  0.1354  0.1101
 6183TIP3   OH239963   2.272   4.399   2.431  0.0838  0.1091  1.0836
 6183TIP3    H139964   2.279   4.313   2.389  2.2389  0.3784  0.7791
 6183TIP3    H239965   2.329   4.393   2.507  0.0537  1.1843  1.2009
 6184TIP3   OH239966   0.168   1.569   3.118  0.4086  0.0810  0.1880
 6184TIP3    H139967   0.208   1.490   3.082 -0.6042 -0.1870 -0.3785
 6184TIP3    H239968   0.217   1.586   3.199 -0.2085 -1.9275  1.0595
 6185TIP3   OH239969   6.385   4.206   5.535  0.1877 -0.1181  0.2267
 6185TIP3    H139970   6.450   4.139   5.514  0.5778  0.6227 -0.9904
 6185TIP3    H239971   6.421   4.252   5.611 -0.7317 -2.1376  1.9897
 6186TIP3   OH239972   5.402   3.525   4.128 -0.5207  0.6984 -0.0010
 6186TIP3    H139973   5.365   3.518   4.040 -1.6040  0.5017  0.4544
 6186TIP3    H239974   5.432   3.616   4.134 -2.0044  1.2309 -0.0066
 6187TIP3   OH239975   3.350   0.344  12.543  0.3408  0.0266 -0.2291
 6187TIP3    H139976   3.386   0.384  12.622  2.0856 -0.6410 -0.6198
 6187TIP3    H239977   3.395   0.260  12.537 -1.1598 -0.7556 -0.9304
 6188TIP3   OH239978   0.223   1.185   1.889 -0.2933 -0.2009 -0.3684
 6188TIP3    H139979   0.202   1.274   1.918  1.0900  0.9560 -2.5976
 6188TIP3    H239980   0.139   1.148   1.862 -0.7913  0.7057 -0.1101
 6189TIP3   OH239981   6.061   1.098  10.653 -0.0210  0.7338 -0.0249
 6189TIP3    H139982   6.012   1.119  10.573  0.2494  2.3246  0.1991
 6189TIP3    H239983   6.105   1.016  10.632  2.1452  2.3431 -2.5345
 6190TIP3   OH239984   1.369   5.040   3.156 -0.1460 -0.3706 -0.8699
 6190TIP3    H139985   1.353   5.001   3.242 -0.9307  0.4868 -0.6073
 6190TIP3    H239986   1.417   4.973   3.108  1.7414 -0.2822  0.7545
 6191TIP3   OH239987   1.560   0.527  16.864 -0.0483  0.1461 -0.3119
 6191TIP3    H139988   1.568   0.619  16.842 -1.7771  0.3794 -0.0314
 6191TIP3    H239989   1.532   0.485  16.783  0.5391 -0.1123 -0.3869
 6192TIP3   OH239990   3.328   2.386  15.522 -0.1425  0.2268 -0.8368
 6192TIP3    H139991   3.398   2.397  15.457  2.3734 -0.8756  1.4876
 6192TIP3    H239992   3.334   2.465  15.577 -2.0725  1.0308 -1.7078
 6193TIP3   OH239993   5.579   4.662  16.216 -0.2285 -0.1374 -0.4557
 6193TIP3    H139994   5.616   4.628  16.134  0.5214 -0.3204 -0.0494
 6193TIP3    H239995   5.586   4.590  16.278  1.8438  0.8400  0.5543
 6194TIP3   OH239996   4.361   5.556  15.034  0.4384  0.3232  0.2448
 6194TIP3    H139997   4.434   5.562  15.095  0.3429  0.5552  0.3367
 6194TIP3    H239998   4.351   5.644  14.998  0.7284  0.1058 -0.3853
 6195TIP3   OH239999   5.646   1.621   2.717  0.5673  0.2992  0.8050
 6195TIP3    H140000   5.567   1.666   2.746 -0.3086  0.0883 -1.1025
 6195TIP3    H240001   5.696   1.688   2.671 -0.4953 -0.4624 -1.5916
 6196TIP3   OH240002   1.849   5.215   1.300 -0.1341  0.0670  0.2008
 6196TIP3    H140003   1.776   5.164   1.334 -0.6179  0.9363  0.5045
 6196TIP3    H240004   1.839   5.301   1.340  2.4032 -0.4166  2.1602
 6197TIP3   OH240005   0.226   5.133   1.933  0.6334 -0.1144 -0.1893
 6197TIP3    H140006   0.153   5.092   1.886  0.5791 -0.3614  0.1068
 6197TIP3    H240007   0.297   5.136   1.869  0.2787  0.3769 -0.5632
 6198TIP3   OH240008   1.509   2.308   5.325 -0.3381 -0.2288  0.0377
 6198TIP3    H140009   1.593   2.353   5.333  0.3937 -1.2202 -1.5440
 6198TIP3    H240010   1.448   2.363   5.374  1.1982  0.5707  1.1305
 6199TIP3   OH240011   0.533   0.950   5.752 -0.2333 -0.5197  0.3940
 6199TIP3    H140012   0.625   0.924   5.753 -0.5075 -1.5123  0.6064
 6199TIP3    H240013   0.521   0.993   5.668  0.3585 -0.6287  0.2489
 6200TIP3   OH240014   2.598   5.366  13.201  0.2794 -0.0569 -0.1160
 6200TIP3    H140015   2.649   5.442  13.231  0.1188  1.2880 -2.9655
 6200TIP3    H240016   2.548   5.399  13.127 -0.1417 -2.8740 -1.1803
 6201TIP3   OH240017   3.936   0.460   0.403 -0.5189  0.2758 -0.3610
 6201TIP3    H140018   3.934   0.509   0.485 -1.5859  0.6009 -0.5679
 6201TIP3    H240019   4.025   0.474   0.369  0.2097 -0.5036  1.1018
 6202TIP3   OH240020   2.278   2.348   1.858  0.1610  0.0775  0.1003
 6202TIP3    H140021   2.209   2.291   1.824  0.3524  0.3943 -0.8304
 6202TIP3    H240022   2.307   2.399   1.783 -0.5461  2.0025  1.0751
 6203TIP3   OH240023   1.651   0.692   2.261  0.3023 -0.8168 -0.3408
 6203TIP3    H140024   1.736   0.732   2.244 -0.5691  0.4494 -1.8558
 6203TIP3    H240025   1.654   0.669   2.354  0.8539  2.8248  0.6943
 6204TIP3   OH240026   5.191   0.032  13.456  0.7196 -0.0022  0.0628
 6204TIP3    H140027   5.196  -0.059  13.427 -1.0788 -0.7442  1.8268
 6204TIP3    H240028   5.220   0.030  13.547 -1.3036  0.7618  0.7820
 6205TIP3   OH240029   5.482   0.880   3.957 -0.0745 -0.1114 -0.6631
 6205TIP3    H140030   5.520   0.968   3.952 -2.6814  1.0919 -1.1243
 6205TIP3    H240031   5.456   0.859   3.868  1.7172 -2.0259 -0.8202
 6206TIP3   OH240032   0.991   0.900   1.496 -0.3014  0.1296  0.2157
 6206TIP3    H140033   0.998   0.894   1.591 -1.0542 -1.9511  0.1809
 6206TIP3    H240034   0.900   0.879   1.477 -0.7939  2.8451 -0.8615
 6207TIP3   OH240035   3.795   3.113  12.799 -0.4671  0.2938 -0.3254
 6207TIP3    H140036   3.863   3.180  12.794 -1.3111  1.1560 -0.6744
 6207TIP3    H240037   3.720   3.159  12.838 -0.6654 -0.7971  0.6512
 6208TIP3   OH240038   2.271   4.624   0.964  0.1038  0.2030  0.0601
 6208TIP3    H140039   2.251   4.694   1.026  2.1300  1.2504 -0.3729
 6208TIP3    H240040   2.332   4.567   1.011 -1.6225 -1.4335  0.4534
 6209TIP3   OH240041   5.040   4.312  15.060  0.0986  0.8287  0.0801
 6209TIP3    H140042   5.107   4.260  15.016  0.6085  1.7395 -0.2276
 6209TIP3    H240043   4.963   4.305  15.003 -0.4756 -1.1614  0.9982
 6210TIP3   OH240044   3.227   5.251  14.872 -0.0491 -0.1435  0.3363
 6210TIP3    H140045   3.256   5.218  14.787 -1.0787 -1.1956  0.3660
 6210TIP3    H240046   3.242   5.178  14.932 -0.2172  0.2640  0.8838
 6211TIP3   OH240047   6.239   5.358   1.531  0.1109 -0.1602 -0.3348
 6211TIP3    H140048   6.306   5.398   1.474  1.3945 -1.6643  0.0563
 6211TIP3    H240049   6.238   5.414   1.608  2.7768 -1.4281  0.7446
 6212TIP3   OH240050   4.055   2.314  16.787  0.9622  0.0543 -0.0321
 6212TIP3    H140051   4.110   2.237  16.803 -0.3516 -1.0921 -0.8155
 6212TIP3    H240052   4.019   2.300  16.699  0.8651  1.6907 -0.2944
 6213TIP3   OH240053   0.076   2.254  13.387 -0.1154  0.3503 -0.0958
 6213TIP3    H140054   0.096   2.194  13.315 -0.2120  0.0974  0.0879
 6213TIP3    H240055   0.066   2.339  13.344  0.4301  0.3160 -0.3085
 6214TIP3   OH240056   6.751   4.279  13.255 -0.2520 -0.5932  0.3335
 6214TIP3    H140057   6.762   4.206  13.194  0.9961 -0.0311 -0.1720
 6214TIP3    H240058   6.794   4.353  13.211 -2.7041  0.8534  0.1706
 6215TIP3   OH240059   5.309   6.600   0.329 -0.2370  0.4253  0.1229
 6215TIP3    H140060   5.300   6.555   0.245  3.6957  0.0891 -0.3136
 6215TIP3    H240061   5.244   6.559   0.385 -0.7265 -1.7455 -1.8712
 6216TIP3   OH240062   1.384   6.318   3.950 -0.2787 -0.3451 -0.0170
 6216TIP3    H140063   1.387   6.388   3.884  2.0268 -2.6277 -2.6201
 6216TIP3    H240064   1.291   6.300   3.961 -0.8248  1.4187 -1.2244
 6217TIP3   OH240065   0.316   1.363  15.054 -0.2225  0.6354 -0.4308
 6217TIP3    H140066   0.308   1.456  15.077  0.8937  0.6847 -0.1606
 6217TIP3    H240067   0.244   1.347  14.993 -0.4753  1.6632 -0.4231
 6218TIP3   OH240068   5.999   0.842  14.927 -0.2728 -0.2589  0.1540
 6218TIP3    H140069   6.092   0.863  14.917 -0.3647 -0.2085 -0.6427
 6218TIP3    H240070   5.987   0.834  15.021  0.5167 -0.1530  0.2744
 6219TIP3   OH240071   1.494   3.539  12.344  0.8611  0.1124  0.6027
 6219TIP3    H140072   1.529   3.450  12.350 -1.0498 -0.8416 -0.9536
 6219TIP3    H240073   1.403   3.530  12.375  0.1590  1.1406 -1.0178
 6220TIP3   OH240074   3.071   5.936   1.338 -0.2007 -0.0867  1.0507
 6220TIP3    H140075   3.064   5.901   1.249 -0.7914 -0.3308  1.1885
 6220TIP3    H240076   3.164   5.927   1.360  0.1665  0.9769  0.0543
 6221TIP3   OH240077   1.170   3.509   5.014  0.6421  0.0769  0.1496
 6221TIP3    H140078   1.091   3.457   5.030 -0.8438  1.9938 -0.5860
 6221TIP3    H240079   1.159   3.544   4.926  1.6376  1.5197  0.5628
 6222TIP3   OH240080   3.660   1.500  15.770  0.3078  0.2935 -0.3461
 6222TIP3    H140081   3.674   1.462  15.857 -1.4834  1.5594  0.5537
 6222TIP3    H240082   3.733   1.467  15.718  2.2876  0.6802  1.9972
 6223TIP3   OH240083   6.381   0.671  12.275 -0.0415 -0.1282 -0.4907
 6223TIP3    H140084   6.423   0.718  12.346 -2.6787  0.2278  0.9324
 6223TIP3    H240085   6.376   0.734  12.203 -0.6569  0.7326  0.2965
 6224TIP3   OH240086   3.427   4.826   0.531  0.5306  0.0552 -0.0844
 6224TIP3    H140087   3.345   4.828   0.580  0.3767 -1.6769 -0.2022
 6224TIP3    H240088   3.408   4.771   0.455  1.3110  1.1215 -1.0697
 6225TIP3   OH240089   1.582   4.530  13.499  0.1242 -0.4965  0.2720
 6225TIP3    H140090   1.570   4.521  13.405  1.2772  3.3316 -0.4397
 6225TIP3    H240091   1.498   4.563  13.531  0.0137 -0.9058  0.3997
 6226TIP3   OH240092   6.665   1.799   1.011  0.1297 -0.3669  0.6672
 6226TIP3    H140093   6.595   1.831   0.955  0.5802 -0.5677 -0.0257
 6226TIP3    H240094   6.656   1.703   1.009  1.1484 -0.4642 -0.4167
 6227TIP3   OH240095   4.728   3.932   2.200 -0.1847  0.1536 -0.6899
 6227TIP3    H140096   4.762   3.977   2.122  3.1505 -1.0780 -0.0791
 6227TIP3    H240097   4.711   3.843   2.171  1.0243 -0.2981 -0.0495
 6228TIP3   OH240098   5.972   2.514   0.848 -0.3886  0.1283 -0.9801
 6228TIP3    H140099   6.013   2.521   0.762 -2.1884  2.2739 -1.7643
 6228TIP3    H240100   5.879   2.532   0.832 -1.0742 -1.1053  1.1876
 6229TIP3   OH240101   5.233   2.929  14.338  0.0436 -0.1674  0.0067
 6229TIP3    H140102   5.324   2.903  14.327 -0.2429 -2.0111  1.4110
 6229TIP3    H240103   5.190   2.850  14.371 -1.7126  1.1439  1.0149
 6230TIP3   OH240104   2.120   3.164  15.981  0.1520 -0.0526 -0.1284
 6230TIP3    H140105   2.133   3.083  16.029 -0.0499  0.0568  0.1163
 6230TIP3    H240106   2.185   3.162  15.911  0.8596  0.0719  0.5218
 6231TIP3   OH240107   6.641   4.928   5.293  0.1391 -0.5723 -0.3728
 6231TIP3    H140108   6.650   4.866   5.365 -1.8515 -0.0573  0.3936
 6231TIP3    H240109   6.667   4.878   5.215  2.3824 -1.1134  0.6536
 6232TIP3   OH240110   3.929   0.453  15.779  0.4842  0.2130 -0.0170
 6232TIP3    H140111   3.847   0.503  15.772  0.4533  0.1241 -0.3101
 6232TIP3    H240112   3.957   0.440  15.688  2.0883  2.2754  0.1271
 6233TIP3   OH240113   0.342   5.785   3.308  0.1266 -0.3164 -0.2408
 6233TIP3    H140114   0.259   5.767   3.265 -0.6511  0.7314  0.7690
 6233TIP3    H240115   0.343   5.880   3.319  0.3468 -0.5394  1.9279
 6234TIP3   OH240116   3.373   5.545   0.216 -0.5139  1.0508 -0.0254
 6234TIP3    H140117   3.453   5.563   0.167 -1.3020  1.3023 -1.2639
 6234TIP3    H240118   3.353   5.627   0.262 -0.2839  1.1172 -0.0446
 6235TIP3   OH240119   6.046   6.533   2.849  0.3333  0.4282  0.2081
 6235TIP3    H140120   5.982   6.545   2.919 -1.9157 -0.1416 -1.6339
 6235TIP3    H240121   6.017   6.592   2.780 -0.2732 -2.2495 -1.9845
 6236TIP3   OH240122   0.633   1.806  13.035 -0.5184  0.2138 -0.1319
 6236TIP3    H140123   0.653   1.728  12.984  1.8479 -0.4913  1.7054
 6236TIP3    H240124   0.584   1.862  12.975  1.6352 -0.7554 -3.0211
 6237TIP3   OH240125   4.313   4.011   5.334 -0.0249 -0.6907 -0.2558
 6237TIP3    H140126   4.300   4.046   5.422 -1.1376 -1.6483 -0.0139
 6237TIP3    H240127   4.369   4.075   5.291  1.1898 -0.5919  1.3866
 6238TIP3   OH240128   4.528   1.838   6.191 -0.2324 -0.1292 -0.1518
 6238TIP3    H140129   4.520   1.785   6.111 -0.4250  0.0137 -0.2301
 6238TIP3    H240130   4.612   1.813   6.228 -0.5737 -0.9013  0.1134
 6239TIP3   OH240131   6.079   2.478  13.452 -0.5699 -0.3434 -0.0186
 6239TIP3    H140132   6.138   2.520  13.390  0.4976 -0.9686  0.5442
 6239TIP3    H240133   5.994   2.477  13.408 -0.4698  1.7106 -0.3278
 6240TIP3   OH240134   2.542   1.855  17.214 -0.3930 -0.1706  0.1736
 6240TIP3    H140135   2.593   1.894  17.143 -0.4704 -1.0694 -0.3977
 6240TIP3    H240136   2.602   1.851  17.288 -0.2774  0.6759  0.1375
 6241TIP3   OH240137   6.434   6.221  16.803 -0.0155 -0.2997 -0.4653
 6241TIP3    H140138   6.465   6.305  16.838 -0.0495 -0.2348 -0.5879
 6241TIP3    H240139   6.501   6.194  16.741  0.0040 -0.3727 -0.4117
 6242TIP3   OH240140   1.425   3.689   5.198  0.2358 -0.5657  0.4976
 6242TIP3    H140141   1.465   3.709   5.282 -0.7241  0.6130  0.6962
 6242TIP3    H240142   1.343   3.645   5.220 -0.8961  1.3464  0.2722
 6243TIP3   OH240143   3.603   4.871   3.310 -0.2593  0.4892  0.1876
 6243TIP3    H140144   3.535   4.887   3.374 -1.1339 -0.9170 -0.3481
 6243TIP3    H240145   3.557   4.866   3.226  0.6135  0.4620 -0.3036
 6244TIP3   OH240146   4.760   5.507   3.261  0.5869 -0.1054  0.3615
 6244TIP3    H140147   4.665   5.493   3.268  0.8723 -3.0271 -0.5322
 6244TIP3    H240148   4.793   5.492   3.349  0.1440  2.4472  1.0417
 6245TIP3   OH240149   5.937   6.397   6.470 -0.2326 -0.0208  0.3168
 6245TIP3    H140150   5.916   6.463   6.403 -0.6523 -0.9538 -0.4930
 6245TIP3    H240151   5.971   6.323   6.421  0.0661 -0.4835  1.2026
 6246TIP3   OH240152   0.112   2.067  11.968 -0.0648 -0.4450 -0.1675
 6246TIP3    H140153   0.101   2.080  12.062 -1.6601 -1.7306 -0.1315
 6246TIP3    H240154   0.076   2.147  11.928  0.8117  0.1964  0.2816
 6247TIP3   OH240155   4.589   4.794   4.640 -0.8661 -0.3855 -0.0222
 6247TIP3    H140156   4.576   4.799   4.735 -0.5519  2.4073 -0.0512
 6247TIP3    H240157   4.501   4.793   4.603 -0.9830 -1.0277  0.2475
 6248TIP3   OH240158   5.046   5.337   2.637  0.1356  0.0650 -0.2717
 6248TIP3    H140159   5.064   5.316   2.545  2.9067 -0.2522  0.2451
 6248TIP3    H240160   5.112   5.402   2.660 -0.6167  0.2810  1.4557
 6249TIP3   OH240161   3.558   1.933  14.504 -0.1020 -0.1737  0.8212
 6249TIP3    H140162   3.485   1.979  14.545  0.4042  0.2792  1.2192
 6249TIP3    H240163   3.577   1.860  14.563 -1.5833 -1.5677 -0.3188
 6250TIP3   OH240164   0.091   3.339   0.752  0.0472 -0.2988 -0.0059
 6250TIP3    H140165   0.161   3.404   0.749 -1.4481  1.7022  2.9705
 6250TIP3    H240166   0.128   3.266   0.802  0.5270  0.0373  0.1371
 6251TIP3   OH240167   2.823   3.831  12.747 -0.4070  0.4704 -0.1600
 6251TIP3    H140168   2.844   3.800  12.834 -1.4830  0.9704  0.2984
 6251TIP3    H240169   2.826   3.927  12.754  1.8695  0.5449 -1.2896
 6252TIP3   OH240170   0.333   2.090  10.691  0.3539  0.0909  0.0074
 6252TIP3    H140171   0.367   2.167  10.736 -1.4359  1.6811 -1.2016
 6252TIP3    H240172   0.410   2.036  10.674  1.7669  1.9079  0.3493
 6253TIP3   OH240173   5.402   5.870   5.350 -0.7205  0.6072  0.1724
 6253TIP3    H140174   5.395   5.877   5.445  0.2545  0.8128  0.2417
 6253TIP3    H240175   5.357   5.788   5.328  0.8865 -0.5474  1.0486
 6254TIP3   OH240176   0.793   6.370   1.382  0.2179  0.2852 -0.0095
 6254TIP3    H140177   0.769   6.282   1.411  1.5178 -0.7655 -1.9272
 6254TIP3    H240178   0.710   6.417   1.377 -0.8648 -1.6196 -1.3680
 6255TIP3   OH240179   5.070   2.226  15.690  0.1446 -0.6398  0.1295
 6255TIP3    H140180   5.013   2.158  15.654 -0.1614 -1.3222  1.8009
 6255TIP3    H240181   5.099   2.191  15.774  0.4978  1.0318  0.7505
 6256TIP3   OH240182   1.674   0.449  13.357 -0.5523  0.8884 -0.4054
 6256TIP3    H140183   1.650   0.357  13.347  0.9876  0.4404 -0.1047
 6256TIP3    H240184   1.670   0.484  13.268  1.9429 -0.2839 -1.0493
 6257TIP3   OH240185   3.176   5.349  12.832 -0.6161  0.0806  0.0358
 6257TIP3    H140186   3.236   5.321  12.763 -1.2965 -0.2501 -0.4244
 6257TIP3    H240187   3.225   5.417  12.879 -0.0769  0.1845 -0.6510
 6258TIP3   OH240188   1.924   3.385   5.355 -0.0380 -0.0332 -0.1490
 6258TIP3    H140189   1.951   3.352   5.270  0.3124  0.1457 -0.1088
 6258TIP3    H240190   1.991   3.355   5.416  0.2542  0.6833 -0.0997
 6259TIP3   OH240191   3.954   5.650   3.882  0.2499 -0.6591  0.4140
 6259TIP3    H140192   3.989   5.570   3.842 -0.9045 -0.3585 -1.2804
 6259TIP3    H240193   3.942   5.710   3.809  1.5596  1.2971  1.7320
 6260TIP3   OH240194   5.841   2.046   6.472  0.1805  0.2633  0.0005
 6260TIP3    H140195   5.746   2.049   6.487  0.0377 -3.3860  0.9421
 6260TIP3    H240196   5.850   2.031   6.378 -0.4907 -2.3420  0.2528
 6261TIP3   OH240197   0.343   1.833  13.334  0.3109 -0.0370  0.2810
 6261TIP3    H140198   0.314   1.769  13.400 -0.1126  0.8742  1.0093
 6261TIP3    H240199   0.284   1.908  13.346  2.0143  1.2996  0.8232
 6262TIP3   OH240200   6.425   2.460   2.214 -0.4229 -0.0461  0.0480
 6262TIP3    H140201   6.490   2.479   2.147  1.6798 -0.3347  1.8698
 6262TIP3    H240202   6.443   2.370   2.242 -1.1471  0.0949  1.0690
 6263TIP3   OH240203   2.184   1.207  12.097 -0.5058 -0.7011 -0.2889
 6263TIP3    H140204   2.151   1.122  12.067  0.2852 -0.9794 -0.3872
 6263TIP3    H240205   2.264   1.186  12.145 -0.1853  0.0014 -0.5042
 6264TIP3   OH240206   6.275   4.499   0.108 -0.2771  0.5225  0.4784
 6264TIP3    H140207   6.256   4.504   0.201 -1.4396 -0.0340  0.2772
 6264TIP3    H240208   6.266   4.589   0.076  0.2241  0.7299  0.9063
 6265TIP3   OH240209   5.786   5.450  12.351 -0.5713  0.0985  0.6325
 6265TIP3    H140210   5.846   5.491  12.289  0.0250 -1.1552  0.3386
 6265TIP3    H240211   5.740   5.383  12.299 -0.3358 -0.7116  1.4455
 6266TIP3   OH240212   5.934   4.532  12.373  0.7386 -0.3044  0.2336
 6266TIP3    H140213   5.907   4.614  12.332 -0.5912 -1.0313 -0.4346
 6266TIP3    H240214   5.986   4.487  12.306  0.8682 -0.3105  0.3385
 6267TIP3   OH240215   5.960   4.558   1.838  0.1763 -0.1778 -0.3242
 6267TIP3    H140216   5.911   4.565   1.756  0.4622 -0.9952 -0.5745
 6267TIP3    H240217   6.051   4.552   1.811  0.1760 -2.0044 -0.0565
 6268TIP3   OH240218   1.529   5.874   2.552 -0.0777  0.0846  0.0259
 6268TIP3    H140219   1.461   5.844   2.492 -1.7486 -0.2280  1.9815
 6268TIP3    H240220   1.537   5.968   2.533 -0.8612  0.0735 -0.3999
 6269TIP3   OH240221   4.412   2.413  13.616  0.1148 -0.0801  0.4942
 6269TIP3    H140222   4.375   2.498  13.641 -2.4698 -0.5834 -1.1465
 6269TIP3    H240223   4.349   2.349  13.650  1.2020 -1.2628  0.3649
 6270TIP3   OH240224   5.325   6.681  15.967 -0.3562  0.0218  0.6479
 6270TIP3    H140225   5.331   6.744  15.895  0.5120  0.3304  0.9890
 6270TIP3    H240226   5.335   6.596  15.924  2.2279  0.2829  0.6125
 6271TIP3   OH240227   3.768   4.760   4.177  0.2897  0.1943 -0.5670
 6271TIP3    H140228   3.732   4.849   4.172 -0.4776 -0.0344  0.4978
 6271TIP3    H240229   3.820   4.760   4.257 -0.8788 -0.7014  0.2265
 6272TIP3   OH240230   4.481   6.099   3.295  0.2592  0.1741  0.3246
 6272TIP3    H140231   4.480   6.168   3.362  0.3483  0.5748 -0.0826
 6272TIP3    H240232   4.573   6.076   3.286  0.0675 -1.7272  2.1917
 6273TIP3   OH240233   1.837   5.463  16.989 -0.2942  0.1252 -0.3842
 6273TIP3    H140234   1.772   5.475  16.920 -0.0689 -3.0999 -1.3149
 6273TIP3    H240235   1.847   5.368  16.996  3.7181  0.4167  0.2576
 6274TIP3   OH240236   2.958   6.255   3.042  0.5416  0.1676  0.1254
 6274TIP3    H140237   3.008   6.234   3.121 -0.6422 -1.2169  0.5623
 6274TIP3    H240238   2.874   6.286   3.076  0.8474  1.8597 -0.5963
 6275TIP3   OH240239   3.583   3.249  14.392  0.0761  0.6377 -0.0325
 6275TIP3    H140240   3.497   3.229  14.355 -1.1614  0.4373  2.6794
 6275TIP3    H240241   3.587   3.344  14.394  0.7771  0.6877 -1.8501
 6276TIP3   OH240242   4.992   4.717   6.209 -0.0878 -0.3232  0.6325
 6276TIP3    H140243   5.082   4.736   6.236  1.0698 -2.3914 -1.4012
 6276TIP3    H240244   4.939   4.776   6.261  2.4670  1.2868  1.6297
 6277TIP3   OH240245   2.582   0.074  16.394 -0.0758 -0.2627  0.0420
 6277TIP3    H140246   2.492   0.050  16.416  0.4022 -0.0784  2.4201
 6277TIP3    H240247   2.588   0.058  16.299 -2.5181 -0.4889 -0.1442
 6278TIP3   OH240248   5.041   0.783   2.708  0.0269 -0.1351  0.0032
 6278TIP3    H140249   5.129   0.752   2.728  0.0294 -0.4008 -0.4097
 6278TIP3    H240250   5.054   0.849   2.641  0.5368  4.4294  4.0611
 6279TIP3   OH240251   0.884   0.856   1.110 -0.2859  0.2258  0.3301
 6279TIP3    H140252   0.829   0.835   1.035 -0.1333  0.8635  0.0333
 6279TIP3    H240253   0.956   0.908   1.074  1.1982 -1.5846  0.5051
 6280TIP3   OH240254   2.322   5.170  12.652 -0.0528 -0.6698 -0.1779
 6280TIP3    H140255   2.285   5.087  12.683  0.0635 -0.8158 -0.4290
 6280TIP3    H240256   2.249   5.231  12.655  0.3299 -0.2418  2.0005
 6281TIP3   OH240257   5.705   4.359   3.270 -0.1048 -0.3652 -0.9197
 6281TIP3    H140258   5.798   4.376   3.287 -0.2878  0.0294 -0.2439
 6281TIP3    H240259   5.684   4.412   3.193  0.4628 -1.2412 -1.6983
 6282TIP3   OH240260   3.955   0.796  14.846 -0.0186  0.3027 -0.1504
 6282TIP3    H140261   4.025   0.790  14.911  1.4986 -0.7433 -1.8022
 6282TIP3    H240262   3.916   0.709  14.845 -0.4549  0.4967 -0.2021
 6283TIP3   OH240263   6.378   0.977  14.285  0.4185  0.1129  0.8440
 6283TIP3    H140264   6.445   1.033  14.325  0.4869  0.0612  0.8023
 6283TIP3    H240265   6.295   1.008  14.323  0.4099  0.5223  0.5029
 6284TIP3   OH240266   3.462   0.771   5.110 -0.5289 -0.1387 -0.7932
 6284TIP3    H140267   3.483   0.697   5.053  0.6338 -0.9291  0.5829
 6284TIP3    H240268   3.370   0.760   5.131 -0.6657 -0.5165 -1.5622
 6285TIP3   OH240269   4.146   4.512  10.931 -0.2446  0.6336  0.7054
 6285TIP3    H140270   4.234   4.518  10.895 -0.2038 -0.3851  0.6039
 6285TIP3    H240271   4.116   4.424  10.906 -1.4949  1.1599  0.2558
 6286TIP3   OH240272   1.548   4.692  16.090  0.3158 -0.4227 -0.3324
 6286TIP3    H140273   1.502   4.753  16.032 -0.2206 -1.0941 -0.6324
 6286TIP3    H240274   1.478   4.642  16.132  0.7364 -0.5827  0.1849
 6287TIP3   OH240275   4.175   4.349   5.767 -0.1335 -0.0342  0.4497
 6287TIP3    H140276   4.129   4.431   5.784  1.4685  1.1662 -0.7384
 6287TIP3    H240277   4.214   4.325   5.851 -0.4705  0.5211  0.7668
 6288TIP3   OH240278   3.772   2.709  16.505 -0.0460 -0.5661  0.2419
 6288TIP3    H140279   3.741   2.796  16.478  0.4669 -0.4084  0.1495
 6288TIP3    H240280   3.741   2.700  16.595  1.7580  0.6565  1.0485
 6289TIP3   OH240281   5.090   6.011  14.641  0.3338 -0.7527  0.3177
 6289TIP3    H140282   5.158   5.982  14.580  2.1016 -1.5550  2.5202
 6289TIP3    H240283   5.127   5.995  14.728 -1.0192  2.5922  1.7003
 6290TIP3   OH240284   0.608   3.353   0.830 -0.3652  0.1094  0.2887
 6290TIP3    H140285   0.563   3.371   0.913 -0.0893 -2.6382  1.1439
 6290TIP3    H240286   0.691   3.400   0.836 -0.7429  0.6803  1.1533
 6291TIP3   OH240287   5.324   5.603   4.464 -0.0497  0.5744 -0.2518
 6291TIP3    H140288   5.283   5.600   4.550  0.2982 -1.3610 -0.1040
 6291TIP3    H240289   5.341   5.695   4.448 -0.7543  1.0271  1.4439
 6292TIP3   OH240290   1.392   5.329  17.082 -0.2413  0.1660 -0.0559
 6292TIP3    H140291   1.419   5.254  17.029 -1.6786 -0.3102 -0.1814
 6292TIP3    H240292   1.449   5.326  17.158  0.2592 -0.5875 -0.4487
 6293TIP3   OH240293   5.143   2.318  15.439  0.0647  0.3850 -0.8368
 6293TIP3    H140294   5.113   2.286  15.524  0.1125 -0.4686 -1.1287
 6293TIP3    H240295   5.158   2.412  15.452 -0.7005  0.4204 -0.1266
 6294TIP3   OH240296   0.065   1.032   0.285  0.2688  0.0227 -1.0142
 6294TIP3    H140297   0.102   1.087   0.216  2.3894 -0.5635 -0.4466
 6294TIP3    H240298   0.033   1.094   0.351 -0.1393  0.5785 -1.7308
 6295TIP3   OH240299   0.397   4.865  14.015  0.0889  0.1475 -0.5764
 6295TIP3    H140300   0.314   4.907  13.991 -0.2688 -0.8216 -1.0863
 6295TIP3    H240301   0.372   4.796  14.077  0.7297  0.9745  0.6676
 6296TIP3   OH240302   0.737   1.929  13.742  0.4788 -0.0802 -0.2656
 6296TIP3    H140303   0.680   1.907  13.668  0.4102  0.6370 -0.4310
 6296TIP3    H240304   0.730   2.024  13.751  0.9659 -0.0874  0.2750
 6297TIP3   OH240305   1.381   0.825   3.209  0.4512  0.4314  0.2409
 6297TIP3    H140306   1.418   0.745   3.171 -0.1283  0.5620 -0.6277
 6297TIP3    H240307   1.394   0.892   3.141 -1.1221  0.5335  0.0033
 6298TIP3   OH240308   5.852   2.075   6.173 -0.2773 -0.4016  0.5274
 6298TIP3    H140309   5.926   2.127   6.139 -0.6789  0.4918  0.9898
 6298TIP3    H240310   5.858   1.992   6.126  0.4770  0.0002 -0.1194
 6299TIP3   OH240311   6.465   5.271   4.387 -0.2190  0.0184  0.2265
 6299TIP3    H140312   6.372   5.253   4.376 -0.4348  1.5414 -0.7341
 6299TIP3    H240313   6.467   5.346   4.447  0.4332 -0.3900  0.7281
 6300TIP3   OH240314   4.529   4.888  11.326  0.0294  0.2467 -0.2590
 6300TIP3    H140315   4.465   4.830  11.286  0.0145  0.3105 -0.3287
 6300TIP3    H240316   4.477   4.954  11.372  0.0482 -0.0522  0.1951
 6301TIP3   OH240317   0.105   5.267   3.281  0.1664  0.0959  0.1862
 6301TIP3    H140318   0.179   5.208   3.295 -1.9766 -2.5776  1.1073
 6301TIP3    H240319   0.066   5.237   3.199 -1.4692 -0.3812  1.1098
 6302TIP3   OH240320   2.079   5.014  16.670  0.2515 -0.0115 -0.0535
 6302TIP3    H140321   1.990   5.048  16.676  0.5470  0.6142  1.1080
 6302TIP3    H240322   2.119   5.035  16.754  1.4582 -0.4193 -0.4925
 6303TIP3   OH240323   4.601   4.222   1.537 -0.3488  0.0219 -0.1974
 6303TIP3    H140324   4.683   4.172   1.526 -0.2586  0.4127 -1.3512
 6303TIP3    H240325   4.630   4.313   1.546 -0.5442 -0.0459  1.4835
 6304TIP3   OH240326   3.132   0.941   4.583 -0.0212 -0.5885 -0.2318
 6304TIP3    H140327   3.118   0.851   4.612  1.6558 -1.0127 -0.6205
 6304TIP3    H240328   3.092   0.946   4.496 -0.3571 -0.8705 -0.0934
 6305TIP3   OH240329   1.906   5.957   4.206 -0.1875 -0.0123  0.0315
 6305TIP3    H140330   1.830   5.915   4.165 -0.3010 -0.1702  0.3982
 6305TIP3    H240331   1.870   6.033   4.251 -0.0727  0.1257 -0.1100
 6306TIP3   OH240332   5.806   4.801   3.934 -0.1974 -0.5782 -0.3282
 6306TIP3    H140333   5.889   4.812   3.887 -1.4941  0.1921 -2.5887
 6306TIP3    H240334   5.773   4.715   3.906 -0.7407 -0.3492 -0.4035
 6307TIP3   OH240335   0.196   6.134  15.481 -0.3920  0.3619 -0.2322
 6307TIP3    H140336   0.152   6.156  15.399  0.1575 -2.8277 -1.5408
 6307TIP3    H240337   0.279   6.094  15.453  0.5643  0.6998  1.9540
 6308TIP3   OH240338   0.334   4.486   6.016 -0.2517 -0.1815 -0.6565
 6308TIP3    H140339   0.420   4.526   6.029 -0.5996  0.1556  0.7888
 6308TIP3    H240340   0.272   4.553   6.045 -1.1674  0.4312 -3.7027
 6309TIP3   OH240341   4.778   4.984   3.936  0.4700  0.0787 -0.1076
 6309TIP3    H140342   4.695   4.997   3.982 -0.9426 -1.1511 -2.1066
 6309TIP3    H240343   4.839   5.044   3.978 -1.8971  2.3698  0.2921
 6310TIP3   OH240344   3.608   0.212  12.163 -0.7601 -0.2782  0.0965
 6310TIP3    H140345   3.694   0.174  12.184 -0.3006 -0.7033 -2.1960
 6310TIP3    H240346   3.600   0.288  12.221  0.9370 -0.5267  0.7191
 6311TIP3   OH240347   1.267   2.166   5.735 -0.4286  0.1211  0.3090
 6311TIP3    H140348   1.260   2.262   5.734  0.2714  0.1985  1.1875
 6311TIP3    H240349   1.218   2.140   5.814 -1.7211 -0.3695 -0.6144
 6312TIP3   OH240350   3.943   0.712   3.535 -0.2294 -0.0254  0.0675
 6312TIP3    H140351   3.904   0.630   3.505  0.0597 -0.5899  1.1454
 6312TIP3    H240352   3.891   0.736   3.612 -0.8530  1.2804 -0.7268
 6313TIP3   OH240353   5.937   6.114  11.635 -0.3238 -0.3306  0.3172
 6313TIP3    H140354   5.999   6.069  11.578 -0.8730 -1.3294  0.4921
 6313TIP3    H240355   5.853   6.071  11.619  0.0038 -2.9437  4.1292
 6314TIP3   OH240356   2.223   3.795  15.020 -0.3024  0.6491 -0.0094
 6314TIP3    H140357   2.246   3.870  14.965 -0.4552  0.3649 -0.4655
 6314TIP3    H240358   2.295   3.787  15.082  1.1444 -0.5303 -1.7307
 6315TIP3   OH240359   4.551   2.219   3.472  0.5139 -0.1201  0.0803
 6315TIP3    H140360   4.619   2.154   3.488 -1.2593 -2.2976 -0.5915
 6315TIP3    H240361   4.560   2.241   3.379  2.9711  3.0158  0.8959
 6316TIP3   OH240362   5.403   0.720   1.172  0.2207 -0.5969  0.5414
 6316TIP3    H140363   5.482   0.751   1.127  0.2916  0.9217  1.6490
 6316TIP3    H240364   5.357   0.668   1.106 -0.1264  2.2684 -1.6273
 6317TIP3   OH240365   0.222   4.586  11.416  0.3343  0.2993  0.4667
 6317TIP3    H140366   0.160   4.656  11.435  0.1438 -0.1386  1.5411
 6317TIP3    H240367   0.167   4.508  11.402  0.5875  0.1482  0.3007
 6318TIP3   OH240368   0.772   0.141   0.671 -0.1358 -0.2913 -0.0640
 6318TIP3    H140369   0.735   0.218   0.626  1.6514  0.2989 -0.6361
 6318TIP3    H240370   0.867   0.154   0.665  0.2111 -0.7612  2.9747
 6319TIP3   OH240371   0.396   2.186  15.553 -0.0723 -0.1909  0.5475
 6319TIP3    H140372   0.441   2.132  15.488 -1.4400  2.0534 -2.5833
 6319TIP3    H240373   0.303   2.167  15.538 -0.4319  0.4921  1.8086
 6320TIP3   OH240374   2.688   0.298   3.811  0.6593  0.1039  0.4936
 6320TIP3    H140375   2.652   0.235   3.874  0.2069 -0.3675 -0.2153
 6320TIP3    H240376   2.756   0.344   3.859  4.6451 -4.3098 -0.2205
 6321TIP3   OH240377   4.428   0.418  11.844 -0.5688 -0.2873 -0.1487
 6321TIP3    H140378   4.346   0.442  11.887 -1.4226 -2.2503 -0.5665
 6321TIP3    H240379   4.473   0.361  11.906  0.3375  0.4709 -0.0780
 6322TIP3   OH240380   3.932   4.956  12.303  0.3827  0.2429  0.0420
 6322TIP3    H140381   3.879   4.878  12.284 -1.5177  1.4038  0.3655
 6322TIP3    H240382   3.869   5.028  12.305  2.0296  1.7340  0.2372
 6323TIP3   OH240383   2.872   1.231  11.793  0.1252 -0.3034 -0.2903
 6323TIP3    H140384   2.820   1.181  11.730 -1.3432  0.8620 -0.0600
 6323TIP3    H240385   2.960   1.195  11.785 -0.3084 -1.0915 -2.0419
 6324TIP3   OH240386   1.328   5.277   5.935  0.6857  0.8496  0.2847
 6324TIP3    H140387   1.280   5.303   6.014  1.5256  1.6962  0.5344
 6324TIP3    H240388   1.415   5.254   5.967  0.6778  0.0440 -0.2589
 6325TIP3   OH240389   3.617   1.350   3.294 -0.2134 -0.2886  0.7582
 6325TIP3    H140390   3.613   1.310   3.207  0.5165 -2.7289  1.7645
 6325TIP3    H240391   3.556   1.299   3.346  0.1143  0.4839  1.9290
 6326TIP3   OH240392   1.879   3.544   4.752  0.8107 -0.0038 -0.5101
 6326TIP3    H140393   1.887   3.639   4.741 -0.6679  0.4702  1.7477
 6326TIP3    H240394   1.838   3.514   4.671 -0.7675  1.6637 -0.4004
 6327TIP3   OH240395   4.920   4.852   0.635  0.4593 -0.2647 -0.2516
 6327TIP3    H140396   4.995   4.795   0.653  1.7762  0.6412 -2.3828
 6327TIP3    H240397   4.859   4.796   0.586 -0.0815 -0.8658  1.0563
 6328TIP3   OH240398   3.484   6.644   2.771 -0.9152  0.0839  0.8938
 6328TIP3    H140399   3.571   6.669   2.802 -1.3468  3.3940 -0.0789
 6328TIP3    H240400   3.477   6.687   2.685 -2.7336 -1.9475 -0.0673
 6329TIP3   OH240401   5.173   5.248  12.263 -0.9116 -0.0029  0.2443
 6329TIP3    H140402   5.247   5.260  12.204 -0.5505 -0.1847  0.6572
 6329TIP3    H240403   5.189   5.164  12.306 -0.6668  0.5715  1.3174
 6330TIP3   OH240404   4.862   3.372  12.690  0.0790 -0.1021 -0.1041
 6330TIP3    H140405   4.925   3.334  12.751 -1.5262 -3.1736 -0.1552
 6330TIP3    H240406   4.800   3.420  12.746  2.1428  2.7328 -0.0358
 6331TIP3   OH240407   5.914   5.404  14.943  0.6796 -0.4592  0.3046
 6331TIP3    H140408   6.001   5.400  14.903  0.2814 -1.8110 -0.4901
 6331TIP3    H240409   5.856   5.430  14.871  0.3722  0.1997  0.7744
 6332TIP3   OH240410   2.113   3.006  13.056 -0.1430 -0.2579  0.1379
 6332TIP3    H140411   2.145   2.921  13.084  0.2736 -0.2426 -0.2943
 6332TIP3    H240412   2.170   3.069  13.101  0.8600 -0.2364 -1.1066
 6333TIP3   OH240413   4.518   2.287   0.827 -0.5986 -0.1228  0.5236
 6333TIP3    H140414   4.481   2.321   0.745  0.3560 -2.0223 -0.7393
 6333TIP3    H240415   4.609   2.269   0.807 -0.0014  0.5821  2.4115
 6334TIP3   OH240416   1.516   5.687  12.227  0.1522 -0.0193  0.7432
 6334TIP3    H140417   1.525   5.770  12.180 -1.2607 -0.0884  0.3260
 6334TIP3    H240418   1.508   5.621  12.159 -0.0945 -0.3343  1.0728
 6335TIP3   OH240419   6.487   5.263  12.996  0.0563  0.3138  0.0570
 6335TIP3    H140420   6.441   5.211  12.930  0.9169 -0.5693  0.1322
 6335TIP3    H240421   6.419   5.289  13.058 -0.2537 -1.6736  0.6265
 6336TIP3   OH240422   3.741   0.871   4.434  0.3204  0.7209 -0.0053
 6336TIP3    H140423   3.648   0.872   4.414  0.3229  1.9142 -0.0837
 6336TIP3    H240424   3.748   0.827   4.518 -0.4338  1.4332  0.4451
 6337TIP3   OH240425   5.086   0.153   3.201 -0.3118  0.1964  0.1643
 6337TIP3    H140426   5.091   0.192   3.288 -0.8101  2.1047 -0.5983
 6337TIP3    H240427   5.087   0.059   3.216  0.5488  0.4749  2.1636
 6338TIP3   OH240428   5.967   2.821  14.727  0.2507 -0.1265 -0.4792
 6338TIP3    H140429   6.041   2.818  14.667 -1.4862  1.5667 -2.9272
 6338TIP3    H240430   5.976   2.905  14.771  1.0461 -0.9904  1.0804
 6339TIP3   OH240431   0.048   4.072  14.602 -0.3379  0.1517  0.4620
 6339TIP3    H140432   0.126   4.075  14.658 -0.7911  0.9894  1.0807
 6339TIP3    H240433   0.083   4.071  14.513  0.4175 -1.9452  0.7112
 6340TIP3   OH240434   0.258   5.164   3.044 -0.9706 -0.1165 -0.4239
 6340TIP3    H140435   0.206   5.242   3.026 -0.7321  0.2053  0.2529
 6340TIP3    H240436   0.309   5.151   2.964 -2.0632 -0.4231 -1.0813
 6341TIP3   OH240437   6.036   4.353   0.945  0.0493 -0.2670 -0.0694
 6341TIP3    H140438   6.014   4.284   1.007  0.0905 -0.6266 -0.4532
 6341TIP3    H240439   6.078   4.308   0.872  1.7090  0.3478  0.4642
 6342TIP3   OH240440   4.714   4.869  16.406  0.0149 -0.3522 -0.1087
 6342TIP3    H140441   4.651   4.874  16.478 -0.0131  1.7157 -0.1988
 6342TIP3    H240442   4.667   4.823  16.336  0.8722 -4.6924  1.8584
 6343TIP3   OH240443   3.387   1.211   6.036  0.3700  0.0448  0.5764
 6343TIP3    H140444   3.339   1.271   5.979 -2.7040 -0.0834  2.7716
 6343TIP3    H240445   3.441   1.267   6.091 -1.4575  0.8268  1.6884
 6344TIP3   OH240446   6.308   0.576   0.500 -0.3314  0.6522  0.2469
 6344TIP3    H140447   6.250   0.578   0.425 -1.7563 -3.0499  1.0281
 6344TIP3    H240448   6.259   0.620   0.570  0.3933  2.7874 -0.5089
 6345TIP3   OH240449   2.076   5.051  12.467  0.1970 -0.7087 -0.3856
 6345TIP3    H140450   2.096   5.143  12.446 -0.9979 -0.3455  0.0024
 6345TIP3    H240451   2.049   5.053  12.559  0.3955 -1.4946 -0.3079
 6346TIP3   OH240452   4.107   3.001   3.068  0.6290 -0.4130 -0.0257
 6346TIP3    H140453   4.167   3.046   3.009 -0.5108  0.9914 -0.1695
 6346TIP3    H240454   4.163   2.944   3.120  1.7009 -1.6561 -2.3678
 6347TIP3   OH240455   3.144   5.182  11.330  0.4354  0.6127  0.1973
 6347TIP3    H140456   3.068   5.199  11.387  1.1141 -1.4714  1.8952
 6347TIP3    H240457   3.154   5.087  11.333  1.2611  0.5343 -2.5422
 6348TIP3   OH240458   4.548   3.758   0.853 -0.1723 -0.1451 -0.1057
 6348TIP3    H140459   4.558   3.739   0.760 -0.1181  0.3646 -0.2070
 6348TIP3    H240460   4.484   3.694   0.884 -3.2732  2.1316 -1.3409
 6349TIP3   OH240461   2.180   2.696  13.080  0.1972  0.3297  0.5997
 6349TIP3    H140462   2.235   2.698  13.001 -0.0962 -1.2639  0.3304
 6349TIP3    H240463   2.235   2.734  13.148  1.5942 -1.0305  0.2860
 6350TIP3   OH240464   3.033   0.908   2.847  0.3187  0.2450  0.6345
 6350TIP3    H140465   3.100   0.973   2.828  0.7168 -0.2358  0.3870
 6350TIP3    H240466   2.982   0.903   2.766 -1.0428  1.7896  1.3312
 6351TIP3   OH240467   2.980   0.843   0.092  0.1450  0.3679  0.3579
 6351TIP3    H140468   2.973   0.801   0.177  0.7077  0.1103  0.2809
 6351TIP3    H240469   2.954   0.775   0.029 -1.0138  0.7860  0.3650
 6352TIP3   OH240470   5.404   2.006  13.243 -0.2865  0.7630 -0.2893
 6352TIP3    H140471   5.446   1.939  13.190 -0.7956  0.8607 -0.8309
 6352TIP3    H240472   5.392   1.966  13.329  2.2216  1.2316  0.3462
 6353TIP3   OH240473   1.968   4.409  13.931 -0.2218 -0.1818  0.2469
 6353TIP3    H140474   1.902   4.469  13.966  0.4202  0.8936 -0.3133
 6353TIP3    H240475   1.918   4.335  13.897 -1.3652  1.4700 -1.9175
 6354TIP3   OH240476   2.196   3.926  15.967 -0.5228 -0.6788  0.5223
 6354TIP3    H140477   2.174   3.976  15.888  1.0615 -0.2584  0.3076
 6354TIP3    H240478   2.186   3.835  15.941  0.4312 -0.5628 -0.3291
 6355TIP3   OH240479   6.392   0.441  16.835  0.0572 -0.4155 -0.6548
 6355TIP3    H140480   6.341   0.482  16.765  0.0757  1.4123  0.3471
 6355TIP3    H240481   6.377   0.496  16.912  3.1412 -0.0294 -0.2007
 6356TIP3   OH240482   3.982   2.090  15.789 -0.1520 -0.1546  0.3846
 6356TIP3    H140483   4.008   2.145  15.862  0.1603  2.0796 -1.2997
 6356TIP3    H240484   3.927   2.022  15.828 -0.1435  1.0546  2.6378
 6357TIP3   OH240485   3.640   1.140   0.875 -1.1084 -0.1907  0.1103
 6357TIP3    H140486   3.626   1.189   0.956 -2.4352 -0.4772  0.0834
 6357TIP3    H240487   3.559   1.091   0.863 -0.3756 -1.2496 -0.6482
 6358TIP3   OH240488   5.572   3.516  13.038  0.0454 -0.1684 -0.3036
 6358TIP3    H140489   5.642   3.467  13.080 -1.7494 -2.3348  0.3829
 6358TIP3    H240490   5.574   3.602  13.080  2.6565  0.0986 -0.8079
 6359TIP3   OH240491   5.531   1.795   3.587 -0.0340  0.0936 -0.4075
 6359TIP3    H140492   5.482   1.850   3.526 -1.7076  0.3235  1.0473
 6359TIP3    H240493   5.595   1.855   3.626  1.0403 -0.0559 -1.8815
 6360TIP3   OH240494   2.437   4.886  16.735 -0.1289 -0.0318  0.3679
 6360TIP3    H140495   2.519   4.851  16.768  0.2082  2.3920  2.4778
 6360TIP3    H240496   2.370   4.830  16.773  0.4448  0.4682  2.2285
 6361TIP3   OH240497   0.068   1.049   0.734 -0.2848  0.1797 -0.1916
 6361TIP3    H140498   0.109   1.108   0.672  0.3620  0.6481  0.6528
 6361TIP3    H240499   0.130   0.977   0.744 -1.2600 -0.8925 -1.5415
 6362TIP3   OH240500   5.462   2.888  13.961 -0.8905  0.1484  0.0278
 6362TIP3    H140501   5.481   2.967  14.011  1.1284 -0.4808  0.3703
 6362TIP3    H240502   5.547   2.860  13.927 -1.4140 -2.2604  0.5127
 6363TIP3   OH240503   4.120   5.333  13.785 -0.6851  0.2386  0.0674
 6363TIP3    H140504   4.206   5.315  13.748 -0.9211 -0.3340 -0.2139
 6363TIP3    H240505   4.100   5.422  13.758  0.1549  0.6609  0.7885
 6364TIP3   OH240506   5.487   0.193  14.653 -0.2579 -0.6198 -0.1933
 6364TIP3    H140507   5.540   0.114  14.644 -1.9813 -1.7976 -0.5531
 6364TIP3    H240508   5.417   0.181  14.589  0.4132  2.0715 -1.5595
 6365TIP3   OH240509   2.019   5.574  11.567 -0.6003  0.0596 -0.1109
 6365TIP3    H140510   2.034   5.665  11.594 -1.3331  0.1001  0.1959
 6365TIP3    H240511   2.092   5.553  11.509 -1.7554  1.6761 -2.2657
 6366TIP3   OH240512   1.441   2.669   5.191 -0.7608  0.2183 -0.1911
 6366TIP3    H140513   1.354   2.639   5.218 -0.3579 -0.7134  0.1280
 6366TIP3    H240514   1.452   2.753   5.236 -0.9775 -0.2794  0.8318
 6367TIP3   OH240515   1.061   3.075  13.678  0.0232 -0.5047  0.5646
 6367TIP3    H140516   1.109   3.125  13.612 -0.6998 -2.0580 -1.2114
 6367TIP3    H240517   1.119   3.076  13.755  0.8724  1.3689 -0.0380
 6368TIP3   OH240518   0.805   3.527  11.687  0.0979 -0.3066  0.1700
 6368TIP3    H140519   0.861   3.455  11.657  0.9301  0.3230  0.2041
 6368TIP3    H240520   0.754   3.489  11.758  2.7848 -0.0602  2.3906
 6369TIP3   OH240521   4.159   0.267  11.658  0.5053 -0.3841 -0.1111
 6369TIP3    H140522   4.210   0.225  11.727  0.4322 -0.9019 -0.3639
 6369TIP3    H240523   4.117   0.342  11.700  0.3347 -0.7887  0.4399
 6370TIP3   OH240524   5.521   6.573  14.441 -0.3559 -0.2232 -0.2498
 6370TIP3    H140525   5.522   6.656  14.490  2.3255 -0.2847 -0.0662
 6370TIP3    H240526   5.428   6.552  14.432 -1.0460  1.6628  1.6237
 6371TIP3   OH240527   0.160   3.990   4.134  0.0086  0.0998 -0.6256
 6371TIP3    H140528   0.232   3.930   4.113 -0.8671 -0.8558 -0.9256
 6371TIP3    H240529   0.199   4.077   4.123  1.3278 -0.3921 -0.0760
 6372TIP3   OH240530   3.859   1.534   3.463 -0.4374  0.0808 -0.7302
 6372TIP3    H140531   3.796   1.518   3.533  1.7141 -1.3057  1.0202
 6372TIP3    H240532   3.860   1.453   3.413 -0.0504  0.0887 -0.7378
 6373TIP3   OH240533   1.039   5.478   1.337  0.7853  0.0252 -0.1230
 6373TIP3    H140534   1.014   5.471   1.244  1.4222 -0.3317 -0.2743
 6373TIP3    H240535   1.016   5.568   1.361 -0.1333 -0.1237 -0.3960
 6374TIP3   OH240536   2.210   1.760  13.966  0.1447 -0.5847 -0.5514
 6374TIP3    H140537   2.137   1.823  13.964  0.4315 -0.2597 -0.9652
 6374TIP3    H240538   2.192   1.705  14.042 -0.0955  0.0251 -0.1618
 6375TIP3   OH240539   3.040   4.752   0.470 -0.5582 -0.0448  0.2211
 6375TIP3    H140540   3.126   4.711   0.458 -1.0817 -1.3855  0.7685
 6375TIP3    H240541   2.981   4.698   0.417 -1.5347 -1.0580  2.2286
 6376TIP3   OH240542   0.593   5.785   1.273 -0.5215 -0.3334  0.3032
 6376TIP3    H140543   0.584   5.792   1.368 -0.0477  2.6223  0.2390
 6376TIP3    H240544   0.518   5.833   1.238  0.4143  0.4204 -0.7417
 6377TIP3   OH240545   3.579   5.852  15.596  0.2083  0.2360  0.3762
 6377TIP3    H140546   3.586   5.757  15.590  0.7223  0.3587 -3.0980
 6377TIP3    H240547   3.487   5.871  15.580  0.0285  0.3414  1.4708
 6378TIP3   OH240548   2.262   2.602  11.799  0.2221 -0.1562  0.2213
 6378TIP3    H140549   2.202   2.677  11.799 -0.9226 -1.0475  0.4135
 6378TIP3    H240550   2.249   2.560  11.714 -0.5762 -1.2250  0.8417
 6379TIP3   OH240551   3.048   1.326   4.512 -0.7070  0.4909  0.5506
 6379TIP3    H140552   2.995   1.387   4.460 -0.8387  1.0973  1.3853
 6379TIP3    H240553   3.110   1.289   4.449  0.7666  3.0261  0.4102
 6380TIP3   OH240554   0.171   4.243  10.619  0.2685  0.8578 -0.6824
 6380TIP3    H140555   0.234   4.314  10.609 -0.3104  1.4869 -0.0054
 6380TIP3    H240556   0.219   4.164  10.596  1.8375  1.1150  1.4031
 6381TIP3   OH240557   0.578   0.702   3.937  0.6646 -0.3650  0.4889
 6381TIP3    H140558   0.581   0.680   3.844  1.1494  0.3169  0.3381
 6381TIP3    H240559   0.544   0.623   3.979 -0.6662 -0.2935 -0.3935
 6382TIP3   OH240560   5.775   5.858  17.084  0.6420 -0.1759 -0.3904
 6382TIP3    H140561   5.741   5.791  17.024  0.8974 -0.5608 -0.1136
 6382TIP3    H240562   5.746   5.941  17.046 -0.7173 -0.4972 -0.0947
 6383TIP3   OH240563   3.150   4.423  14.461 -0.5392  0.7079  0.2901
 6383TIP3    H140564   3.128   4.507  14.502 -1.3732  0.9118 -0.5339
 6383TIP3    H240565   3.066   4.378  14.452 -0.0454 -0.4313  1.1550
 6384TIP3   OH240566   4.214   4.329   1.861 -0.4461  0.4807  0.7377
 6384TIP3    H140567   4.257   4.340   1.946 -0.8122 -1.1316  1.1582
 6384TIP3    H240568   4.203   4.235   1.852 -3.1152  0.7655  0.2707
 6385TIP3   OH240569   2.408   4.535   5.189 -0.8411 -0.4634 -0.2396
 6385TIP3    H140570   2.382   4.509   5.101  0.9058 -0.4898 -0.7820
 6385TIP3    H240571   2.480   4.597   5.176 -2.1091  1.4318  1.1254
 6386TIP3   OH240572   6.499   0.343  11.715 -0.0840  0.2186  0.7705
 6386TIP3    H140573   6.560   0.269  11.714 -0.6043 -0.2700 -1.4130
 6386TIP3    H240574   6.413   0.302  11.715 -0.3855  0.8545  0.6058
 6387TIP3   OH240575   1.074   5.899  14.893  0.4502  0.3498  0.3972
 6387TIP3    H140576   1.080   5.936  14.981  0.0982  1.3969 -0.0023
 6387TIP3    H240577   1.000   5.839  14.897  2.2052 -1.8840  1.5820
 6388TIP3   OH240578   0.546   6.054   6.105 -0.4903  0.2112 -0.4566
 6388TIP3    H140579   0.506   5.971   6.133 -0.8686  0.2517 -0.8724
 6388TIP3    H240580   0.514   6.118   6.168  0.8972 -0.1783  0.7197
 6389TIP3   OH240581   5.896   3.262   3.034 -0.1745  0.4022 -0.2606
 6389TIP3    H140582   5.860   3.275   2.946 -1.1134 -0.3310 -0.0068
 6389TIP3    H240583   5.879   3.344   3.079 -1.3819  0.1449 -0.2120
 6390TIP3   OH240584   5.859   2.124  12.481  0.6845  0.0478  0.3338
 6390TIP3    H140585   5.902   2.208  12.493  0.5796  0.0264  0.8697
 6390TIP3    H240586   5.930   2.060  12.484  1.1329  0.2612 -2.6041
 6391TIP3   OH240587   5.830   2.006   5.240 -0.3666 -0.0247  0.3973
 6391TIP3    H140588   5.904   1.985   5.297  0.6554  1.6148 -0.2385
 6391TIP3    H240589   5.760   2.032   5.301 -0.2597 -1.0640  0.9851
 6392TIP3   OH240590   4.730   2.704   0.878 -0.0454  0.2679 -0.4048
 6392TIP3    H140591   4.733   2.673   0.788 -0.5366  0.2209 -0.4071
 6392TIP3    H240592   4.659   2.654   0.919  1.2070 -0.8862  0.4557
 6393TIP3   OH240593   5.344   3.457  16.040 -0.6134  0.4520  0.1051
 6393TIP3    H140594   5.308   3.389  15.983 -1.3303  1.3972 -0.6060
 6393TIP3    H240595   5.321   3.539  15.996  0.3075  1.1526  0.9010
 6394TIP3   OH240596   6.573   3.547   6.108  0.2431  0.1454  0.4049
 6394TIP3    H140597   6.623   3.473   6.143  0.2685 -0.1435 -0.2268
 6394TIP3    H240598   6.633   3.590   6.048  0.2700  0.7601  0.8701
 6395TIP3   OH240599   5.577   5.039  13.469  0.0836 -0.0410 -0.0918
 6395TIP3    H140600   5.533   5.118  13.437 -0.2063  0.3589  1.2345
 6395TIP3    H240601   5.506   4.974  13.477  0.2941 -0.4014 -1.0204
 6396TIP3   OH240602   5.653   0.050   5.398 -0.0016  0.0120  0.8856
 6396TIP3    H140603   5.718   0.058   5.327 -1.5247 -1.2639 -0.7500
 6396TIP3    H240604   5.600   0.129   5.390 -0.5187 -0.3926  0.1967
 6397TIP3   OH240605   5.727   1.875  11.248  0.0094 -0.0677  0.3160
 6397TIP3    H140606   5.795   1.877  11.181 -0.7835  0.5114 -0.5093
 6397TIP3    H240607   5.666   1.945  11.222 -0.6686 -0.2885  1.2625
 6398TIP3   OH240608   4.059   1.320   5.532 -0.6786  0.2620  0.3755
 6398TIP3    H140609   4.106   1.329   5.449  0.1595 -0.6664  0.7209
 6398TIP3    H240610   4.118   1.267   5.587 -1.7249 -0.1234  1.1548
 6399TIP3   OH240611   0.356   3.711   0.142  0.0258 -0.1608  0.2766
 6399TIP3    H140612   0.447   3.738   0.132 -0.0997  0.3891  0.5554
 6399TIP3    H240613   0.335   3.730   0.233 -1.0050  1.7813 -0.3127
 6400TIP3   OH240614   6.745   3.291   2.919  0.1917 -0.2607  0.1479
 6400TIP3    H140615   6.678   3.336   2.971 -0.9450 -0.9439 -0.6749
 6400TIP3    H240616   6.696   3.232   2.862  1.4687 -0.4059 -0.8657
 6401TIP3   OH240617   5.527   3.867   3.542 -0.1317  0.4506 -0.5229
 6401TIP3    H140618   5.484   3.791   3.581 -1.2377  2.1264  1.7816
 6401TIP3    H240619   5.458   3.911   3.492  0.3247  0.3076 -1.2873
 6402TIP3   OH240620   3.584   3.657   1.206 -0.4005  0.4594  0.1146
 6402TIP3    H140621   3.626   3.648   1.120 -0.4544  1.5664 -0.0418
 6402TIP3    H240622   3.615   3.741   1.239  0.2152 -0.3086  1.5326
 6403TIP3   OH240623   1.152   5.696   1.605 -0.1650  0.3619  0.6663
 6403TIP3    H140624   1.083   5.630   1.607 -0.6225  0.7006 -1.6676
 6403TIP3    H240625   1.131   5.755   1.677  0.0484 -1.7794  2.5945
 6404TIP3   OH240626   1.711   5.914   1.343  0.0832  0.7358  0.1551
 6404TIP3    H140627   1.728   5.941   1.253  4.5713  1.5841  1.0134
 6404TIP3    H240628   1.712   5.818   1.340 -2.3322  0.6736 -0.9360
 6405TIP3   OH240629   5.265   1.463   3.357  0.7255 -0.5540 -0.7464
 6405TIP3    H140630   5.223   1.426   3.279  0.7841  0.4505 -1.2706
 6405TIP3    H240631   5.223   1.548   3.368  0.7520 -0.6729  0.3029
 6406TIP3   OH240632   2.289   6.016   2.803  0.0506  0.2835  1.0722
 6406TIP3    H140633   2.341   5.983   2.876  0.9929  0.8625  0.6855
 6406TIP3    H240634   2.336   6.095   2.774  0.1161 -0.3217 -0.6006
 6407TIP3   OH240635   2.203   6.729   2.091  0.0196 -0.3521  0.2971
 6407TIP3    H140636   2.116   6.697   2.116  0.3628 -0.2964  1.6037
 6407TIP3    H240637   2.215   6.697   2.001  0.0653 -3.3570  1.2528
 6408TIP3   OH240638   1.236   6.210   1.714 -0.0893 -0.5296 -0.0780
 6408TIP3    H140639   1.190   6.294   1.713 -2.2169 -1.6401 -0.4574
 6408TIP3    H240640   1.179   6.151   1.764  1.2025 -1.8401 -0.0844
 6409TIP3   OH240641   6.518   2.379   3.003  0.3028  0.3126 -0.3372
 6409TIP3    H140642   6.543   2.441   2.935 -0.6142  1.5753  0.4321
 6409TIP3    H240643   6.582   2.393   3.073  0.7151 -0.3647 -0.5661
 6410TIP3   OH240644   1.058   0.037  13.964  0.0460 -1.2155  0.1569
 6410TIP3    H140645   1.001  -0.021  14.015 -2.2446 -0.9780 -1.9467
 6410TIP3    H240646   1.080   0.107  14.025 -3.3224 -0.4546  0.7152
 6411TIP3   OH240647   5.305   2.828   0.718  0.2309  0.1061  0.0507
 6411TIP3    H140648   5.212   2.847   0.723  0.1089 -0.1432 -1.0962
 6411TIP3    H240649   5.315   2.774   0.640  1.6833  2.3175 -1.4206
 6412TIP3   OH240650   0.605   4.862   1.262  0.7950 -0.1638 -0.2256
 6412TIP3    H140651   0.684   4.847   1.313 -0.1471 -0.7218  1.1630
 6412TIP3    H240652   0.632   4.853   1.171  2.3476 -0.1660  0.2105
 6413TIP3   OH240653   6.051   0.263   1.943 -0.0638  0.1788  0.5223
 6413TIP3    H140654   6.128   0.321   1.951 -1.5270  2.1889  0.8270
 6413TIP3    H240655   6.055   0.231   1.853  1.1713  0.1823  0.5582
 6414TIP3   OH240656   0.673   2.343   3.345  0.0451  0.3901 -0.1054
 6414TIP3    H140657   0.615   2.393   3.403 -0.1919 -0.0270  0.0277
 6414TIP3    H240658   0.707   2.273   3.401  1.2469  1.0428  0.0086
 6415TIP3   OH240659   0.384   4.839  14.934  0.2277 -0.6585  0.2916
 6415TIP3    H140660   0.337   4.846  15.017  1.2056 -2.6450  1.0801
 6415TIP3    H240661   0.352   4.758  14.896  1.4438 -0.9248 -0.1801
 6416TIP3   OH240662   0.087   6.339   4.335 -0.0974 -0.0152 -0.0907
 6416TIP3    H140663   0.042   6.317   4.254  1.1360  1.6480 -1.3189
 6416TIP3    H240664   0.137   6.418   4.313 -0.1901  0.8425  2.4713
 6417TIP3   OH240665   2.041   6.032  10.954  0.4274  0.6321 -0.6600
 6417TIP3    H140666   1.997   5.981  10.886 -1.0288  0.6794  0.2105
 6417TIP3    H240667   2.013   5.992  11.036  0.2081  2.0819  0.0049
 6418TIP3   OH240668   5.454   5.311  16.308  0.5931 -0.2712 -0.6498
 6418TIP3    H140669   5.492   5.258  16.238 -0.5983 -0.8252 -0.8975
 6418TIP3    H240670   5.438   5.249  16.379 -1.7491 -0.5291 -1.3045
 6419TIP3   OH240671   4.338   1.206  11.252 -0.0585  0.2552  0.1523
 6419TIP3    H140672   4.335   1.158  11.335  1.5095  1.2185  0.8087
 6419TIP3    H240673   4.376   1.145  11.190 -1.8114 -0.6897 -0.0607
 6420TIP3   OH240674   1.850   3.176  14.023 -0.1183 -0.0344 -0.4538
 6420TIP3    H140675   1.771   3.189  14.075 -0.0779 -0.5162 -0.2618
 6420TIP3    H240676   1.862   3.081  14.021  0.4731  0.0360 -0.4582
 6421TIP3   OH240677   5.961   5.484   1.518 -0.2730 -0.1520 -0.2747
 6421TIP3    H140678   6.026   5.425   1.480 -0.1013  0.2282 -0.5759
 6421TIP3    H240679   5.950   5.453   1.608 -0.7078 -1.0783 -0.6396
 6422TIP3   OH240680   5.922   1.893  12.253 -0.1971 -0.3849 -0.6590
 6422TIP3    H140681   5.847   1.950  12.234 -0.3502 -0.4909 -0.3787
 6422TIP3    H240682   5.989   1.920  12.190 -0.8498 -1.0358 -1.6726
 6423TIP3   OH240683   6.351   0.508   3.111  0.1964 -0.1477 -0.0782
 6423TIP3    H140684   6.341   0.552   3.195  1.4188  0.9713 -0.4819
 6423TIP3    H240685   6.417   0.560   3.065 -0.0960 -1.0214 -1.5358
 6424TIP3   OH240686   4.390   6.505   3.225  0.5510 -0.1395 -0.3757
 6424TIP3    H140687   4.407   6.439   3.157  2.0616 -0.4825  0.2824
 6424TIP3    H240688   4.443   6.476   3.299 -0.2820  0.7837  0.6071
 6425TIP3   OH240689   5.855   6.332  14.940 -0.1406  0.4155  0.6506
 6425TIP3    H140690   5.847   6.275  15.016  0.4550 -0.0077  0.4030
 6425TIP3    H240691   5.947   6.357  14.938 -0.1372  0.3697  0.0289
 6426TIP3   OH240692   6.290   1.865  15.001 -0.4858  0.5505  0.5434
 6426TIP3    H140693   6.308   1.796  15.064 -2.0043 -0.9131 -0.5398
 6426TIP3    H240694   6.248   1.820  14.927 -1.7473  2.6569 -0.1158
 6427TIP3   OH240695   5.927   3.687  16.576 -0.4671  0.5658 -0.2642
 6427TIP3    H140696   5.856   3.677  16.513  0.1536 -1.2239 -0.7386
 6427TIP3    H240697   5.995   3.627  16.546  0.5514  0.9587  1.1381
 6428TIP3   OH240698   1.987   6.346   2.431 -0.7490 -0.3587  0.6165
 6428TIP3    H140699   1.970   6.436   2.460  0.5385  0.6334 -1.4493
 6428TIP3    H240700   2.044   6.310   2.499 -1.5784  0.2316  1.6605
 6429TIP3   OH240701   2.411   5.694  16.569 -0.0608  0.1034  0.0863
 6429TIP3    H140702   2.371   5.631  16.509  0.2266 -0.2400  0.2541
 6429TIP3    H240703   2.411   5.650  16.654 -0.3146  0.5215  0.3105
 6430TIP3   OH240704   0.864   2.646   6.137 -0.2143  0.8007  0.1368
 6430TIP3    H140705   0.924   2.582   6.099  1.0700  1.0050  1.6803
 6430TIP3    H240706   0.820   2.600   6.208 -0.6663  1.1163  0.0680
 6431TIP3   OH240707   6.789   4.145  11.337  0.2358  0.5767 -0.1886
 6431TIP3    H140708   6.798   4.124  11.244 -1.3726  0.2649 -0.3134
 6431TIP3    H240709   6.727   4.080  11.370 -1.1105  2.1414  0.5171
 6432TIP3   OH240710   1.616   4.049   3.092  0.0781  0.2224  0.3420
 6432TIP3    H140711   1.535   4.008   3.122  0.3837 -0.8270 -0.2078
 6432TIP3    H240712   1.683   4.018   3.154  0.2153  0.3773  0.2725
 6433TIP3   OH240713   6.489   2.960   0.762  0.2888  0.1897  0.2171
 6433TIP3    H140714   6.536   2.913   0.693  0.1117  1.7280 -1.0018
 6433TIP3    H240715   6.545   3.035   0.782 -1.0574  1.4021 -0.4189
 6434TIP3   OH240716   0.941   3.762   3.956 -0.6517  0.1298  0.2758
 6434TIP3    H140717   0.991   3.692   3.914  0.4536  1.4275 -0.6467
 6434TIP3    H240718   0.854   3.756   3.916  0.2160  1.0023 -1.9059
 6435TIP3   OH240719   5.875   0.432  16.169  0.0374  0.1814 -0.2098
 6435TIP3    H140720   5.897   0.481  16.090 -1.1244 -1.4703 -1.6261
 6435TIP3    H240721   5.782   0.413  16.160 -0.9345  2.4989  3.0608
 6436TIP3   OH240722   4.399   6.315   2.559  0.3779  0.1349  0.5493
 6436TIP3    H140723   4.312   6.354   2.563  0.7023  0.9719 -0.3294
 6436TIP3    H240724   4.442   6.358   2.485  0.4736 -2.4298 -1.0385
 6437TIP3   OH240725   3.614   2.545  15.538 -0.2537 -0.1175  0.1367
 6437TIP3    H140726   3.528   2.561  15.577  0.2367 -1.6159  1.9810
 6437TIP3    H240727   3.664   2.625  15.556 -0.2520 -0.5127  2.1230
 6438TIP3   OH240728   6.528   1.193  16.642 -0.2237 -0.4436 -0.3424
 6438TIP3    H140729   6.446   1.184  16.593  0.3580  0.1249 -1.4702
 6438TIP3    H240730   6.531   1.286  16.666  1.4214  0.2682 -2.8681
 6439TIP3   OH240731   0.185   3.290  17.026 -0.0023 -0.5626 -0.1793
 6439TIP3    H140732   0.211   3.343  16.951  0.6007 -0.4966  0.0762
 6439TIP3    H240733   0.103   3.329  17.056  0.6910  0.5585  0.3260
 6440TIP3   OH240734   4.932   6.586   1.763 -0.6720 -0.0149  0.3403
 6440TIP3    H140735   4.849   6.543   1.782 -1.3249  1.7555  1.6644
 6440TIP3    H240736   4.908   6.665   1.714  0.3770 -0.2779 -0.6552
 6441TIP3   OH240737   4.377   4.227   5.188 -0.7639  0.1517  0.5348
 6441TIP3    H140738   4.377   4.258   5.097 -1.6759 -0.5594  0.2760
 6441TIP3    H240739   4.309   4.278   5.231 -1.7035 -0.8586  0.3080
 6442TIP3   OH240740   3.797   6.130   3.257 -0.1377  0.3014 -0.1140
 6442TIP3    H140741   3.875   6.149   3.310  0.6150  0.9852 -1.4259
 6442TIP3    H240742   3.827   6.138   3.167 -1.4743 -0.5310 -0.6567
 6443TIP3   OH240743   4.482   6.438  12.192 -0.2221  0.0132 -0.6774
 6443TIP3    H140744   4.553   6.435  12.128  0.7141 -0.4205  0.3424
 6443TIP3    H240745   4.418   6.374  12.161  0.2504 -0.2360 -1.1360
 6444TIP3   OH240746   0.548   2.326  12.182 -0.0229  0.0081 -0.2794
 6444TIP3    H140747   0.597   2.397  12.222 -1.6528  1.3756 -0.6231
 6444TIP3    H240748   0.614   2.278  12.131  1.0609  1.4760 -0.3388
 6445TIP3   OH240749   4.108   0.977  16.974 -0.7405 -0.3895 -0.5847
 6445TIP3    H140750   4.040   1.024  16.926 -0.8552  0.1039  0.0427
 6445TIP3    H240751   4.190   1.013  16.941 -0.8303  0.4944  0.1013
 6446TIP3   OH240752   5.094   4.644   2.535 -0.2118  0.4585  0.0059
 6446TIP3    H140753   5.008   4.664   2.498  0.1302 -0.5496 -1.4382
 6446TIP3    H240754   5.125   4.570   2.483  1.0124  0.0081  1.3135
 6447TIP3   OH240755   2.667   0.722  13.506  0.1640  0.2418  0.6951
 6447TIP3    H140756   2.733   0.791  13.517 -1.2164  1.7555 -0.1418
 6447TIP3    H240757   2.588   0.758  13.545 -0.7053 -0.6922 -0.1507
 6448TIP3   OH240758   6.237   1.312   3.356 -0.0570  0.1142 -0.2366
 6448TIP3    H140759   6.158   1.360   3.379 -1.4733 -0.3173 -3.5665
 6448TIP3    H240760   6.258   1.261   3.434 -1.7894  1.8516  1.4715
 6449TIP3   OH240761   1.927   6.314  11.581 -0.1812 -0.7077 -0.6834
 6449TIP3    H140762   1.964   6.290  11.667 -1.6488 -2.4025 -0.4815
 6449TIP3    H240763   1.995   6.289  11.518  1.5182  1.8139 -0.0400
 6450TIP3   OH240764   0.395   3.864  12.931  0.0522  0.1795 -0.5974
 6450TIP3    H140765   0.302   3.869  12.910 -0.0820  0.0790 -0.0311
 6450TIP3    H240766   0.421   3.955  12.946 -0.3462  0.0747  0.8938
 6451TIP3   OH240767   2.771   5.361  10.703  0.6957 -0.3563  0.1050
 6451TIP3    H140768   2.779   5.269  10.727  1.0469 -0.2214  0.5290
 6451TIP3    H240769   2.689   5.390  10.745  1.3435 -0.1039  1.2475
 6452TIP3   OH240770   3.701   5.693   2.444 -0.0535  0.2600 -0.4810
 6452TIP3    H140771   3.679   5.744   2.521 -1.2170 -2.1701  0.9272
 6452TIP3    H240772   3.661   5.740   2.371 -0.7173  1.5256  0.6618
 6453TIP3   OH240773   1.930   5.431   3.483 -0.1136  1.0100 -0.2554
 6453TIP3    H140774   1.914   5.426   3.389  0.8274 -2.6666 -0.3689
 6453TIP3    H240775   2.025   5.430   3.491 -0.1567 -1.5064  0.6887
 6454TIP3   OH240776   6.131   4.920  10.996 -0.5550  0.1861  0.1024
 6454TIP3    H140777   6.184   4.992  10.961  2.8730 -2.3440 -0.4710
 6454TIP3    H240778   6.077   4.891  10.922 -0.9340  1.2637 -0.0544
 6455TIP3   OH240779   2.729   6.094   5.658  0.1940 -0.5106  0.0900
 6455TIP3    H140780   2.654   6.035   5.657 -1.2837  1.2566  1.1737
 6455TIP3    H240781   2.737   6.124   5.567  0.2260 -1.4544 -0.2284
 6456TIP3   OH240782   2.239   0.679  16.482 -0.5613 -0.3826 -1.1880
 6456TIP3    H140783   2.238   0.673  16.578 -1.2233  0.4336 -1.1371
 6456TIP3    H240784   2.217   0.770  16.463 -0.4887 -0.5510 -2.1253
 6457TIP3   OH240785   5.684   0.661  11.540  0.2447  0.3102 -0.5664
 6457TIP3    H140786   5.662   0.588  11.597  1.0147 -1.5092 -2.4724
 6457TIP3    H240787   5.601   0.706  11.526 -0.1341  0.2078  1.1297
 6458TIP3   OH240788   0.268   1.824  11.331 -0.3624 -0.2412  0.2187
 6458TIP3    H140789   0.234   1.758  11.271 -0.0547 -1.1353  1.0125
 6458TIP3    H240790   0.191   1.864  11.370 -0.5520  0.0094 -0.3952
 6459TIP3   OH240791   1.749   4.700   0.246 -0.5092 -0.1629  0.0283
 6459TIP3    H140792   1.669   4.683   0.295 -0.0243  0.6957  1.1763
 6459TIP3    H240793   1.804   4.624   0.264 -1.0266 -0.7293 -0.7216
 6460TIP3   OH240794   2.220   1.655   0.844 -0.3789  0.3499 -0.0664
 6460TIP3    H140795   2.248   1.583   0.787 -1.7583  0.2353 -0.6470
 6460TIP3    H240796   2.244   1.734   0.795 -2.7936  0.2685 -1.5659
 6461TIP3   OH240797   5.976   2.506  17.156  0.2531 -0.2205  0.2295
 6461TIP3    H140798   5.932   2.425  17.130  0.3849 -0.2747  0.1710
 6461TIP3    H240799   5.989   2.553  17.074  1.1856 -0.6519  0.1151
 6462TIP3   OH240800   0.791   0.583  12.768 -0.5995 -0.0390  0.6996
 6462TIP3    H140801   0.758   0.521  12.703 -0.2176  0.2696  0.2066
 6462TIP3    H240802   0.819   0.528  12.842  0.8002 -0.5624 -0.1825
 6463TIP3   OH240803   6.775   3.744   1.340 -0.7321  0.0553  0.1108
 6463TIP3    H140804   6.783   3.648   1.338 -1.8197 -0.0727  0.6878
 6463TIP3    H240805   6.781   3.767   1.432  1.4901  0.7757 -0.1672
 6464TIP3   OH240806   3.728   0.012  11.226  0.3467  0.8422 -0.7067
 6464TIP3    H140807   3.642   0.053  11.236  0.0776  0.5789 -1.8688
 6464TIP3    H240808   3.720  -0.045  11.150  0.5750 -1.7371  1.0499
 6465TIP3   OH240809   3.669   6.741  11.568 -0.2716  0.0829 -0.8052
 6465TIP3    H140810   3.716   6.720  11.487  1.7488  0.0367  0.3068
 6465TIP3    H240811   3.580   6.710  11.553  0.0732 -0.0435 -2.9466
 6466TIP3   OH240812   2.618   6.074  14.596 -0.1150  0.0465  0.1266
 6466TIP3    H140813   2.663   6.001  14.639  0.6492  0.9302  0.8819
 6466TIP3    H240814   2.611   6.141  14.664 -0.2737  0.9008 -0.7103
 6467TIP3   OH240815   3.688   5.312  16.065  0.1143  1.0222 -0.1086
 6467TIP3    H140816   3.755   5.365  16.022 -1.3524  1.3135 -2.1576
 6467TIP3    H240817   3.608   5.365  16.060 -0.6918 -0.0811  0.6077
 6468TIP3   OH240818   4.813   2.774  12.915 -0.2364 -0.0828  0.3768
 6468TIP3    H140819   4.744   2.707  12.911 -1.5609  1.2772 -3.1541
 6468TIP3    H240820   4.853   2.772  12.828  0.8206  2.5833  0.7240
 6469TIP3   OH240821   3.577   0.486   3.356  0.2376 -0.2432 -0.2756
 6469TIP3    H140822   3.517   0.453   3.423  1.0704 -1.2847 -0.0198
 6469TIP3    H240823   3.579   0.417   3.290  3.8009 -1.9277  1.3567
 6470TIP3   OH240824   1.790   5.697  13.272 -0.4366  0.1766  0.0994
 6470TIP3    H140825   1.727   5.738  13.213  0.4920  1.9207  0.2557
 6470TIP3    H240826   1.762   5.723  13.359 -0.2066 -0.0646  0.2476
 6471TIP3   OH240827   5.773   6.047  12.699 -0.5362 -0.1883  0.0870
 6471TIP3    H140828   5.699   6.026  12.757 -0.8548  2.0561  0.6015
 6471TIP3    H240829   5.733   6.094  12.626  0.3148  0.6124  0.1236
 6472TIP3   OH240830   2.058   3.610  15.442 -0.0765  0.2972  0.0983
 6472TIP3    H140831   2.092   3.692  15.478 -0.6825  1.0345 -0.9299
 6472TIP3    H240832   1.970   3.633  15.412 -0.3401 -0.8024  0.0215
 6473TIP3   OH240833   0.673   3.082   0.273 -0.5090 -0.8365 -0.1610
 6473TIP3    H140834   0.741   3.018   0.252  0.5747  0.3603 -0.4298
 6473TIP3    H240835   0.632   3.101   0.188  1.8217  1.7061 -0.8621
 6474TIP3   OH240836   5.520   2.208   0.972 -0.0225 -0.3496 -0.1855
 6474TIP3    H140837   5.448   2.147   0.984 -0.2671  0.0673  0.5194
 6474TIP3    H240838   5.581   2.188   1.044  1.6664 -2.1792 -1.9940
 6475TIP3   OH240839   5.924   4.361   4.378 -0.2197  0.7890  0.1269
 6475TIP3    H140840   5.836   4.326   4.392  0.7173 -2.2318 -0.6294
 6475TIP3    H240841   5.979   4.314   4.441  1.1764  0.9149 -0.9315
 6476TIP3   OH240842   4.582   5.756   2.052 -0.4934 -0.4600  0.6225
 6476TIP3    H140843   4.567   5.835   2.001  0.0263 -1.4351 -1.1206
 6476TIP3    H240844   4.669   5.768   2.090  0.2003 -0.7631 -0.8030
 6477TIP3   OH240845   1.688   3.447  11.613 -0.6588 -0.0779  0.6804
 6477TIP3    H140846   1.705   3.458  11.707  1.3375  0.3293  0.3197
 6477TIP3    H240847   1.659   3.533  11.584 -1.7733 -0.3351  0.9994
 6478TIP3   OH240848   5.121   3.314  11.769  0.4604  0.6829  0.5065
 6478TIP3    H140849   5.102   3.277  11.683 -0.1370 -1.1822  1.3827
 6478TIP3    H240850   5.034   3.329  11.808  0.7329  0.0619  1.3593
 6479TIP3   OH240851   1.732   5.060  13.532 -0.1856  0.4313  0.2718
 6479TIP3    H140852   1.779   5.045  13.450 -0.5488  0.1978  0.1040
 6479TIP3    H240853   1.764   4.992  13.591  0.6344  1.0552  0.5714
 6480TIP3   OH240854   6.597   0.292  15.716  0.3469 -0.5683 -0.3222
 6480TIP3    H140855   6.502   0.304  15.724  0.3438  1.4133 -2.5941
 6480TIP3    H240856   6.611   0.267  15.625  2.1489  0.8063 -0.4688
 6481TIP3   OH240857   2.763   2.591  11.929 -1.1701 -0.5440 -0.1503
 6481TIP3    H140858   2.740   2.619  11.841 -0.5798 -0.1708 -0.1935
 6481TIP3    H240859   2.816   2.512  11.915  0.2535  0.3784 -0.2376
 6482TIP3   OH240860   2.327   2.212  15.896  0.0510  0.3210 -0.0663
 6482TIP3    H140861   2.242   2.250  15.917  0.4432  0.7606  0.8129
 6482TIP3    H240862   2.337   2.139  15.958 -0.4500 -0.8831 -1.3612
 6483TIP3   OH240863   2.040   3.674  17.055 -0.4915  0.5793 -0.2589
 6483TIP3    H140864   2.113   3.633  17.009 -1.4387 -0.6377 -0.7352
 6483TIP3    H240865   2.081   3.721  17.128  1.0150  2.1176 -1.9928
 6484TIP3   OH240866   3.624   0.611   5.376 -0.3564  0.8705 -0.0556
 6484TIP3    H140867   3.646   0.705   5.376  1.7431  0.4516  1.4018
 6484TIP3    H240868   3.639   0.583   5.466 -3.4593 -0.4023  0.1719
 6485TIP3   OH240869   6.089   2.683  15.757  0.0422  0.6117  0.7847
 6485TIP3    H140870   6.076   2.634  15.675 -0.7308  1.0641  0.6328
 6485TIP3    H240871   6.155   2.633  15.804 -0.3083 -0.2606  0.3690
 6486TIP3   OH240872   5.739   5.766  16.064 -0.8336  0.6000 -0.0654
 6486TIP3    H140873   5.714   5.779  15.972  0.0145  3.0469 -0.0234
 6486TIP3    H240874   5.816   5.822  16.076 -1.2562  0.7705  2.2862
 6487TIP3   OH240875   3.298   0.381   2.638 -0.5241  0.4863 -0.5129
 6487TIP3    H140876   3.347   0.399   2.559 -0.9893  1.7267 -0.5391
 6487TIP3    H240877   3.222   0.330   2.608 -1.8411  2.7264 -1.2489
 6488TIP3   OH240878   0.531   4.932  12.829  0.1135 -0.0441 -0.1001
 6488TIP3    H140879   0.454   4.888  12.865 -0.3943  0.9158  0.0437
 6488TIP3    H240880   0.498   4.978  12.752  0.4455  0.6960  0.1887
 6489TIP3   OH240881   5.962   5.852   4.898 -0.1197  0.3551  0.1424
 6489TIP3    H140882   6.043   5.880   4.939  1.6026 -0.4280 -2.4574
 6489TIP3    H240883   5.894   5.903   4.941  1.8855  1.9658  1.5697
 6490TIP3   OH240884   0.897   5.098  16.264 -0.1614 -0.3359 -0.0814
 6490TIP3    H140885   0.810   5.138  16.268 -0.4088 -0.9521  2.2339
 6490TIP3    H240886   0.898   5.035  16.336  2.0179 -0.7573 -0.4031
 6491TIP3   OH240887   0.835   5.185  16.986 -0.5137 -0.5502 -0.2574
 6491TIP3    H140888   0.851   5.092  17.004  2.4006 -0.3092 -1.0454
 6491TIP3    H240889   0.816   5.223  17.072  2.4967 -1.2132  0.8251
 6492TIP3   OH240890   4.770   0.548  14.392  0.0751 -0.2902  0.3005
 6492TIP3    H140891   4.699   0.560  14.454 -2.2575 -2.0333 -1.8247
 6492TIP3    H240892   4.760   0.620  14.329 -1.1385 -1.6050 -1.0895
 6493TIP3   OH240893   0.657   2.821  14.640  0.5222  0.6837  0.1583
 6493TIP3    H140894   0.577   2.869  14.619  1.3372  1.9784 -0.0989
 6493TIP3    H240895   0.681   2.777  14.559  0.7325  1.3094 -0.1265
 6494TIP3   OH240896   0.497   1.164   3.253  0.1136 -0.2080 -0.0506
 6494TIP3    H140897   0.530   1.131   3.336 -0.2880  0.4867  0.4023
 6494TIP3    H240898   0.530   1.103   3.187 -1.0639 -1.8223  0.7907
 6495TIP3   OH240899   0.821   4.892  15.787 -0.0080  0.6177 -0.4798
 6495TIP3    H140900   0.729   4.863  15.787 -0.4973  2.0115 -1.8820
 6495TIP3    H240901   0.818   4.979  15.826  1.0240 -0.0580  1.1812
 6496TIP3   OH240902   3.382   3.614   5.428  0.0247  0.6435  0.6109
 6496TIP3    H140903   3.372   3.625   5.333 -0.4116 -1.1821  0.4154
 6496TIP3    H240904   3.384   3.520   5.441 -0.7231  0.8529  2.5212
 6497TIP3   OH240905   3.849   1.141   2.723  0.1880 -0.0147 -0.1584
 6497TIP3    H140906   3.840   1.134   2.628  0.5234  0.4721 -0.2303
 6497TIP3    H240907   3.928   1.194   2.736  1.0506 -1.3836  0.4107
 6498TIP3   OH240908   4.098   2.021   3.692 -0.2746 -0.0307 -0.2083
 6498TIP3    H140909   4.148   2.063   3.762  1.1207 -1.1031 -0.5140
 6498TIP3    H240910   4.050   2.093   3.651 -0.9874  0.6559  1.6929
 6499TIP3   OH240911   1.593   3.367  13.540 -0.0950  0.1713 -0.2563
 6499TIP3    H140912   1.583   3.284  13.586 -1.1378  0.9621  1.0304
 6499TIP3    H240913   1.601   3.432  13.610 -0.4043  1.2683 -1.2121
 6500TIP3   OH240914   4.809   3.948  16.641  0.0561 -0.1798  0.3870
 6500TIP3    H140915   4.838   3.857  16.645  1.3933  0.2444  1.0927
 6500TIP3    H240916   4.890   3.998  16.627 -0.7830  0.8314 -1.1688
 6501TIP3   OH240917   4.543   1.786   3.540 -0.7418 -0.1873 -0.0150
 6501TIP3    H140918   4.556   1.691   3.546  2.6653 -0.0058 -2.0494
 6501TIP3    H240919   4.476   1.797   3.473 -0.7569 -1.1343 -0.1729
 6502TIP3   OH240920   0.622   2.770  11.784  0.3752 -0.3642  0.9421
 6502TIP3    H140921   0.634   2.861  11.759  0.0266 -0.8626 -1.2709
 6502TIP3    H240922   0.580   2.730  11.708 -0.5235 -2.1264  2.2984
 6503TIP3   OH240923   2.936   6.705   4.327  0.1966 -0.5059 -0.2047
 6503TIP3    H140924   2.882   6.732   4.254 -0.1080  0.7972  0.4649
 6503TIP3    H240925   2.876   6.660   4.387 -0.7427  2.6923  1.4978
 6504TIP3   OH240926   4.263   6.357  13.713  0.1138 -0.0111  0.1935
 6504TIP3    H140927   4.270   6.283  13.653 -0.0728 -0.4395  0.6981
 6504TIP3    H240928   4.199   6.416  13.671  0.8200  0.2319 -0.5744
 6505TIP3   OH240929   3.532   0.656   1.594 -0.2053 -0.0842  0.3140
 6505TIP3    H140930   3.441   0.673   1.571 -0.2981  3.2322  2.3357
 6505TIP3    H240931   3.581   0.667   1.512 -1.2026  3.7161  0.0106
 6506TIP3   OH240932   5.993   3.297  16.593 -0.0356 -0.2008 -0.9995
 6506TIP3    H140933   5.900   3.273  16.602  0.2126 -0.3579  2.3106
 6506TIP3    H240934   6.040   3.216  16.611  0.7412  0.3645 -0.4537
 6507TIP3   OH240935   5.462   3.954  14.950 -0.7838  0.3457 -0.7177
 6507TIP3    H140936   5.455   3.892  14.878 -0.9727  0.3536 -0.7075
 6507TIP3    H240937   5.549   3.994  14.940  0.6156 -1.9978  0.9513
 6508TIP3   OH240938   1.085   6.729   4.100  0.0716  0.2698  0.0570
 6508TIP3    H140939   0.998   6.707   4.134 -0.6863  0.8956 -1.3772
 6508TIP3    H240940   1.138   6.743   4.177 -1.0064 -0.4976  0.9748
 6509TIP3   OH240941   2.090   5.864  11.340 -0.5099  0.0904  0.5236
 6509TIP3    H140942   2.107   5.953  11.310  2.6790 -0.7821 -0.6227
 6509TIP3    H240943   2.127   5.861  11.429  1.0906 -0.5004 -0.1218
 6510TIP3   OH240944   1.951   1.685  16.392 -0.3142 -0.4065  0.6079
 6510TIP3    H140945   1.874   1.672  16.448 -0.1792  0.2058  0.9479
 6510TIP3    H240946   1.923   1.657  16.305 -0.7160 -0.7976  0.8585
 6511TIP3   OH240947   3.015   2.026   1.896  0.2374  0.0201 -0.1878
 6511TIP3    H140948   2.925   2.051   1.878  0.4694  1.3645  0.3777
 6511TIP3    H240949   3.026   1.941   1.853 -0.4366  1.1469 -2.7488
 6512TIP3   OH240950   2.124   0.442   3.358 -0.3349 -0.5711 -0.6042
 6512TIP3    H140951   2.142   0.364   3.411 -1.7636  0.3288  1.3653
 6512TIP3    H240952   2.191   0.505   3.385 -0.0016 -0.6823 -1.1760
 6513TIP3   OH240953   0.931   2.993   6.199  0.1404 -0.3746 -0.0337
 6513TIP3    H140954   0.877   2.943   6.260  0.1724 -1.0461 -0.5423
 6513TIP3    H240955   0.971   3.061   6.252  1.5581 -1.9999  1.0916
 6514TIP3   OH240956   3.964   1.336   0.802 -0.0332  0.0317  0.1001
 6514TIP3    H140957   3.903   1.318   0.731 -0.9645 -1.2488  1.1735
 6514TIP3    H240958   3.921   1.403   0.854  0.3161  0.4488 -0.1487
 6515TIP3   OH240959   1.930   3.650  16.176  0.1172  0.0313  0.2608
 6515TIP3    H140960   1.856   3.613  16.128  0.1558  0.4158 -0.1015
 6515TIP3    H240961   1.914   3.744  16.177 -0.6670 -0.0855  2.3354
 6516TIP3   OH240962   5.172   0.886   0.584 -0.5463 -0.4136 -0.2040
 6516TIP3    H140963   5.174   0.822   0.513 -0.9107 -1.8131  0.9907
 6516TIP3    H240964   5.263   0.913   0.595 -0.2234 -1.4989 -0.0775
 6517TIP3   OH240965   3.666   0.665   1.349  0.0222 -0.1354  0.0140
 6517TIP3    H140966   3.642   0.741   1.296 -0.1841 -1.7794 -2.4526
 6517TIP3    H240967   3.746   0.632   1.309  0.5690 -0.7846  1.5563
 6518TIP3   OH240968   3.734   0.570  16.079 -0.5609  0.4605  0.0553
 6518TIP3    H140969   3.689   0.522  16.009 -3.1131  0.8954  1.2647
 6518TIP3    H240970   3.743   0.659  16.045 -0.3479  0.2988 -0.3161
 6519TIP3   OH240971   4.787   3.341  16.149  0.0798 -0.3688 -0.2751
 6519TIP3    H140972   4.730   3.278  16.194  0.7223 -0.5988  0.2216
 6519TIP3    H240973   4.773   3.322  16.056 -0.8380 -0.2575 -0.1679
 6520TIP3   OH240974   6.598   2.467   5.360 -0.0908 -0.3015 -0.2713
 6520TIP3    H140975   6.539   2.431   5.294  1.3368 -3.5377  0.0327
 6520TIP3    H240976   6.542   2.484   5.436 -1.1320 -0.1062 -1.0610
 6521TIP3   OH240977   0.696   2.135   0.839 -0.0729  0.4036 -0.0315
 6521TIP3    H140978   0.646   2.080   0.779  0.8398 -1.2130  0.6264
 6521TIP3    H240979   0.631   2.165   0.903 -0.2970 -1.6043  0.7777
 6522TIP3   OH240980   2.235   1.389   5.072 -0.2044 -0.3622  0.0975
 6522TIP3    H140981   2.311   1.417   5.123  0.8602 -2.7191 -0.0278
 6522TIP3    H240982   2.262   1.404   4.981 -0.9101  1.0563  0.0948
 6523TIP3   OH240983   0.139   4.902   3.050 -0.1475 -0.1959 -0.3365
 6523TIP3    H140984   0.189   4.983   3.055 -2.1493  1.0635  1.8763
 6523TIP3    H240985   0.098   4.904   2.963 -1.8920  2.4102  0.4078
 6524TIP3   OH240986   0.001   1.012  11.155 -0.1005  0.7801  0.0018
 6524TIP3    H140987   0.091   1.039  11.170 -0.0837  0.7967 -0.1275
 6524TIP3    H240988  -0.044   1.091  11.125  0.4293  0.2445 -2.4194
 6525TIP3   OH240989   4.187   0.842  11.209 -0.9665  0.2923  0.5915
 6525TIP3    H140990   4.146   0.756  11.201 -1.8809  0.5874  1.9004
 6525TIP3    H240991   4.281   0.823  11.213 -0.9966 -0.4771 -1.0806
 6526TIP3   OH240992   6.669   5.414   4.697  0.0593  0.3192 -0.5336
 6526TIP3    H140993   6.626   5.465   4.766  1.3577  0.2216  0.3789
 6526TIP3    H240994   6.718   5.347   4.744  2.1236  1.1156 -1.4403
 6527TIP3   OH240995   2.622   2.519  16.377 -0.2856 -0.1552 -0.7377
 6527TIP3    H140996   2.544   2.559  16.417 -0.2183 -0.4389 -0.3221
 6527TIP3    H240997   2.600   2.513  16.284  0.1720  1.9822 -1.0479
 6528TIP3   OH240998   5.321   2.663  15.167 -0.3047  0.4902  0.0287
 6528TIP3    H140999   5.395   2.612  15.199 -0.3403  1.5364  1.9970
 6528TIP3    H241000   5.341   2.681  15.075 -0.0310 -2.4866 -0.5724
 6529TIP3   OH241001   1.632   5.143  12.356  0.2630 -0.2794  0.3814
 6529TIP3    H141002   1.591   5.057  12.364 -0.6287  0.1082  0.1171
 6529TIP3    H241003   1.723   5.124  12.333 -0.3950 -1.1472 -1.8374
 6530TIP3   OH241004   5.115   1.431   2.512 -0.4462 -0.2610  0.8534
 6530TIP3    H141005   5.206   1.461   2.514 -0.7286  0.7424 -0.1965
 6530TIP3    H241006   5.064   1.505   2.545 -0.7989 -1.3500  2.9097
 6531TIP3   OH241007   2.659   4.385   1.582  0.1550  0.2092 -0.2852
 6531TIP3    H141008   2.659   4.480   1.568 -0.3930  0.1345 -0.8420
 6531TIP3    H241009   2.719   4.351   1.515  0.7168  0.1922  0.2127
 6532TIP3   OH241010   3.969   6.615   4.690  0.1354  0.1167  0.3621
 6532TIP3    H141011   4.028   6.673   4.642 -0.7685  0.4873 -0.3410
 6532TIP3    H241012   3.961   6.655   4.777  1.4033 -0.2889  0.6822
 6533TIP3   OH241013   3.530   5.130  16.950 -0.3593 -0.3414 -0.1548
 6533TIP3    H141014   3.531   5.054  17.008  0.7143 -0.9228 -0.8994
 6533TIP3    H241015   3.479   5.101  16.874 -0.9833  0.1005  0.0954
 6534TIP3   OH241016   1.701   5.479   0.434  0.1976  0.4560 -1.1532
 6534TIP3    H141017   1.715   5.396   0.389 -0.4051  0.6130 -1.6460
 6534TIP3    H241018   1.608   5.478   0.457  0.5158  0.3160  0.2302
 6535TIP3   OH241019   5.914   2.586   6.121  0.8489  0.3972 -0.2234
 6535TIP3    H141020   5.862   2.622   6.192  2.8946 -0.3930  1.7766
 6535TIP3    H241021   5.984   2.650   6.106  1.4511 -0.2537 -0.2844
 6536TIP3   OH241022   3.047   3.430   0.346  0.0482  0.2822 -0.0536
 6536TIP3    H141023   2.970   3.406   0.294 -0.3181  1.2111  0.0382
 6536TIP3    H241024   3.012   3.486   0.415  0.8723  1.1548 -0.3215
 6537TIP3   OH241025   2.136   6.080  14.240 -0.2841  0.1610 -0.1269
 6537TIP3    H141026   2.114   6.110  14.328 -4.0634 -0.9610 -0.5307
 6537TIP3    H241027   2.144   5.985  14.248  2.3627  0.2722 -0.5455
 6538TIP3   OH241028   1.708   1.255   4.708 -0.3198  0.4114 -0.2612
 6538TIP3    H141029   1.657   1.275   4.629  0.1638 -0.6632 -0.8722
 6538TIP3    H241030   1.662   1.183   4.749  1.5002 -1.7292 -1.7162
 6539TIP3   OH241031   0.256   2.599  11.145  0.3049  0.1258 -0.0317
 6539TIP3    H141032   0.276   2.520  11.196 -0.3300 -1.0592 -1.5458
 6539TIP3    H241033   0.174   2.631  11.182  0.6835  0.2234  0.7436
 6540TIP3   OH241034   3.950   2.497  12.633 -0.5335  0.4712 -0.1670
 6540TIP3    H141035   3.885   2.555  12.594 -1.2653  0.1424  0.5557
 6540TIP3    H241036   3.915   2.409  12.619  0.1763  0.2383 -0.5334
 6541TIP3   OH241037   4.898   6.004   2.570  0.0636 -0.0512  0.3344
 6541TIP3    H141038   4.834   6.074   2.584 -0.8163 -0.7528 -0.0793
 6541TIP3    H241039   4.862   5.954   2.496 -0.2875 -2.0378  1.7637
 6542TIP3   OH241040   1.096   5.643  15.668 -0.4148 -0.4195 -0.2520
 6542TIP3    H141041   1.117   5.722  15.719 -0.0341 -1.1355  0.7198
 6542TIP3    H241042   1.027   5.671  15.609  0.1688  0.8240 -0.3794
 6543TIP3   OH241043   4.324   0.352   0.146 -0.0585 -0.1053  0.0389
 6543TIP3    H141044   4.262   0.306   0.203  2.1238 -0.7996  2.0189
 6543TIP3    H241045   4.364   0.283   0.093  1.2651 -0.1712  1.0700
 6544TIP3   OH241046   4.115   1.492  16.516 -0.2509  0.5287  0.5555
 6544TIP3    H141047   4.094   1.402  16.542 -0.1735  0.5541  0.7084
 6544TIP3    H241048   4.184   1.519  16.576  0.9131  0.1216 -0.5527
 6545TIP3   OH241049   1.242   2.213   6.477  0.2908  0.5328  0.1613
 6545TIP3    H141050   1.329   2.221   6.517  1.2325 -2.8438 -0.8844
 6545TIP3    H241051   1.237   2.122   6.449 -3.9654  0.3622  0.8754
 6546TIP3   OH241052   6.073   0.992   0.098 -0.6038  0.6446  0.0334
 6546TIP3    H141053   6.054   1.082   0.123 -1.8574  0.9165 -1.7309
 6546TIP3    H241054   5.987   0.951   0.087 -0.0806 -0.2613 -0.8853
 6547TIP3   OH241055   3.032   6.190   4.172  0.4886  0.2312  0.4513
 6547TIP3    H141056   3.046   6.137   4.093 -0.7133 -0.2223  0.5354
 6547TIP3    H241057   3.115   6.184   4.219  0.3462 -1.6696  0.5158
 6548TIP3   OH241058   5.008   0.682   3.519 -0.3846  0.4184 -0.2658
 6548TIP3    H141059   5.040   0.599   3.485  2.7117  1.8414 -1.1570
 6548TIP3    H241060   4.954   0.717   3.448  0.1121  0.1378 -0.7927
 6549TIP3   OH241061   4.235   4.460  15.837 -0.4068  0.4731  0.2579
 6549TIP3    H141062   4.254   4.374  15.801  0.5240  0.9527 -0.4594
 6549TIP3    H241063   4.184   4.504  15.770  0.0847  0.8641  0.1334
 6550TIP3   OH241064   0.847   6.634   5.050  0.0321  0.2647 -0.2846
 6550TIP3    H141065   0.826   6.721   5.085 -1.6053 -0.5225  0.8230
 6550TIP3    H241066   0.911   6.598   5.111 -0.5409  0.0678  0.2093
 6551TIP3   OH241067   1.912   5.734   3.418  0.0327  0.2535 -0.2066
 6551TIP3    H141068   1.983   5.723   3.355 -0.0052 -2.4254  0.1424
 6551TIP3    H241069   1.832   5.726   3.366 -0.0227  0.8669 -0.2250
 6552TIP3   OH241070   0.489   2.647  14.483 -0.1065 -0.0697 -0.0412
 6552TIP3    H141071   0.449   2.593  14.416 -1.4759 -0.5531  1.1220
 6552TIP3    H241072   0.575   2.608  14.498 -0.6196 -1.2323 -0.0512
 6553TIP3   OH241073   4.065   0.682  14.371  0.5261 -0.2555 -0.2104
 6553TIP3    H141074   4.026   0.597  14.351  0.9052 -0.2752 -0.8982
 6553TIP3    H241075   4.152   0.662  14.405  0.9581 -0.1142 -1.2151
 6554TIP3   OH241076   3.177   5.030  12.326  0.2788  0.2987 -0.3874
 6554TIP3    H141077   3.181   5.057  12.418  0.7761 -1.2111  0.0596
 6554TIP3    H241078   3.095   4.981  12.319  0.8224 -0.6204 -0.4414
 6555TIP3   OH241079   4.110   1.257   2.688 -0.6518  0.9212  0.3976
 6555TIP3    H141080   4.109   1.272   2.594 -0.9684  0.3461  0.3060
 6555TIP3    H241081   4.118   1.344   2.726  0.4594  1.0811 -0.1767
 6556TIP3   OH241082   0.031   6.670   5.447  0.1538  0.1695 -0.0867
 6556TIP3    H141083  -0.052   6.698   5.409  1.2864  2.3621 -1.1794
 6556TIP3    H241084   0.051   6.737   5.513  2.4491  1.5936 -2.0211
 6557TIP3   OH241085   3.746   3.360  16.683  0.0534 -0.2314 -0.6360
 6557TIP3    H141086   3.660   3.332  16.653 -0.9974  0.6561  1.3401
 6557TIP3    H241087   3.773   3.293  16.746 -0.2791  0.6374  0.4717
 6558TIP3   OH241088   5.147   0.434  13.399 -0.4935 -0.1197 -0.4145
 6558TIP3    H141089   5.084   0.422  13.328 -0.9082  0.3849 -0.1383
 6558TIP3    H241090   5.100   0.407  13.478 -0.8180  1.4810 -0.0294
 6559TIP3   OH241091   4.533   0.431   5.712 -0.1020  0.3023 -0.9832
 6559TIP3    H141092   4.516   0.525   5.717  1.8240  0.7081 -1.1835
 6559TIP3    H241093   4.513   0.399   5.800 -0.5891  0.9273 -0.8545
 6560TIP3   OH241094   2.592   5.074  16.992  0.3481 -0.5291  0.4925
 6560TIP3    H141095   2.680   5.040  16.978  1.0064  0.5388  1.7397
 6560TIP3    H241096   2.605   5.168  17.005 -1.1794 -0.0803 -0.9274
 6561TIP3   OH241097   5.986   6.172   1.664 -0.1238  0.3133 -0.8387
 6561TIP3    H141098   5.945   6.259   1.664 -1.9877 -0.4142  1.8134
 6561TIP3    H241099   5.957   6.132   1.582 -0.5588  1.6249 -1.3593
 6562TIP3   OH241100   4.082   5.048  11.477  0.0077  0.0242  0.1093
 6562TIP3    H141101   4.039   5.005  11.403  0.1224  0.4959 -0.2376
 6562TIP3    H241102   4.011   5.085  11.529 -0.1700 -1.4202  0.9646
 6563TIP3   OH241103   6.396   3.897  11.606 -0.4150 -0.0875  0.0707
 6563TIP3    H141104   6.420   3.806  11.620 -1.0542 -0.4062 -0.7997
 6563TIP3    H241105   6.358   3.899  11.518  0.0610  1.1159 -0.1311
 6564TIP3   OH241106   5.948   4.807  15.952  0.5308  0.3270 -0.1264
 6564TIP3    H141107   5.958   4.714  15.933  0.6701  0.6887 -1.9520
 6564TIP3    H241108   5.858   4.828  15.927  0.2534  0.5423  0.9920
 6565TIP3   OH241109   0.070   6.624  16.899 -0.6997 -0.3046  0.3178
 6565TIP3    H141110   0.074   6.559  16.829 -0.4765 -0.4601  0.4733
 6565TIP3    H241111   0.125   6.588  16.969 -2.0136 -0.8250  1.1188
 6566TIP3   OH241112   6.186   6.235   1.857  0.2766 -1.0775  0.4398
 6566TIP3    H141113   6.247   6.171   1.821  0.0690 -0.7992 -0.4318
 6566TIP3    H241114   6.110   6.231   1.799  0.1327 -0.2721  0.5637
 6567TIP3   OH241115   1.968   4.289   5.958 -0.0572  0.3721 -0.1309
 6567TIP3    H141116   2.013   4.307   6.040  0.1358  0.2369 -0.2070
 6567TIP3    H241117   1.911   4.214   5.978  0.0865  0.2554 -0.1536
 6568TIP3   OH241118   3.475   0.077   3.285  0.1959  0.7928 -0.0048
 6568TIP3    H141119   3.469  -0.007   3.241 -0.1017  0.9566 -0.2830
 6568TIP3    H241120   3.385   0.109   3.288  0.6361  2.5821 -2.7850
 6569TIP3   OH241121   5.235   1.286  16.649  0.4218 -0.6872 -0.3706
 6569TIP3    H141122   5.224   1.199  16.689 -1.3781 -0.3459 -0.0677
 6569TIP3    H241123   5.220   1.271  16.556 -0.9647 -0.5294 -0.1822
 6570TIP3   OH241124   4.074   3.814  16.928 -0.6453  0.0214 -0.5175
 6570TIP3    H141125   4.160   3.843  16.956 -0.4266 -0.1193 -1.0366
 6570TIP3    H241126   4.037   3.770  17.005  0.6607 -1.9630 -0.9492
 6571TIP3   OH241127   5.325   3.347  11.085 -0.2569  0.4328  0.5325
 6571TIP3    H141128   5.397   3.409  11.095  0.9186 -1.0642  1.7641
 6571TIP3    H241129   5.247   3.400  11.102  0.6659  1.6616  1.1897
 6572TIP3   OH241130   3.290   1.648  14.693 -0.7727 -0.3060 -0.2204
 6572TIP3    H141131   3.298   1.682  14.604 -0.6156  1.1225  0.3089
 6572TIP3    H241132   3.289   1.726  14.748 -3.9361 -0.9714  0.8520
 6573TIP3   OH241133   0.236   4.356  13.764  0.0866 -0.2134  0.7602
 6573TIP3    H141134   0.288   4.281  13.736 -2.8158 -1.7651 -0.9959
 6573TIP3    H241135   0.224   4.408  13.684 -2.1399 -0.7137  0.6862
 6574TIP3   OH241136   6.401   2.362   4.364 -0.5483  0.0071 -0.3558
 6574TIP3    H141137   6.445   2.366   4.449 -1.9080 -1.0813  0.4411
 6574TIP3    H241138   6.315   2.400   4.380 -0.2355  1.3473 -1.6826
 6575TIP3   OH241139   1.807   4.410   1.715 -0.1535  0.5622  0.0714
 6575TIP3    H141140   1.792   4.439   1.625 -3.7017  0.2977  0.4449
 6575TIP3    H241141   1.864   4.333   1.706 -1.4722 -0.2562 -2.1022
 6576TIP3   OH241142   2.602   6.261   1.360  0.0338  0.3374 -0.1227
 6576TIP3    H141143   2.659   6.242   1.286  1.3186  1.4911  0.5141
 6576TIP3    H241144   2.637   6.208   1.432 -0.8286 -0.3184 -0.1760
 6577TIP3   OH241145   5.511   2.469  15.892  0.4833  0.1228  0.2152
 6577TIP3    H141146   5.528   2.547  15.943  0.9186 -0.2997  0.7319
 6577TIP3    H241147   5.553   2.485  15.808 -0.1643  0.7879  0.0127
 6578TIP3   OH241148   5.739   5.048  14.432  0.3043 -0.1384 -0.1181
 6578TIP3    H141149   5.708   5.104  14.360 -1.0568 -0.0248  0.5295
 6578TIP3    H241150   5.770   5.109  14.498 -0.8276 -0.1414  0.4320
 6579TIP3   OH241151   5.001   3.374  15.495  0.6531 -0.5471 -0.5079
 6579TIP3    H141152   5.045   3.424  15.426 -2.4103  1.3490 -1.2795
 6579TIP3    H241153   4.944   3.313  15.449  0.1146 -0.7422  0.3835
 6580TIP3   OH241154   5.061   1.538   1.822  0.2433 -0.0356  0.4108
 6580TIP3    H141155   5.069   1.566   1.913  1.2885  1.4618 -0.1087
 6580TIP3    H241156   5.149   1.507   1.798  0.6611  1.9449 -0.7977
 6581TIP3   OH241157   5.929   3.994  16.844 -0.0881 -0.1492  0.2315
 6581TIP3    H141158   6.011   3.992  16.894  0.1523 -1.5722 -0.1891
 6581TIP3    H241159   5.925   4.083  16.809  1.3588 -0.0959  0.1435
 6582TIP3   OH241160   4.281   4.189  10.658 -0.3196  0.8119 -0.3885
 6582TIP3    H141161   4.338   4.148  10.722 -1.9292  0.4460  0.8488
 6582TIP3    H241162   4.290   4.283  10.675  1.0232  0.8559 -1.2030
 6583TIP3   OH241163   3.960   2.057   3.325  0.1562  0.0363 -0.0534
 6583TIP3    H141164   3.925   1.968   3.336  0.7963 -0.7794 -3.3599
 6583TIP3    H241165   4.045   2.054   3.369  0.6163 -1.3643 -0.9461
 6584TIP3   OH241166   6.003   0.253   2.980  0.1464  0.1677  0.2812
 6584TIP3    H141167   6.011   0.190   2.909 -0.4114  1.9058 -1.4014
 6584TIP3    H241168   5.926   0.223   3.030 -1.0943  0.3449 -1.4299
 6585TIP3   OH241169   6.376   1.940   1.150  0.4073  0.5385 -0.5980
 6585TIP3    H141170   6.333   1.915   1.068  1.1152  1.9665 -1.4550
 6585TIP3    H241171   6.408   1.858   1.187 -1.0428 -0.2836 -1.0809
 6586TIP3   OH241172   5.800   5.074  10.837 -0.4664  0.1234  0.3040
 6586TIP3    H141173   5.863   5.003  10.826  0.1455  0.8313 -1.1394
 6586TIP3    H241174   5.716   5.030  10.849  0.0163 -0.8387  0.2670
 6587TIP3   OH241175   1.236   2.500  13.309  0.3595  0.1921  0.0695
 6587TIP3    H141176   1.285   2.565  13.360 -0.5284 -0.2145  1.5138
 6587TIP3    H241177   1.209   2.435  13.374  1.0612 -1.5436 -1.3075
 6588TIP3   OH241178   3.126   1.545   5.741 -0.6938  0.2355 -0.2445
 6588TIP3    H141179   3.131   1.594   5.660  0.0458  1.3468  0.4568
 6588TIP3    H241180   3.070   1.598   5.798 -0.2879  0.0267  0.3582
 6589TIP3   OH241181   2.541   3.575  16.294  0.0670 -0.1305  0.4022
 6589TIP3    H141182   2.576   3.486  16.304 -1.1617 -0.5100  1.6250
 6589TIP3    H241183   2.552   3.615  16.381 -0.8219  0.3655  0.3037
 6590TIP3   OH241184   0.637   0.761  16.190 -0.0435  0.4185 -0.0431
 6590TIP3    H141185   0.646   0.797  16.102 -2.1110  2.5271  0.5060
 6590TIP3    H241186   0.574   0.690  16.180 -1.0810  1.3197 -0.1742
 6591TIP3   OH241187   2.530   6.721   3.606 -0.5012 -0.5976 -0.2655
 6591TIP3    H141188   2.452   6.745   3.656 -0.6924 -1.1549 -0.2907
 6591TIP3    H241189   2.596   6.701   3.672  0.2236  1.6840 -0.2161
 6592TIP3   OH241190   0.703   2.478  15.621  0.1683 -0.6028  0.0064
 6592TIP3    H141191   0.704   2.532  15.542  2.6169 -1.1133 -0.4031
 6592TIP3    H241192   0.612   2.451  15.631 -0.6938  1.6827 -1.0795
 6593TIP3   OH241193   3.792   3.510  14.482 -0.4229 -0.4273  0.3623
 6593TIP3    H141194   3.829   3.595  14.507  0.9976 -0.6133 -0.9620
 6593TIP3    H241195   3.698   3.526  14.474 -0.2114  0.9495  0.4116
 6594TIP3   OH241196   1.664   4.137   0.828 -0.8446 -0.1999  0.2416
 6594TIP3    H141197   1.726   4.183   0.885 -0.3145 -0.5114 -0.0704
 6594TIP3    H241198   1.583   4.131   0.879 -0.3988 -0.4160  0.9374
 6595TIP3   OH241199   4.788   1.541   1.788 -0.3376 -0.0874  0.4905
 6595TIP3    H141200   4.767   1.622   1.741  1.0914 -1.6292 -3.1002
 6595TIP3    H241201   4.883   1.543   1.799 -0.5407 -0.1331  2.8582
 6596TIP3   OH241202   3.695   4.265   5.200 -0.0991 -0.2850  0.7105
 6596TIP3    H141203   3.731   4.352   5.180  1.6176 -1.2714 -0.8549
 6596TIP3    H241204   3.665   4.272   5.291  1.0843  1.6054  1.0228
 6597TIP3   OH241205   1.413   3.004  13.509  0.2530 -0.1501 -0.2805
 6597TIP3    H141206   1.441   3.033  13.596 -0.3842 -0.3235 -0.0131
 6597TIP3    H241207   1.335   3.057  13.490  1.2768  1.0262 -1.4247
 6598TIP3   OH241208   0.584   6.683  16.487  0.0730 -0.7577  0.1682
 6598TIP3    H141209   0.676   6.696  16.463  0.3555  1.5131  2.0813
 6598TIP3    H241210   0.535   6.712  16.410  0.9780  0.4639  0.0068
 6599TIP3   OH241211   3.463   5.143   0.800 -0.1889  0.3666 -0.4984
 6599TIP3    H141212   3.541   5.182   0.761  0.0056  0.3078 -0.1717
 6599TIP3    H241213   3.407   5.217   0.821 -0.0263  0.4398 -0.3196
 6600TIP3   OH241214   6.261   4.143   2.215 -0.6385 -0.2033  0.0628
 6600TIP3    H141215   6.281   4.093   2.136 -2.4104 -1.1052  0.1454
 6600TIP3    H241216   6.342   4.140   2.266  0.4857  0.2289 -1.5814
 6601TIP3   OH241217   3.943   5.164  14.147  0.5828 -0.2203 -0.0692
 6601TIP3    H141218   3.936   5.069  14.152  0.0741 -0.2273 -0.7730
 6601TIP3    H241219   3.858   5.193  14.115  0.7106  0.4813  0.1928
 6602TIP3   OH241220   5.917   1.727  16.474  0.4620  0.0741 -0.4440
 6602TIP3    H141221   5.836   1.751  16.520  1.9212  0.6250  1.9758
 6602TIP3    H241222   5.914   1.631  16.471 -1.1120  0.1043 -2.1052
 6603TIP3   OH241223   4.381   3.060  12.751 -0.0086 -0.0192  0.3912
 6603TIP3    H141224   4.424   3.145  12.763  1.2536 -0.6736  0.6571
 6603TIP3    H241225   4.376   3.023  12.839  1.1206 -1.0023  0.0607
 6604TIP3   OH241226   6.673   5.167   4.833 -0.1316 -0.1881 -0.4417
 6604TIP3    H141227   6.750   5.117   4.859  0.2311 -0.3754 -1.7860
 6604TIP3    H241228   6.606   5.145   4.899  0.2867 -1.7503 -0.4927
 6605TIP3   OH241229   2.992   4.576  15.124 -0.1244  0.6442  0.0112
 6605TIP3    H141230   3.021   4.662  15.094  0.0029  0.5586 -0.1122
 6605TIP3    H241231   2.897   4.579  15.117 -0.0859  0.5508 -0.6174
 6606TIP3   OH241232   4.352   3.808   4.480 -0.3816 -0.2665  0.5625
 6606TIP3    H141233   4.273   3.848   4.445 -1.0425 -1.8417  0.1715
 6606TIP3    H241234   4.414   3.809   4.407 -0.9125 -1.2982  0.0821
 6607TIP3   OH241235   2.392   2.173  14.135 -0.4274  0.4942 -1.2110
 6607TIP3    H141236   2.408   2.155  14.042  1.1225  0.6573 -1.0184
 6607TIP3    H241237   2.421   2.263  14.147  2.1599 -0.3631 -0.0648
 6608TIP3   OH241238   4.690   6.169  12.248 -0.2134 -0.2676 -0.1811
 6608TIP3    H141239   4.656   6.239  12.304 -0.8246 -0.0450 -0.8051
 6608TIP3    H241240   4.782   6.191  12.235  0.0284 -0.5318  1.0324
 6609TIP3   OH241241   4.512   2.694  15.234  0.0653  0.3803 -0.3097
 6609TIP3    H141242   4.553   2.611  15.260 -0.6432  0.4500  1.1722
 6609TIP3    H241243   4.497   2.739  15.317 -2.8316  0.4117 -0.7603
 6610TIP3   OH241244   1.471   1.362  15.730  0.2894  0.0819  0.0807
 6610TIP3    H141245   1.490   1.415  15.808 -2.0260  0.0685  0.7143
 6610TIP3    H241246   1.488   1.272  15.757  1.8746  0.2537 -0.2430
 6611TIP3   OH241247   0.665   5.606   2.336 -0.1696 -0.6874 -0.2412
 6611TIP3    H141248   0.660   5.665   2.411 -0.0759 -1.1649  0.1441
 6611TIP3    H241249   0.673   5.664   2.260 -2.1796 -0.1104 -0.0768
 6612TIP3   OH241250   4.317   1.452  14.298 -0.2627 -0.5653 -0.6056
 6612TIP3    H141251   4.380   1.398  14.346  0.1809 -0.6477 -1.2704
 6612TIP3    H241252   4.352   1.457  14.209  0.0966  1.4363 -0.3930
 6613TIP3   OH241253   4.357   1.049   1.068 -0.7127  0.1290 -0.2515
 6613TIP3    H141254   4.303   0.984   1.111  1.3774 -2.8239 -1.7311
 6613TIP3    H241255   4.362   1.020   0.977  4.4698 -0.8886  0.0179
 6614TIP3   OH241256   6.150   0.460   3.482 -0.2083 -0.1779 -0.1763
 6614TIP3    H141257   6.146   0.545   3.525  0.7860  0.4534 -1.2844
 6614TIP3    H241258   6.090   0.404   3.533  1.1271  0.4374  2.1858
 6615TIP3   OH241259   3.807   3.344  15.211  0.0264 -0.1624  0.2354
 6615TIP3    H141260   3.830   3.255  15.182  1.0889  0.1201  0.1761
 6615TIP3    H241261   3.794   3.393  15.130  1.4380  0.2282  0.2145
 6616TIP3   OH241262   5.844   1.733  15.492  0.8303  0.5771 -0.2173
 6616TIP3    H141263   5.882   1.820  15.479 -0.0713  1.0053 -0.0259
 6616TIP3    H241264   5.782   1.743  15.564  0.1594 -0.0471 -0.6867
 6617TIP3   OH241265   4.175   5.711  12.826  0.0203 -0.5036 -0.4724
 6617TIP3    H141266   4.261   5.699  12.867  0.4243 -1.0158 -1.4398
 6617TIP3    H241267   4.161   5.632  12.775 -2.0479 -1.4798  1.3942
 6618TIP3   OH241268   6.309   0.013   5.444  1.1290  0.0347 -0.1175
 6618TIP3    H141269   6.284   0.056   5.362  2.5302 -2.7214 -2.1758
 6618TIP3    H241270   6.262  -0.070   5.443  2.0257 -0.5346  1.3233
 6619TIP3   OH241271   4.921   6.358  14.726  0.2643  0.8590 -0.3180
 6619TIP3    H141272   4.860   6.349  14.653 -0.2765 -0.5105  0.2727
 6619TIP3    H241273   4.884   6.304  14.795  0.4194  2.6201  1.2209
 6620TIP3   OH241274   2.077   4.378  13.459  0.1851 -0.0964  0.1834
 6620TIP3    H141275   2.052   4.435  13.531 -0.5426 -1.5176  1.1075
 6620TIP3    H241276   2.137   4.315  13.498 -1.6839 -2.0548  0.0708
 6621TIP3   OH241277   3.215   5.430  11.237 -0.1272 -0.2139 -0.1564
 6621TIP3    H141278   3.191   5.340  11.259  0.0211 -0.0573  0.6599
 6621TIP3    H241279   3.238   5.471  11.320 -0.7274  0.7433 -0.4324
 6622TIP3   OH241280   0.235   1.807  11.868  0.6490  0.1141  0.0758
 6622TIP3    H141281   0.177   1.881  11.889 -0.6258 -0.7890 -0.1077
 6622TIP3    H241282   0.183   1.730  11.891  2.4826 -0.7278  1.6371
 6623TIP3   OH241283   6.142   3.326  12.826 -0.1028 -0.3456 -0.5405
 6623TIP3    H141284   6.203   3.353  12.757 -0.9022  0.5332 -0.9332
 6623TIP3    H241285   6.162   3.383  12.900 -0.5566  0.0735 -0.7341
 6624TIP3   OH241286   4.211   4.075   5.644 -0.0709  0.9555 -0.4242
 6624TIP3    H141287   4.274   4.051   5.712 -0.2619 -0.7355 -0.7968
 6624TIP3    H241288   4.151   4.136   5.687 -0.9530 -1.0318  1.3596
 6625TIP3   OH241289   4.381   3.130   0.530 -0.2204  0.2251  0.2132
 6625TIP3    H141290   4.430   3.187   0.470 -1.3926 -0.7380 -1.7608
 6625TIP3    H241291   4.439   3.119   0.606  1.5700  1.0721 -0.9682
 6626TIP3   OH241292   0.568   0.883  11.734  1.0200 -0.4121  0.2560
 6626TIP3    H141293   0.532   0.855  11.818  1.8175  0.7482  1.0064
 6626TIP3    H241294   0.620   0.808  11.705  0.1333 -1.1110  0.4064
 6627TIP3   OH241295   4.862   5.042   3.292 -0.5002  0.4815  0.5075
 6627TIP3    H141296   4.869   5.136   3.280 -1.5097  0.3071 -2.0769
 6627TIP3    H241297   4.944   5.017   3.335  0.4642  2.3345 -0.1740
 6628TIP3   OH241298   1.001   2.250  13.038  0.4343 -0.1806 -0.1675
 6628TIP3    H141299   0.946   2.327  13.053  1.0729  0.0167  1.3559
 6628TIP3    H241300   0.942   2.176  13.051  0.3362  0.0408  0.7245
 6629TIP3   OH241301   2.887   3.561  12.041 -0.0750 -0.4923  0.8906
 6629TIP3    H141302   2.836   3.591  12.116 -1.1974 -0.1130 -0.0057
 6629TIP3    H241303   2.848   3.604  11.965  1.9382  0.2766  0.2014
 6630TIP3   OH241304   0.245   3.218  15.282 -0.3394  0.5447  0.1132
 6630TIP3    H141305   0.301   3.141  15.273 -1.8591 -0.8997  1.9197
 6630TIP3    H241306   0.195   3.221  15.201 -1.4620 -1.4742  0.6535
 6631TIP3   OH241307   6.157   4.078  11.179 -0.1478  0.0003  0.2177
 6631TIP3    H141308   6.201   4.160  11.156 -1.9005  1.1323  0.7000
 6631TIP3    H241309   6.066   4.090  11.152 -0.4075 -1.9026  0.0762
 6632TIP3   OH241310   4.287   2.409   5.317 -0.1011  0.0502 -0.7571
 6632TIP3    H141311   4.379   2.398   5.295  0.1154 -0.0788  0.1613
 6632TIP3    H241312   4.245   2.328   5.289  0.3523 -0.5441  0.2479
 6633TIP3   OH241313   3.954   3.409  16.504 -0.2965 -0.1031  0.0331
 6633TIP3    H141314   3.923   3.498  16.485  0.6902  0.1107 -0.6232
 6633TIP3    H241315   3.878   3.365  16.543 -1.3627  0.4530 -1.3553
 6634TIP3   OH241316   6.180   2.474   1.744  0.3506 -0.5891  0.3199
 6634TIP3    H141317   6.147   2.563   1.757 -1.2332 -0.9664 -0.8647
 6634TIP3    H241318   6.102   2.419   1.754  0.6175 -1.5500 -2.3205
 6635TIP3   OH241319   0.559   1.959   0.643 -0.7380 -0.6138  0.5390
 6635TIP3    H141320   0.653   1.953   0.629 -0.6727  1.1225  0.0245
 6635TIP3    H241321   0.528   1.868   0.638  0.8997 -1.2189  0.8071
 6636TIP3   OH241322   3.272   2.343   3.136  0.2978  0.1813  0.3426
 6636TIP3    H141323   3.260   2.251   3.160  1.1228 -0.3416 -1.1219
 6636TIP3    H241324   3.267   2.390   3.219  1.0223 -1.3091  1.2709
 6637TIP3   OH241325   1.239   4.718  14.424 -0.1994 -0.0502  0.2149
 6637TIP3    H141326   1.202   4.639  14.462 -1.9375  0.1696 -0.8841
 6637TIP3    H241327   1.310   4.743  14.483 -1.3032 -0.9655  2.0137
 6638TIP3   OH241328   5.078   1.178   2.372  0.2625 -0.0836  0.3848
 6638TIP3    H141329   5.062   1.201   2.281 -1.4496 -3.0855 -0.2000
 6638TIP3    H241330   5.081   1.262   2.418 -1.6919  1.4182 -2.0065
 6639TIP3   OH241331   5.849   1.730   6.365  0.2023 -0.7612  0.1614
 6639TIP3    H141332   5.891   1.702   6.447 -1.0787 -2.5201  0.2696
 6639TIP3    H241333   5.760   1.697   6.372 -0.4960  0.7211 -1.1521
 6640TIP3   OH241334   5.183   1.895  12.225 -0.3442 -0.7763 -0.6817
 6640TIP3    H141335   5.271   1.900  12.262 -0.0987 -1.6814 -1.1056
 6640TIP3    H241336   5.127   1.878  12.301 -0.0573 -0.9240 -0.4991
 6641TIP3   OH241337   4.272   4.140  12.989 -0.7988 -0.2492  0.1237
 6641TIP3    H141338   4.236   4.178  13.070 -0.0190  0.6554  0.0655
 6641TIP3    H241339   4.282   4.215  12.930  3.2520  0.0778  0.8910
 6642TIP3   OH241340   0.293   0.150   6.181 -0.4491  0.2217 -0.3309
 6642TIP3    H141341   0.322   0.219   6.122 -1.3522  1.7061  0.8863
 6642TIP3    H241342   0.324   0.178   6.268 -1.6662 -0.3967  0.3279
 6643TIP3   OH241343   0.997   0.125   3.350 -0.2395  0.2867  0.1659
 6643TIP3    H141344   0.979   0.090   3.437 -1.1498  0.9413  0.2584
 6643TIP3    H241345   1.001   0.048   3.294  0.6236 -0.1642  0.8225
 6644TIP3   OH241346   4.141   1.982   0.195 -0.1774 -0.1545 -0.6967
 6644TIP3    H141347   4.153   2.072   0.166 -0.4950  0.8213  1.9154
 6644TIP3    H241348   4.226   1.941   0.181  0.1846  0.7539 -1.2723
 6645TIP3   OH241349   4.732   3.342  14.366  0.1495  0.1376 -0.6019
 6645TIP3    H141350   4.703   3.275  14.428  0.1219 -0.7771 -1.5801
 6645TIP3    H241351   4.820   3.364  14.394  0.2686 -0.5203 -0.4354
 6646TIP3   OH241352   1.974   1.904  13.959  0.4292 -0.1276  0.2072
 6646TIP3    H141353   1.928   1.836  13.910 -0.7624  0.4866  0.4333
 6646TIP3    H241354   1.953   1.985  13.913 -0.7596  0.4707  1.7215
 6647TIP3   OH241355   0.359   5.366   6.426  0.2637  0.0636  0.4668
 6647TIP3    H141356   0.419   5.294   6.445 -1.3506 -2.3900 -2.6614
 6647TIP3    H241357   0.293   5.362   6.495  1.1616 -0.2585  1.3283
 6648TIP3   OH241358   5.994   0.355   0.101  0.4726  0.1717  0.0337
 6648TIP3    H141359   5.982   0.449   0.088 -0.0951  0.1287  0.2066
 6648TIP3    H241360   5.948   0.314   0.028  0.3130  0.0237  0.2130
 6649TIP3   OH241361   0.580   0.579   3.699 -0.2097  0.7783  0.0309
 6649TIP3    H141362   0.564   0.629   3.619  1.0967  0.1282 -0.6694
 6649TIP3    H241363   0.675   0.567   3.702 -0.3623 -0.4671  0.9069
 6650TIP3   OH241364   3.857   6.264  12.868 -0.5862  0.2015 -0.3380
 6650TIP3    H141365   3.764   6.287  12.866 -0.9783 -0.9812  1.5407
 6650TIP3    H241366   3.894   6.321  12.936  0.2445  1.1368 -1.5292
 6651TIP3   OH241367   4.455   2.237   4.578 -0.2469 -0.2103  0.0137
 6651TIP3    H141368   4.434   2.175   4.508  1.8659 -1.2356  0.2273
 6651TIP3    H241369   4.530   2.198   4.623  1.4176  2.6262 -0.0675
 6652TIP3   OH241370   5.558   3.320   5.349  0.5913  0.5529  0.1536
 6652TIP3    H141371   5.486   3.343   5.407  0.4992 -0.6145  0.5166
 6652TIP3    H241372   5.572   3.226   5.362  1.8127  0.6386 -0.3181
 6653TIP3   OH241373   0.229   4.827   0.813  0.3271  0.1818 -0.0082
 6653TIP3    H141374   0.263   4.857   0.897  0.8428  0.6919 -0.3905
 6653TIP3    H241375   0.303   4.836   0.753 -0.2741  0.5923 -0.6902
 6654TIP3   OH241376   1.886   2.245  12.061 -0.2793  0.0402  0.3496
 6654TIP3    H141377   1.941   2.200  11.996 -1.8050 -1.2355 -0.1155
 6654TIP3    H241378   1.887   2.187  12.137  2.2166  1.9422  1.9228
 6655TIP3   OH241379   3.678   4.915  13.824  0.1819  0.3828 -0.8276
 6655TIP3    H141380   3.757   4.962  13.797  0.8098  0.2322  0.6403
 6655TIP3    H241381   3.662   4.945  13.913  0.5547 -2.0356  0.1579
 6656TIP3   OH241382   1.852   3.773   5.670  0.0217  0.4612  0.0129
 6656TIP3    H141383   1.857   3.731   5.584 -0.4199  0.7191 -0.1426
 6656TIP3    H241384   1.940   3.764   5.706  0.1187  0.0398 -0.3195
 6657TIP3   OH241385   2.002   6.396   4.737 -0.3467 -0.0606  0.2655
 6657TIP3    H141386   2.062   6.444   4.794  0.6359 -0.0931 -0.6955
 6657TIP3    H241387   1.933   6.365   4.795  0.8548 -0.4900  1.5140
 6658TIP3   OH241388   5.054   1.149   5.354 -0.0336 -0.7667 -0.1587
 6658TIP3    H141389   4.984   1.143   5.420 -1.1704 -0.5048 -1.3097
 6658TIP3    H241390   5.079   1.242   5.355 -0.7332 -0.5655 -0.7685
 6659TIP3   OH241391   2.498   0.310  11.245  0.1391 -0.1827 -0.2539
 6659TIP3    H141392   2.463   0.317  11.157  0.5850 -1.0979 -0.5147
 6659TIP3    H241393   2.541   0.224  11.248  0.6894  0.1002  0.6441
 6660TIP3   OH241394   4.985   5.112   4.900  0.6904 -0.4265 -0.3394
 6660TIP3    H141395   4.899   5.084   4.869  0.5758 -1.6343  0.9216
 6660TIP3    H241396   5.041   5.035   4.887  1.2073 -0.1511  0.2031
 6661TIP3   OH241397   4.236   3.757  12.832  0.0233  0.7121  0.4768
 6661TIP3    H141398   4.144   3.761  12.857 -0.0977 -2.5738  1.0026
 6661TIP3    H241399   4.283   3.794  12.907 -0.8036  2.2718  0.2660
 6662TIP3   OH241400   2.941   0.998   5.851  0.4393 -0.5158 -0.5136
 6662TIP3    H141401   2.952   1.068   5.915 -3.6989  0.5932 -0.7453
 6662TIP3    H241402   2.893   0.930   5.898 -0.3702 -0.8086 -1.7268
 6663TIP3   OH241403   3.775   5.549  10.831 -0.5799  0.0076  0.1299
 6663TIP3    H141404   3.834   5.490  10.784  1.1140  1.2937  0.5368
 6663TIP3    H241405   3.691   5.540  10.785  0.1372 -1.2253 -1.0339
 6664TIP3   OH241406   0.330   5.653  11.004  0.0526 -0.1026  0.1745
 6664TIP3    H141407   0.408   5.683  10.957  0.1579  0.8513  0.9245
 6664TIP3    H241408   0.266   5.722  10.989 -0.0159  0.0590  1.1427
 6665TIP3   OH241409   5.974   2.350  11.030  0.4634  0.4278  0.1691
 6665TIP3    H141410   6.016   2.281  10.977 -1.3137 -0.2331 -0.4575
 6665TIP3    H241411   5.945   2.414  10.966  0.8699  1.0896  0.6361
 6666TIP3   OH241412   1.567   4.045  11.832 -0.1050  0.7362 -0.2529
 6666TIP3    H141413   1.612   4.081  11.755 -1.5536 -1.9494 -2.5620
 6666TIP3    H241414   1.474   4.054  11.811 -0.5394  0.0324  1.2467
 6667TIP3   OH241415   1.673   3.063   1.696 -0.9521  0.2793  0.1158
 6667TIP3    H141416   1.653   2.987   1.641 -0.5091  0.7351 -0.7072
 6667TIP3    H241417   1.768   3.065   1.701 -0.8359  1.7739 -1.4038
 6668TIP3   OH241418   2.123   2.918  14.582 -0.6389  0.2000 -0.3334
 6668TIP3    H141419   2.133   2.996  14.527  0.0851 -0.8826 -1.8449
 6668TIP3    H241420   2.196   2.922  14.644  0.7484 -0.3330 -1.8465
 6669TIP3   OH241421   4.580   2.678   1.210  0.0873 -0.0042 -0.2087
 6669TIP3    H141422   4.602   2.639   1.125 -2.6961 -1.4650 -0.3581
 6669TIP3    H241423   4.594   2.771   1.197  2.7857 -0.4503 -1.2188
 6670TIP3   OH241424   0.204   3.279   1.579  0.0860 -0.6677 -0.3115
 6670TIP3    H141425   0.110   3.279   1.596 -0.3619  0.0133 -2.4870
 6670TIP3    H241426   0.242   3.327   1.653 -1.4406  0.2765 -0.1046
 6671TIP3   OH241427   4.925   2.761  13.174  0.2340  0.0305 -0.4141
 6671TIP3    H141428   4.967   2.823  13.115  0.5268  0.8855  0.6750
 6671TIP3    H241429   4.866   2.711  13.117  1.6612 -0.2563 -1.7205
 6672TIP3   OH241430   6.775   5.991   2.253 -0.1577  0.4538  0.5682
 6672TIP3    H141431   6.818   6.077   2.257  1.2313 -0.1983  0.3047
 6672TIP3    H241432   6.810   5.943   2.328 -1.0536  0.1634  0.8096
 6673TIP3   OH241433   2.248   4.880   5.035 -0.4901 -0.8328  0.9411
 6673TIP3    H141434   2.322   4.825   5.009  0.1258  0.4471 -0.1363
 6673TIP3    H241435   2.287   4.948   5.090 -0.8725 -0.1947  0.4300
 6674TIP3   OH241436   5.767   1.221   5.221  0.1952 -0.9425  0.7128
 6674TIP3    H141437   5.698   1.154   5.223 -0.3285 -0.4141  2.7582
 6674TIP3    H241438   5.725   1.299   5.256  1.0828  0.2240 -0.6998
 6675TIP3   OH241439   3.600   6.349   5.831 -0.4016 -0.4904  0.4151
 6675TIP3    H141440   3.531   6.321   5.770 -0.0473 -0.7538  0.1340
 6675TIP3    H241441   3.608   6.444   5.815 -0.1020 -0.6092 -0.1613
 6676TIP3   OH241442   2.763   0.540  13.815  0.1862  0.3795  0.0343
 6676TIP3    H141443   2.808   0.476  13.871  0.9846  1.9290  1.2447
 6676TIP3    H241444   2.688   0.492  13.780  0.7883 -1.2386  0.8287
 6677TIP3   OH241445   4.490   5.020   4.018  0.3548 -0.0390 -0.6013
 6677TIP3    H141446   4.396   5.032   4.006  0.4556  2.5516  0.4270
 6677TIP3    H241447   4.529   5.099   3.979  2.0670 -0.8356 -0.5997
 6678TIP3   OH241448   1.103   3.958   3.541 -0.3951  0.0942  0.4587
 6678TIP3    H141449   1.136   3.883   3.591  0.6805  0.9808  1.1341
 6678TIP3    H241450   1.111   4.032   3.601 -1.4269  0.7564 -0.2008
 6679TIP3   OH241451   0.721   0.805   0.893  0.4231 -0.3424 -0.0890
 6679TIP3    H141452   0.643   0.852   0.923 -0.3620 -1.8124  0.2594
 6679TIP3    H241453   0.749   0.853   0.815  0.9308  1.9487  1.4261
 6680TIP3   OH241454   1.522   6.356  15.840 -0.4868  0.4746 -0.3755
 6680TIP3    H141455   1.486   6.440  15.866  0.7881  1.4899 -1.7255
 6680TIP3    H241456   1.481   6.336  15.756 -0.1306  0.1725 -0.4832
 6681TIP3   OH241457   3.106   6.692  14.238 -0.9431  0.6576  0.4870
 6681TIP3    H141458   3.057   6.752  14.294  2.2201  3.1166  0.9548
 6681TIP3    H241459   3.110   6.735  14.153 -2.6280 -1.3230 -0.6971
 6682TIP3   OH241460   0.040   1.038   4.922  0.1618  0.1898  0.5435
 6682TIP3    H141461   0.070   1.032   5.013 -0.5237 -0.1572  0.7524
 6682TIP3    H241462   0.049   0.949   4.888 -0.7687  0.0448  0.6562
 6683TIP3   OH241463   0.286   3.231   3.238 -0.0514 -0.2862 -0.0746
 6683TIP3    H141464   0.329   3.183   3.309  0.5888  0.0753 -0.2007
 6683TIP3    H241465   0.303   3.179   3.160 -0.4644 -0.5091 -0.0191
 6684TIP3   OH241466   6.148   4.280  10.478 -0.0627  0.1763 -0.0783
 6684TIP3    H141467   6.171   4.269  10.386  4.3408 -2.2345  1.0490
 6684TIP3    H241468   6.086   4.210  10.496  1.4058 -1.3359 -0.6424
 6685TIP3   OH241469   2.282   1.163   6.704  0.1272  0.1394  0.3691
 6685TIP3    H141470   2.308   1.071   6.703  2.2254  0.6989 -0.6690
 6685TIP3    H241471   2.205   1.165   6.762  0.3224 -2.1623  0.8093
 6686TIP3   OH241472   1.963   3.482   1.038 -0.4423  0.7448 -0.0442
 6686TIP3    H141473   2.054   3.484   1.068 -0.1430  0.8199 -0.9505
 6686TIP3    H241474   1.921   3.416   1.094  0.2736  0.3791  0.0671
 6687TIP3   OH241475   0.410   4.617   4.221 -0.0444 -0.6422  0.0535
 6687TIP3    H141476   0.493   4.611   4.174 -0.0182  0.4283 -0.0685
 6687TIP3    H241477   0.434   4.652   4.307 -0.4669  0.8153 -0.3820
 6688TIP3   OH241478   0.712   6.175  16.372  0.0463  0.1894  0.1706
 6688TIP3    H141479   0.804   6.167  16.395 -0.0473 -0.8809  0.2267
 6688TIP3    H241480   0.667   6.113  16.430 -0.9298  1.9456  1.3904
 6689TIP3   OH241481   3.198   5.583  17.193 -0.0234  0.0657 -0.6218
 6689TIP3    H141482   3.291   5.603  17.189  0.3309 -1.3856 -0.1550
 6689TIP3    H241483   3.193   5.498  17.238 -1.6670  0.7732  0.6180
 6690TIP3   OH241484   5.180   5.318   0.445 -0.6516 -0.2873 -0.1087
 6690TIP3    H141485   5.091   5.343   0.469 -0.9114 -2.1904  1.0439
 6690TIP3    H241486   5.213   5.394   0.396 -2.6389  0.7382  0.0333
 6691TIP3   OH241487   5.940   1.534  14.163  0.6911  0.0839 -0.9133
 6691TIP3    H141488   5.943   1.516  14.069  1.1564  1.5514 -1.2096
 6691TIP3    H241489   6.029   1.561  14.185  0.4406  0.3239 -0.1767
 6692TIP3   OH241490   5.785   2.535  15.779  0.0215  0.1982 -0.0468
 6692TIP3    H141491   5.831   2.505  15.857  3.2864  0.7253 -1.6404
 6692TIP3    H241492   5.836   2.502  15.706 -1.6664  1.6000 -1.9689
 6693TIP3   OH241493   2.721   5.602   1.745 -0.1351 -0.1153 -1.0203
 6693TIP3    H141494   2.773   5.576   1.822 -0.2276  0.2217 -0.8429
 6693TIP3    H241495   2.780   5.658   1.695  0.5645 -1.7835 -2.1285
 6694TIP3   OH241496   4.577   2.456   4.381 -0.1673 -0.2503 -0.2163
 6694TIP3    H141497   4.627   2.492   4.454 -1.1686 -2.3584  1.5999
 6694TIP3    H241498   4.501   2.414   4.421 -1.4170 -0.4623 -2.5823
 6695TIP3   OH241499   3.497   1.410  15.294 -0.0351 -0.2245 -0.1152
 6695TIP3    H141500   3.475   1.320  15.318 -1.2812  0.2625  0.7060
 6695TIP3    H241501   3.563   1.401  15.226  2.2248 -1.7561  2.0741
 6696TIP3   OH241502   0.508   0.633   2.302 -0.3500 -0.1013  0.1198
 6696TIP3    H141503   0.482   0.629   2.210  0.2010  0.5972 -0.0752
 6696TIP3    H241504   0.541   0.545   2.321  2.9789  0.6253 -1.4333
 6697TIP3   OH241505   1.636   1.296  11.459 -0.5799 -0.0523  0.7047
 6697TIP3    H141506   1.718   1.330  11.423 -0.0834 -2.2549 -0.4503
 6697TIP3    H241507   1.648   1.302  11.554  0.2490  1.1184  0.5523
 6698TIP3   OH241508   4.970   4.764  16.377 -0.2802 -0.0134  0.3223
 6698TIP3    H141509   4.995   4.771  16.469 -0.8127 -1.6639  0.6359
 6698TIP3    H241510   4.877   4.786  16.376  0.0709  1.5583 -0.0998
 6699TIP3   OH241511   4.731   5.690  13.166  0.2048  0.0883 -0.1447
 6699TIP3    H141512   4.795   5.633  13.124  0.6446  0.2590  0.2892
 6699TIP3    H241513   4.755   5.778  13.139  0.6530  0.2243  0.6601
 6700TIP3   OH241514   4.059   0.641   4.858  0.3203 -0.0150 -0.1340
 6700TIP3    H141515   3.996   0.580   4.819 -0.1200  0.0548  0.4495
 6700TIP3    H241516   4.050   0.627   4.952 -0.6367  1.7693  0.0776
 6701TIP3   OH241517   3.361   6.711  16.006  0.9749 -0.0764 -0.0679
 6701TIP3    H141518   3.320   6.702  16.092  0.7225 -0.8515 -0.2617
 6701TIP3    H241519   3.378   6.805  15.998  0.3606  0.0973  0.5305
 6702TIP3   OH241520   3.033   4.688  17.208 -0.4402 -1.1076  0.7067
 6702TIP3    H141521   3.043   4.625  17.279 -1.0620 -1.1815  0.7312
 6702TIP3    H241522   3.025   4.773  17.252  2.9682 -0.5986  0.6337
 6703TIP3   OH241523   4.282   5.204   0.081  1.4471  0.5427  0.4735
 6703TIP3    H141524   4.339   5.242   0.014 -0.2195  2.7028  0.1674
 6703TIP3    H241525   4.249   5.279   0.130  0.6452 -0.8072  2.1156
 6704TIP3   OH241526   6.542   1.956  14.843  0.1096 -0.1572 -0.8048
 6704TIP3    H141527   6.457   1.913  14.850 -0.5136  1.0287 -0.9079
 6704TIP3    H241528   6.536   2.031  14.902  1.7011 -0.9994  0.5138
 6705TIP3   OH241529   6.055   3.159   4.560  0.1025 -0.4703 -0.0726
 6705TIP3    H141530   6.148   3.135   4.557  0.3789 -0.3500  3.3766
 6705TIP3    H241531   6.009   3.076   4.548  0.7164 -0.8032 -0.1710
 6706TIP3   OH241532   6.622   4.408  15.050  0.5591  0.1787  0.2344
 6706TIP3    H141533   6.533   4.399  15.016  0.0031 -0.8634  1.8193
 6706TIP3    H241534   6.656   4.319  15.053  1.1996  0.4284  0.7696
 6707TIP3   OH241535   2.018   3.901   2.953  0.1526  0.0777  0.8648
 6707TIP3    H141536   2.037   3.988   2.919  1.7286 -0.4894  0.2274
 6707TIP3    H241537   2.015   3.913   3.048 -0.4087  0.9394  0.7591
 6708TIP3   OH241538   6.254   6.694   1.974 -0.2776  0.5531  0.1150
 6708TIP3    H141539   6.339   6.649   1.982  0.4387  1.7749 -0.3414
 6708TIP3    H241540   6.269   6.761   1.907 -0.7183  2.7440  2.0597
 6709TIP3   OH241541   2.140   3.667  15.910 -0.4817  0.1810 -0.6158
 6709TIP3    H141542   2.203   3.640  15.977 -0.1742  0.5934 -0.7360
 6709TIP3    H241543   2.089   3.588  15.891  0.9186 -0.5261 -1.5395
 6710TIP3   OH241544   2.167   0.601   1.711 -0.2049  0.0051 -0.2669
 6710TIP3    H141545   2.178   0.675   1.651  1.1981 -0.1102 -0.1800
 6710TIP3    H241546   2.105   0.633   1.777 -1.8816  0.0879 -1.7956
 6711TIP3   OH241547   3.479   2.023   4.509 -0.0280 -0.0527 -0.3287
 6711TIP3    H141548   3.560   1.991   4.470  0.3431 -0.7588  0.9620
 6711TIP3    H241549   3.497   2.025   4.603 -1.3203  0.3217 -0.0747
 6712TIP3   OH241550   6.372   4.755  15.413 -1.1187 -0.3150 -0.7104
 6712TIP3    H141551   6.418   4.723  15.335  0.8615  0.4762  0.0539
 6712TIP3    H241552   6.392   4.690  15.480 -0.7397  0.2529 -0.2643
 6713TIP3   OH241553   5.604   6.274   4.975 -0.5347 -0.5443  0.3620
 6713TIP3    H141554   5.565   6.191   4.948 -1.9513  0.0440  0.4943
 6713TIP3    H241555   5.540   6.311   5.037 -1.0054  1.6188 -1.2926
 6714TIP3   OH241556   4.832   4.771  11.447  0.3612  0.6481  0.2957
 6714TIP3    H141557   4.835   4.865  11.465 -0.3978  0.9848 -1.1704
 6714TIP3    H241558   4.919   4.751  11.411  1.0636  0.4415  2.0193
 6715TIP3   OH241559   6.410   4.506   4.917  0.4382  0.0503 -0.4423
 6715TIP3    H141560   6.407   4.596   4.950 -0.0618  0.0012 -0.3377
 6715TIP3    H241561   6.347   4.505   4.845  0.7134 -0.1233 -0.6807
 6716TIP3   OH241562   1.950   5.095  12.694  0.0388  0.6838 -0.3165
 6716TIP3    H141563   1.857   5.081  12.679 -0.1594  0.9843  0.5580
 6716TIP3    H241564   1.958   5.103  12.789  1.1656 -0.7749 -0.2517
 6717TIP3   OH241565   2.975   6.380  16.149 -0.2874  0.1145 -0.5857
 6717TIP3    H141566   2.975   6.305  16.208 -1.6523 -0.3633 -1.1499
 6717TIP3    H241567   2.931   6.449  16.198  0.9433  0.5672 -0.0766
 6718TIP3   OH241568   0.540   3.131  11.357  0.0078 -0.0856  0.2179
 6718TIP3    H141569   0.470   3.080  11.398 -0.8629 -0.5767 -1.7753
 6718TIP3    H241570   0.521   3.222  11.381 -1.2521 -0.2287 -0.2131
 6719TIP3   OH241571   0.145   5.993  12.076  0.6590  0.3193  0.4765
 6719TIP3    H141572   0.228   6.038  12.090 -0.2050  1.7165  1.2852
 6719TIP3    H241573   0.123   5.955  12.161  1.2075 -1.3894 -0.1092
 6720TIP3   OH241574   3.100   2.876   5.212  0.2436  0.5224  0.4831
 6720TIP3    H141575   3.096   2.865   5.117  1.2326 -0.0197  0.4966
 6720TIP3    H241576   3.016   2.918   5.235  0.0711  0.8159 -0.6406
 6721TIP3   OH241577   3.156   5.029  12.989 -0.3013  0.1816  0.4033
 6721TIP3    H141578   3.074   4.982  12.999  0.1461 -0.4581  1.2498
 6721TIP3    H241579   3.197   4.991  12.911 -0.6714  0.3100  0.1421
 6722TIP3   OH241580   2.226   6.238  11.589 -0.0597  0.8724 -0.4981
 6722TIP3    H141581   2.318   6.263  11.594  0.7489 -1.7118 -1.0343
 6722TIP3    H241582   2.195   6.237  11.680  0.0414  2.9465 -0.4052
 6723TIP3   OH241583   0.513   2.329   5.352 -0.4324  0.1411 -0.1728
 6723TIP3    H141584   0.544   2.240   5.338  0.5170  0.4044  0.1392
 6723TIP3    H241585   0.423   2.329   5.322 -0.0203 -0.5759 -1.4647
 6724TIP3   OH241586   6.348   1.873   5.707 -0.2807  0.0876  0.3093
 6724TIP3    H141587   6.259   1.838   5.709 -0.1698 -0.1837  0.5217
 6724TIP3    H241588   6.372   1.884   5.799 -0.1629  0.3418  0.2513
 6725TIP3   OH241589   4.715   4.359  14.719  0.3088 -0.2556  0.3701
 6725TIP3    H141590   4.787   4.404  14.764  0.8791 -0.7476 -0.0403
 6725TIP3    H241591   4.718   4.394  14.630 -1.0791  1.0284  0.7760
 6726TIP3   OH241592   4.985   4.289   4.808  0.7063 -0.2346 -0.3458
 6726TIP3    H141593   5.015   4.257   4.893 -1.6877 -1.3436  0.1853
 6726TIP3    H241594   4.914   4.350   4.829  1.3606  0.9608 -1.5205
 6727TIP3   OH241595   4.802   2.517  14.305 -0.1648  0.3063 -0.4461
 6727TIP3    H141596   4.861   2.566  14.361 -1.1780  2.5497 -1.2042
 6727TIP3    H241597   4.714   2.537  14.339 -0.6489 -0.5132 -1.1549
 6728TIP3   OH241598   3.735   3.945   2.105 -0.2021  0.3382  0.3342
 6728TIP3    H141599   3.758   3.946   2.198  0.1632  0.6346  0.2444
 6728TIP3    H241600   3.792   4.011   2.065  1.9247 -1.9212 -0.6307
 6729TIP3   OH241601   5.872   1.640  11.383  0.0182  0.1929 -0.2785
 6729TIP3    H141602   5.812   1.685  11.324 -1.4916  1.2269  1.9217
 6729TIP3    H241603   5.820   1.568  11.419  1.5888 -1.7819 -1.7392
 6730TIP3   OH241604   3.298   6.061   1.036 -0.1721  0.1148 -0.6947
 6730TIP3    H141605   3.211   6.027   1.057 -1.1336  0.4430 -3.7065
 6730TIP3    H241606   3.355   5.985   1.038 -1.0862 -0.6038 -1.2997
 6731TIP3   OH241607   1.379   1.083  12.161  0.7138 -0.4299  0.2676
 6731TIP3    H141608   1.437   1.135  12.105 -1.5501  0.9652 -0.9407
 6731TIP3    H241609   1.407   1.105  12.250  1.6385  0.6795 -0.2615
 6732TIP3   OH241610   5.822   1.760  16.211 -0.3550  0.5847 -0.2296
 6732TIP3    H141611   5.856   1.726  16.294  0.2059 -0.5412 -0.8922
 6732TIP3    H241612   5.890   1.738  16.147 -1.4523  0.0516 -1.2495
 6733TIP3   OH241613   5.941   0.413   4.664 -0.7307 -0.2970 -0.0984
 6733TIP3    H141614   5.896   0.472   4.724  0.0508  0.7727 -0.5333
 6733TIP3    H241615   5.989   0.353   4.722  1.6608  1.9515  0.4886
 6734TIP3   OH241616   2.159   4.365   1.190  0.0951 -0.1431  0.4412
 6734TIP3    H141617   2.134   4.381   1.281  0.3544  2.0837  0.1653
 6734TIP3    H241618   2.239   4.416   1.177 -0.0284 -0.2843 -1.0755
 6735TIP3   OH241619   4.640   2.869  15.065  0.5991 -0.0077  0.1228
 6735TIP3    H141620   4.629   2.942  15.126 -1.2466 -0.2995  0.2139
 6735TIP3    H241621   4.602   2.794  15.112 -1.9416 -0.0263 -1.7235
 6736TIP3   OH241622   6.689   3.601   5.529  0.1116 -0.0978  0.1638
 6736TIP3    H141623   6.728   3.650   5.457  1.7551  0.5085  1.3955
 6736TIP3    H241624   6.648   3.668   5.584  0.1546 -0.3828  0.5467
 6737TIP3   OH241625   1.326   3.486  13.223 -0.2096  0.3252 -0.3379
 6737TIP3    H141626   1.360   3.432  13.151  1.1775  0.4278  0.1977
 6737TIP3    H241627   1.233   3.496  13.204 -0.1696 -0.8878 -1.3237
 6738TIP3   OH241628   0.316   6.241   3.873 -0.3268  0.6791  0.1538
 6738TIP3    H141629   0.304   6.333   3.894 -0.7254  0.3854  1.2584
 6738TIP3    H241630   0.357   6.203   3.951 -1.8261 -0.4381  0.4316
 6739TIP3   OH241631   1.952   2.587   1.461  0.6416 -0.9667  0.0185
 6739TIP3    H141632   1.918   2.530   1.530 -1.2482 -0.2956 -0.3168
 6739TIP3    H241633   1.884   2.587   1.394  0.9037  1.1079 -0.3099
 6740TIP3   OH241634   1.905   6.241   4.935 -0.2643 -0.5759 -0.0463
 6740TIP3    H141635   1.980   6.204   4.982 -1.2301  0.9957  3.0797
 6740TIP3    H241636   1.831   6.186   4.961 -0.8953  0.5988  0.7933
 6741TIP3   OH241637   0.229   1.170  14.254  0.1486 -0.1339 -0.5734
 6741TIP3    H141638   0.299   1.235  14.256 -0.7354  0.8455 -1.1345
 6741TIP3    H241639   0.257   1.108  14.186  0.6248  0.0673 -0.5669
 6742TIP3   OH241640   3.207   2.254   4.145 -0.0831 -0.4627  0.0801
 6742TIP3    H141641   3.166   2.338   4.167 -0.6909 -0.7264 -0.0254
 6742TIP3    H241642   3.269   2.238   4.217  2.3934  1.5768 -1.4566
 6743TIP3   OH241643   0.421   4.298   4.644  0.1696 -0.2926  0.6921
 6743TIP3    H141644   0.369   4.272   4.568 -0.1163 -1.9328  1.3873
 6743TIP3    H241645   0.500   4.338   4.608  0.5270 -1.9812 -0.5027
 6744TIP3   OH241646   5.387   2.701   3.781  0.4673  0.0743  0.6612
 6744TIP3    H141647   5.340   2.680   3.861 -1.3880 -0.0729 -0.3953
 6744TIP3    H241648   5.374   2.795   3.770 -1.3427 -0.2602 -0.6160
 6745TIP3   OH241649   0.515   3.384   3.607 -0.2651 -0.3579 -0.5199
 6745TIP3    H141650   0.448   3.417   3.668 -0.0330  0.7298 -0.8299
 6745TIP3    H241651   0.479   3.403   3.520 -0.7110 -2.1345 -0.7478
 6746TIP3   OH241652   6.260   4.776  13.649  0.9826 -0.5866  0.5041
 6746TIP3    H141653   6.331   4.721  13.615  0.8836 -1.4722  1.6292
 6746TIP3    H241654   6.295   4.812  13.730 -0.1706 -1.9040  1.6530
 6747TIP3   OH241655   6.446   1.543   2.293  0.1824 -0.1290  0.2939
 6747TIP3    H141656   6.397   1.618   2.326  0.8316 -0.0926  1.1810
 6747TIP3    H241657   6.490   1.506   2.369  0.3276 -1.0816 -0.2269
 6748TIP3   OH241658   2.959   6.043  12.976 -0.2922  0.2598  0.1561
 6748TIP3    H141659   2.894   6.085  13.033 -1.1970 -1.4463  0.4352
 6748TIP3    H241660   3.043   6.077  13.008 -0.9726  1.9087  0.2995
 6749TIP3   OH241661   0.952   6.483   3.899 -0.4787  0.0725  0.0056
 6749TIP3    H141662   0.948   6.520   3.987  0.0366 -0.8745  0.4469
 6749TIP3    H241663   0.861   6.470   3.874 -0.6670  1.5221 -0.1269
 6750TIP3   OH241664   0.070   2.600   2.629 -0.2845  0.1903 -0.1448
 6750TIP3    H141665   0.116   2.527   2.672  1.2133  1.9589  1.4214
 6750TIP3    H241666   0.088   2.587   2.536 -0.6230 -1.7872  0.0139
 6751TIP3   OH241667   1.852   3.255   3.567 -0.3590  0.1615 -0.3538
 6751TIP3    H141668   1.789   3.238   3.637  0.6194 -0.3486  0.4319
 6751TIP3    H241669   1.824   3.197   3.496  0.9270 -2.4177  1.0741
 6752TIP3   OH241670   5.291   2.508  14.588 -0.2121 -0.8399 -0.2297
 6752TIP3    H141671   5.348   2.505  14.512 -0.2371 -0.5188 -0.2645
 6752TIP3    H241672   5.298   2.599  14.619 -1.0148 -0.6912 -0.4713
 6753TIP3   OH241673   0.976   2.918   2.412  0.1997 -0.2372 -0.1207
 6753TIP3    H141674   0.958   2.972   2.335  1.0651  0.6742  0.2858
 6753TIP3    H241675   1.037   2.851   2.380  1.1718  0.6003 -0.0935
 6754TIP3   OH241676   1.841   0.829  13.839  0.0736  0.4843 -0.6044
 6754TIP3    H141677   1.803   0.903  13.886  0.4189  0.5011 -0.3553
 6754TIP3    H241678   1.934   0.850  13.830  0.5328 -0.6991  0.9817
 6755TIP3   OH241679   5.735   1.850   4.873  0.2364  0.4908 -0.3177
 6755TIP3    H141680   5.674   1.790   4.916  0.8900 -0.7551 -1.0901
 6755TIP3    H241681   5.679   1.922   4.843 -1.2148 -1.3362 -2.3624
 6756TIP3   OH241682   0.033   1.437   5.892  0.2376  0.0830  0.0014
 6756TIP3    H141683   0.105   1.440   5.829  1.2547 -0.1174  1.0970
 6756TIP3    H241684   0.077   1.430   5.977 -1.0815  0.5528  0.7459
 6757TIP3   OH241685   3.672   6.415   3.889 -0.1141 -0.4707  0.1539
 6757TIP3    H141686   3.580   6.412   3.863  0.6128 -0.1852 -2.7906
 6757TIP3    H241687   3.720   6.416   3.806  2.5009  1.0960  1.5666
 6758TIP3   OH241688   0.878   0.470  13.000 -0.7458  0.0552  0.2289
 6758TIP3    H141689   0.876   0.544  13.061 -1.3926  2.1982 -2.2034
 6758TIP3    H241690   0.841   0.397  13.049 -0.8985  1.5436  2.4725
 6759TIP3   OH241691   1.651   3.245   0.227  0.3241 -0.0959 -0.4604
 6759TIP3    H141692   1.737   3.285   0.239  0.9495 -1.6570  0.6696
 6759TIP3    H241693   1.619   3.281   0.144  1.2572  1.8799 -0.0165
 6760TIP3   OH241694   3.954   1.188  14.220 -0.4230  0.0505  0.2951
 6760TIP3    H141695   3.942   1.216  14.311  0.1286 -0.8278  0.6539
 6760TIP3    H241696   4.011   1.111  14.226 -1.9498 -1.2112 -0.6368
 6761TIP3   OH241697   1.999   1.878   2.875  0.4915 -0.3620  0.6327
 6761TIP3    H141698   2.051   1.932   2.934  0.8799 -0.4150  0.3367
 6761TIP3    H241699   1.941   1.829   2.933  1.2690 -0.8433  1.0236
 6762TIP3   OH241700   4.127   4.752   2.684  0.0960 -0.3908 -0.2227
 6762TIP3    H141701   4.165   4.824   2.734 -0.8532 -1.5221  2.3262
 6762TIP3    H241702   4.045   4.788   2.649  1.1531  0.6545 -1.7827
 6763TIP3   OH241703   5.053   5.647  13.695  0.2728 -0.0890  0.0506
 6763TIP3    H141704   5.062   5.688  13.609  2.2184 -0.7480 -0.1040
 6763TIP3    H241705   5.130   5.592  13.703  0.0059 -0.2186  2.1423
 6764TIP3   OH241706   3.520   2.236  14.487  0.4836  0.2597 -0.7377
 6764TIP3    H141707   3.579   2.203  14.420 -2.1403 -2.2641 -2.0518
 6764TIP3    H241708   3.436   2.194  14.468 -0.6305 -0.1203  3.7116
 6765TIP3   OH241709   4.699   3.095  14.508  0.2211  0.1849 -0.0783
 6765TIP3    H141710   4.726   3.146  14.584 -1.9720  1.2177  0.0777
 6765TIP3    H241711   4.714   3.004  14.534 -0.1577  0.5308  1.4438
 6766TIP3   OH241712   4.633   6.521  10.772  0.3224 -0.4019  0.4293
 6766TIP3    H141713   4.695   6.452  10.797 -0.7193 -1.7449 -0.5169
 6766TIP3    H241714   4.646   6.532  10.678  0.4638  0.7071  0.5703
 6767TIP3   OH241715   2.629   2.051   2.877 -0.8326 -0.7710  0.3262
 6767TIP3    H141716   2.625   2.088   2.965 -1.0056  0.0999 -0.0406
 6767TIP3    H241717   2.717   2.013   2.871 -0.9423 -1.1577  0.9865
 6768TIP3   OH241718   1.360   0.379   2.075 -0.2424  0.5962  0.4108
 6768TIP3    H141719   1.445   0.336   2.076  0.5186  2.0211 -0.4504
 6768TIP3    H241720   1.360   0.432   1.995 -1.3799  1.6722  1.0818
 6769TIP3   OH241721   6.324   6.215  15.950 -0.2046 -0.1826  0.3519
 6769TIP3    H141722   6.333   6.124  15.980 -2.3155 -1.0094 -1.2379
 6769TIP3    H241723   6.388   6.223  15.880 -0.3206 -0.6373  0.1833
 6770TIP3   OH241724   5.555   1.280  10.764  0.1274 -0.0327 -0.1144
 6770TIP3    H141725   5.599   1.335  10.699  1.7408 -1.5576 -0.3940
 6770TIP3    H241726   5.503   1.218  10.712  0.7558 -0.7194  0.0575
 6771TIP3   OH241727   4.711   2.013  16.492 -0.1699  0.4800  0.5796
 6771TIP3    H141728   4.694   2.011  16.586 -0.7880  0.2494  0.4652
 6771TIP3    H241729   4.671   2.094  16.461  0.4215  0.7807  0.5841
 6772TIP3   OH241730   1.397   0.076   4.916  0.0394  0.3361 -0.4413
 6772TIP3    H141731   1.354   0.001   4.876  0.6865 -0.7546  0.8313
 6772TIP3    H241732   1.445   0.117   4.844 -1.0906  0.1307 -1.3572
 6773TIP3   OH241733   1.572   0.241   1.747  0.2311  0.2416 -0.2227
 6773TIP3    H141734   1.493   0.236   1.692 -0.0985  0.2698  0.2423
 6773TIP3    H241735   1.588   0.150   1.772  0.2795  0.2495 -0.2262
 6774TIP3   OH241736   1.739   5.614  12.382 -0.4284 -0.1827  0.3213
 6774TIP3    H141737   1.700   5.541  12.431  0.9960 -2.3239 -1.5624
 6774TIP3    H241738   1.672   5.638  12.318 -0.9171  0.2249  0.9706
 6775TIP3   OH241739   5.317   0.612  13.895  0.2859 -0.1802  0.1470
 6775TIP3    H141740   5.274   0.645  13.817  3.6364  1.9499 -1.0152
 6775TIP3    H241741   5.390   0.560  13.862  0.7163 -0.7749  1.9053
 6776TIP3   OH241742   2.923   5.791   3.230 -0.0245 -0.1984  0.6549
 6776TIP3    H141743   2.937   5.701   3.257  0.8480  0.4331  2.4684
 6776TIP3    H241744   3.006   5.818   3.191 -0.0581  0.0404  0.7480
 6777TIP3   OH241745   0.547   2.196   1.047  0.4716 -0.4645  0.5712
 6777TIP3    H141746   0.536   2.113   1.093 -0.3844  0.0566  1.3435
 6777TIP3    H241747   0.474   2.250   1.077  0.4831  0.2580 -0.6196
 6778TIP3   OH241748   3.793   5.975  14.654  0.5670  0.1554 -0.4723
 6778TIP3    H141749   3.880   6.003  14.680 -0.0084  1.3473  0.2548
 6778TIP3    H241750   3.776   5.896  14.706  0.8115  0.5112  0.1565
 6779TIP3   OH241751   4.783   1.262   0.553 -0.3459  0.1422  0.0506
 6779TIP3    H141752   4.859   1.313   0.581 -1.4131  0.4182  2.7116
 6779TIP3    H241753   4.818   1.174   0.538  0.6960  0.5608 -0.1165
 6780TIP3   OH241754   3.135   1.637   3.948 -0.4665 -0.0861 -0.3570
 6780TIP3    H141755   3.061   1.658   3.892 -0.2642  1.6533 -0.0126
 6780TIP3    H241756   3.126   1.695   4.023  1.6242  0.6851 -0.6427
 6781TIP3   OH241757   4.184   5.847   2.439 -0.1985 -0.1483 -0.0963
 6781TIP3    H141758   4.243   5.918   2.465  0.2781 -0.6774  0.2897
 6781TIP3    H241759   4.225   5.809   2.361 -0.5814  0.1459 -0.4498
 6782TIP3   OH241760   0.881   1.102   5.867  0.1230 -0.1999 -0.2639
 6782TIP3    H141761   0.812   1.168   5.865 -0.6781 -0.8084  2.4607
 6782TIP3    H241762   0.962   1.152   5.859 -0.5224  0.9599  0.1395
 6783TIP3   OH241763   3.605   1.035   6.039  0.2509  0.0379  0.0115
 6783TIP3    H141764   3.589   0.968   6.104 -1.1953 -1.2768 -1.5936
 6783TIP3    H241765   3.535   1.099   6.052 -0.8546 -0.9037 -1.0167
 6784TIP3   OH241766   3.314   4.224   2.863 -0.0552 -0.2764  0.0900
 6784TIP3    H141767   3.322   4.303   2.915 -0.4633  0.0047 -0.2718
 6784TIP3    H241768   3.330   4.153   2.925 -0.2780  0.0625  0.5380
 6785TIP3   OH241769   0.218   5.908   5.275  0.3932 -0.3080  0.5750
 6785TIP3    H141770   0.247   5.832   5.225 -0.3770  0.7213 -1.5364
 6785TIP3    H241771   0.285   5.975   5.260 -0.4836  0.4294 -0.1839
 6786TIP3   OH241772   2.096   6.309   4.219  0.5966  0.1509  0.3630
 6786TIP3    H141773   2.018   6.262   4.248  0.1555 -0.0852 -1.1185
 6786TIP3    H241774   2.123   6.359   4.296 -1.4304  0.7988  0.7272
 6787TIP3   OH241775   0.241   0.493   3.750  0.2905  0.1581  0.5272
 6787TIP3    H141776   0.208   0.568   3.800 -2.9835 -2.0246  1.9793
 6787TIP3    H241777   0.162   0.446   3.722  2.1433 -3.1070  0.2508
 6788TIP3   OH241778   2.055   2.701  16.418  0.1989  0.6844 -0.5046
 6788TIP3    H141779   2.036   2.633  16.483 -0.8450  2.4547  1.1358
 6788TIP3    H241780   2.001   2.676  16.343  0.4029 -0.6893 -0.2334
 6789TIP3   OH241781   2.662   2.681   0.501 -0.2591 -0.5144 -0.1193
 6789TIP3    H141782   2.732   2.639   0.551  0.3247 -3.1255 -2.8013
 6789TIP3    H241783   2.708   2.739   0.440 -0.8349  1.3462  1.1499
 6790TIP3   OH241784   2.286   4.350  14.725  0.0647 -0.5976 -0.0590
 6790TIP3    H141785   2.305   4.416  14.658  0.2501 -0.6974 -0.1080
 6790TIP3    H241786   2.373   4.318  14.750 -0.0935 -2.4045 -1.6149
 6791TIP3   OH241787   2.750   1.571   2.826  0.4058 -0.1606 -0.0255
 6791TIP3    H141788   2.695   1.598   2.753 -0.3285 -0.9475  0.2206
 6791TIP3    H241789   2.690   1.524   2.885  1.3139 -0.9358  0.3007
 6792TIP3   OH241790   1.619   0.160  12.280 -0.0481  0.1612  0.8893
 6792TIP3    H141791   1.569   0.177  12.200  0.4230  2.1448  0.9463
 6792TIP3    H241792   1.709   0.148  12.250 -0.0900 -0.5217  1.0216
 6793TIP3   OH241793   4.358   4.964  13.325  0.3148  0.0077 -0.2012
 6793TIP3    H141794   4.419   4.890  13.329  0.8313  0.4560  0.4836
 6793TIP3    H241795   4.343   4.987  13.417  0.6699  1.1616 -0.4253
 6794TIP3   OH241796   2.220   1.979  11.602 -0.7667  0.6287  0.0456
 6794TIP3    H141797   2.172   1.916  11.656  1.4611 -1.0302  0.2277
 6794TIP3    H241798   2.205   1.950  11.512  1.1136 -0.9329  0.1706
 6795TIP3   OH241799   4.193   2.735   0.194 -0.3914 -0.1235 -0.0653
 6795TIP3    H141800   4.199   2.703   0.104 -1.2850 -0.1107 -0.1341
 6795TIP3    H241801   4.138   2.813   0.189  0.7930  0.7602  0.2856
 6796TIP3   OH241802   0.328   2.335  16.280 -0.3116 -0.0202  0.6496
 6796TIP3    H141803   0.290   2.260  16.326  2.7595 -1.5826  0.8647
 6796TIP3    H241804   0.391   2.372  16.341 -0.6757  1.8485 -0.0307
 6797TIP3   OH241805   5.799   1.693  13.117  0.0572 -0.4606  0.2698
 6797TIP3    H141806   5.762   1.756  13.055 -0.3977  0.0271  1.0241
 6797TIP3    H241807   5.876   1.738  13.154 -0.8932  0.1311  1.6214
 6798TIP3   OH241808   1.194   4.290   3.529  0.1075  0.1708 -0.0438
 6798TIP3    H141809   1.108   4.267   3.494  0.7641 -0.6047 -1.2318
 6798TIP3    H241810   1.201   4.239   3.610 -0.7183  0.5956  0.3079
 6799TIP3   OH241811   3.678   0.098   3.788  0.1882 -0.8862  0.5516
 6799TIP3    H141812   3.600   0.051   3.817 -1.1821 -0.4665 -2.1491
 6799TIP3    H241813   3.726   0.035   3.734 -1.8576  0.6391 -3.4219
 6800TIP3   OH241814   3.193   0.039   2.273  0.0517  0.0426 -0.3750
 6800TIP3    H141815   3.205   0.115   2.329  0.4330 -0.6870  0.5484
 6800TIP3    H241816   3.174   0.076   2.186 -0.7830  1.1765  0.2721
 6801TIP3   OH241817   3.767   2.176  14.863  0.3507  0.3519  0.2883
 6801TIP3    H141818   3.777   2.086  14.833  0.9221 -0.6678  3.2629
 6801TIP3    H241819   3.848   2.219  14.836  0.7402 -0.4400  0.1614
 6802TIP3   OH241820   1.283   4.016   2.794 -1.0735 -0.2359 -0.0789
 6802TIP3    H141821   1.288   3.922   2.810  1.6401 -0.0187  0.8657
 6802TIP3    H241822   1.296   4.025   2.699  2.1042 -0.7739  0.1892
 6803TIP3   OH241823   1.293   5.038   1.757  0.2627 -0.4086 -0.1989
 6803TIP3    H141824   1.235   5.087   1.816 -1.5407  0.9637 -2.9120
 6803TIP3    H241825   1.279   4.946   1.781 -1.3433  0.0322  0.7269
 6804TIP3   OH241826   6.761   3.582  15.465 -0.3827  0.9889 -0.0686
 6804TIP3    H141827   6.839   3.542  15.427  0.0782  1.9799 -0.2224
 6804TIP3    H241828   6.689   3.524  15.442  0.4240 -0.4267  0.8440
 6805TIP3   OH241829   2.764   6.789   3.449  0.0133  0.6398  0.1971
 6805TIP3    H141830   2.679   6.770   3.491 -0.0984  0.1170 -0.2529
 6805TIP3    H241831   2.809   6.846   3.511 -1.9310  3.6371 -0.9323
 6806TIP3   OH241832   3.940   3.690   4.511  0.6702 -0.0592  0.1604
 6806TIP3    H141833   3.882   3.686   4.435  1.2682 -0.8278 -0.2689
 6806TIP3    H241834   3.995   3.767   4.496  0.8229 -0.2417 -0.2060
 6807TIP3   OH241835   5.300   1.624  11.962  0.8940 -0.2861  0.0117
 6807TIP3    H141836   5.355   1.580  12.027 -0.3711 -0.2677  1.1616
 6807TIP3    H241837   5.246   1.684  12.014  1.0194  0.9972 -1.2726
 6808TIP3   OH241838   6.058   1.202  17.105  0.2765  0.5050  0.2728
 6808TIP3    H141839   6.030   1.128  17.051  0.3564  0.8874 -0.3075
 6808TIP3    H241840   6.128   1.167  17.160  0.5026  0.2103 -0.1901
 6809TIP3   OH241841   3.667   4.410  16.649  0.1949  0.2573  0.3077
 6809TIP3    H141842   3.735   4.346  16.626  1.6974  1.3167  1.5754
 6809TIP3    H241843   3.706   4.495  16.628  0.5103  1.0937  3.7092
 6810TIP3   OH241844   6.318   4.341   1.919  0.2268  0.5346 -0.1141
 6810TIP3    H141845   6.255   4.378   1.981  0.9929  1.6400  0.0357
 6810TIP3    H241846   6.334   4.411   1.856  0.9557  0.1020 -0.4224
 6811TIP3   OH241847   0.067   3.198  14.537  0.2856 -0.5579 -0.3263
 6811TIP3    H141848   0.121   3.276  14.550 -0.4533 -0.2582  1.1008
 6811TIP3    H241849   0.034   3.207  14.447 -0.7523  1.3983  0.1987
 6812TIP3   OH241850   1.494   2.017   4.045 -0.1948  0.3891 -0.2559
 6812TIP3    H141851   1.416   2.052   4.002 -0.5046  0.0264  0.0060
 6812TIP3    H241852   1.500   2.066   4.127 -2.5401 -2.3562  1.7270
 6813TIP3   OH241853   6.014   2.352  12.564 -0.3827  0.7846 -0.1116
 6813TIP3    H141854   6.024   2.440  12.528  2.6316  1.6819  2.4283
 6813TIP3    H241855   5.963   2.365  12.645  2.1364  0.7637  1.5939
 6814TIP3   OH241856   3.785   0.251   4.960 -0.3479 -0.2995 -0.5779
 6814TIP3    H141857   3.720   0.207   4.905 -1.3522  0.8691 -0.3746
 6814TIP3    H241858   3.849   0.286   4.899  0.1517 -1.4973 -0.7795
 6815TIP3   OH241859   3.407   5.717  13.151 -0.0454 -0.6442 -0.2811
 6815TIP3    H141860   3.396   5.685  13.062 -2.2492 -1.4739  0.2228
 6815TIP3    H241861   3.466   5.653  13.192 -0.5158 -1.3127 -0.6348
 6816TIP3   OH241862   2.792   0.938   1.990  0.5816 -0.1591 -0.5333
 6816TIP3    H141863   2.840   0.997   2.049  0.8965 -2.4476  1.6645
 6816TIP3    H241864   2.855   0.917   1.921  0.0930  2.8619 -2.0648
 6817TIP3   OH241865   4.827   5.911   0.852 -0.3187  0.0821  0.2675
 6817TIP3    H141866   4.803   6.002   0.833 -2.1356 -0.4092  0.0806
 6817TIP3    H241867   4.754   5.860   0.820 -0.2798 -1.3177  2.2709
 6818TIP3   OH241868   0.740   3.710   4.614  0.3625  0.3686  0.1651
 6818TIP3    H141869   0.823   3.734   4.573  1.5818 -0.9218  1.7395
 6818TIP3    H241870   0.732   3.616   4.601 -0.7801  0.4380  0.2164
 6819TIP3   OH241871   3.599   4.701  15.825  0.5531 -0.0397 -0.2652
 6819TIP3    H141872   3.624   4.619  15.783  1.1589  0.1484 -0.2803
 6819TIP3    H241873   3.566   4.756  15.754 -1.1865 -0.7551 -0.0572
 6820TIP3   OH241874   4.746   6.739   2.355  0.0448  0.3770  0.3672
 6820TIP3    H141875   4.727   6.750   2.448 -0.4467 -2.2789  0.6511
 6820TIP3    H241876   4.661   6.728   2.314  0.2951  0.8835 -0.3003
 6821TIP3   OH241877   1.621   0.141   3.991  0.0610 -0.1253 -0.0310
 6821TIP3    H141878   1.682   0.189   4.046  0.1840  0.8573 -0.9878
 6821TIP3    H241879   1.541   0.194   3.992 -0.9799 -1.5861  1.5235
 6822TIP3   OH241880   4.057   3.673  16.709 -0.4668 -0.2860  0.0562
 6822TIP3    H141881   3.966   3.645  16.705 -0.6510  0.3964 -0.8709
 6822TIP3    H241882   4.065   3.718  16.793 -1.3685  0.9093 -0.4790
 6823TIP3   OH241883   5.971   4.102   0.010  0.2539  0.1152  0.4063
 6823TIP3    H141884   5.885   4.135  -0.015 -0.3028  1.0663  3.1390
 6823TIP3    H241885   6.027   4.118  -0.066 -1.5507  1.1847 -0.7702
 6824TIP3   OH241886   4.721   5.171  14.384 -0.6356 -0.4587 -0.4120
 6824TIP3    H141887   4.649   5.223  14.349  0.0216  0.0213 -1.0961
 6824TIP3    H241888   4.749   5.218  14.463  0.5075  0.7495 -1.4858
 6825TIP3   OH241889   0.247   5.655  12.146  0.2040  0.0201 -0.0332
 6825TIP3    H141890   0.156   5.638  12.119  0.0884  0.0715  0.3148
 6825TIP3    H241891   0.290   5.687  12.067  0.0946 -0.6495 -0.3736
 6826TIP3   OH241892   3.355   6.177  11.312 -0.1300  0.5132  0.1469
 6826TIP3    H141893   3.420   6.246  11.297  0.1950  0.7254  2.2259
 6826TIP3    H241894   3.399   6.096  11.288  0.6618  0.7374  0.7983
 6827TIP3   OH241895   6.709   6.208   5.648  0.0780 -0.3262  0.1730
 6827TIP3    H141896   6.770   6.139   5.621  0.6881  0.1977  0.1763
 6827TIP3    H241897   6.717   6.275   5.580  0.9661  0.6058  1.1539
 6828TIP3   OH241898   2.209   1.668  12.988  0.0874 -0.1229  0.4753
 6828TIP3    H141899   2.256   1.629  13.063  1.3751  0.3026 -0.0810
 6828TIP3    H241900   2.238   1.759  12.986  0.3286 -0.2059 -0.7202
 6829TIP3   OH241901   5.466   0.029  14.158 -0.2483 -0.0440 -0.2061
 6829TIP3    H141902   5.453   0.072  14.242  0.0151  0.4020 -0.3927
 6829TIP3    H241903   5.556  -0.003  14.161  0.4973  1.8209 -1.1321
 6830TIP3   OH241904   6.687   0.748  15.022  0.1762  0.1875  0.3404
 6830TIP3    H141905   6.754   0.805  15.061  0.0167  0.9478 -0.4585
 6830TIP3    H241906   6.606   0.776  15.064  0.1907  0.0825  0.4391
 6831TIP3   OH241907   4.334   4.217  11.744  0.3297 -0.3232 -0.0614
 6831TIP3    H141908   4.269   4.153  11.715  0.7762  0.6438 -3.7737
 6831TIP3    H241909   4.394   4.225  11.669  2.6189  1.4908  1.8141
 6832TIP3   OH241910   3.729   1.819   0.448  0.2534  0.3702  0.0538
 6832TIP3    H141911   3.800   1.827   0.384 -1.1761  1.3512 -1.4692
 6832TIP3    H241912   3.721   1.725   0.463  0.5855  0.1178 -1.2432
 6833TIP3   OH241913   6.670   3.592  16.609  1.3088  0.5266 -0.1587
 6833TIP3    H141914   6.597   3.621  16.553  0.9732  0.5794  0.3001
 6833TIP3    H241915   6.664   3.497  16.609  1.1290  0.5374  0.0225
 6834TIP3   OH241916   1.261   4.624  15.121  0.2587  0.1225 -0.3357
 6834TIP3    H141917   1.314   4.679  15.064  0.7742 -1.6433 -1.6356
 6834TIP3    H241918   1.243   4.679  15.197  1.1163  1.9083 -1.3618
 6835TIP3   OH241919   0.295   0.757  14.857  0.6182 -0.1349  0.3173
 6835TIP3    H141920   0.283   0.822  14.926 -0.6519  0.6577 -0.6155
 6835TIP3    H241921   0.373   0.708  14.884  0.3705  0.3825  2.1111
 6836TIP3   OH241922   6.017   1.912  16.758 -0.1603  0.4721  0.2128
 6836TIP3    H141923   6.067   1.908  16.676 -0.9311 -0.5606 -0.2186
 6836TIP3    H241924   6.078   1.951  16.820  1.2512 -0.8410 -0.2790
 6837TIP3   OH241925   4.513   4.860   3.184  0.7197  0.2745  0.1520
 6837TIP3    H141926   4.565   4.779   3.184 -1.0066 -0.8997 -0.5679
 6837TIP3    H241927   4.577   4.930   3.197  2.5471 -1.0283 -1.3209
 6838TIP3   OH241928   4.855   5.636   5.094  1.0125 -0.5351 -0.2019
 6838TIP3    H141929   4.820   5.552   5.063 -0.0964  0.6359 -2.3919
 6838TIP3    H241930   4.833   5.639   5.187 -0.5276 -1.9283 -0.4766
 6839TIP3   OH241931   0.908   1.061   5.547  0.1686 -0.2795 -0.8938
 6839TIP3    H141932   0.980   1.000   5.556  1.7129  1.5109 -0.5454
 6839TIP3    H241933   0.911   1.114   5.626 -2.2554 -0.8457 -0.3412
 6840TIP3   OH241934   6.087   1.616  11.185  0.2291 -0.5428  0.0092
 6840TIP3    H141935   6.136   1.684  11.232 -1.2797  1.4400 -1.1194
 6840TIP3    H241936   5.997   1.625  11.217  0.0802 -2.3772  0.1794
 6841TIP3   OH241937   6.067   1.518  14.942  0.2060  0.0141  0.2879
 6841TIP3    H141938   5.988   1.567  14.919  0.3122 -0.6993 -1.7995
 6841TIP3    H241939   6.139   1.580  14.930  0.1495 -0.0019 -0.1472
 6842TIP3   OH241940   1.214   5.988   2.541 -0.0122 -0.2788 -0.4400
 6842TIP3    H141941   1.209   5.943   2.625 -0.9794 -0.4693 -0.5895
 6842TIP3    H241942   1.225   5.918   2.476 -0.9121 -0.2637 -0.6168
 6843TIP3   OH241943   5.390   2.613   1.579 -0.1702  0.3139  0.1484
 6843TIP3    H141944   5.300   2.595   1.607 -0.9514  2.9159 -0.3538
 6843TIP3    H241945   5.435   2.640   1.659 -0.8511  2.3262 -0.0901
 6844TIP3   OH241946   4.351   2.500  16.379 -0.3703 -0.0460 -0.5227
 6844TIP3    H141947   4.311   2.538  16.457 -0.0918 -0.0419 -0.3844
 6844TIP3    H241948   4.375   2.576  16.325 -0.4478 -0.0461 -0.5580
 6845TIP3   OH241949   2.695   4.838  16.531  0.5756  0.3304 -0.1285
 6845TIP3    H141950   2.740   4.852  16.448  0.4594 -4.1242 -1.1731
 6845TIP3    H241951   2.602   4.840  16.509  0.4904  0.5943  0.2346
 6846TIP3   OH241952   0.057   4.108  12.003  0.4763  0.0684 -0.5422
 6846TIP3    H141953   0.010   4.046  12.058  0.9736 -0.2162 -0.4333
 6846TIP3    H241954  -0.006   4.178  11.986  0.7387  0.9006  1.5865
 6847TIP3   OH241955   6.702   4.196  10.651 -0.1813 -0.1312  0.1978
 6847TIP3    H141956   6.725   4.104  10.664  0.0023 -0.1060  0.0381
 6847TIP3    H241957   6.785   4.241  10.640 -0.3323 -0.1669 -1.2401
 6848TIP3   OH241958   1.729   3.481  16.983  0.6484 -0.8957  0.1343
 6848TIP3    H141959   1.743   3.569  16.946 -0.7541 -0.9393 -0.5866
 6848TIP3    H241960   1.722   3.424  16.906 -1.9920 -1.0459  0.3762
 6849TIP3   OH241961   3.373   3.137   0.564  0.9980  0.3999  0.1347
 6849TIP3    H141962   3.348   3.191   0.639 -0.3278 -0.2465  0.1889
 6849TIP3    H241963   3.320   3.171   0.492  1.4520  0.2973 -0.2529
 6850TIP3   OH241964   0.551   0.286   1.423  0.1606  0.0189 -0.1662
 6850TIP3    H141965   0.558   0.264   1.330  0.1821 -0.3800 -0.0704
 6850TIP3    H241966   0.468   0.333   1.429  0.2601  0.2356 -0.4210
 6851TIP3   OH241967   4.496   3.195  16.958 -0.3500  0.5667  0.0834
 6851TIP3    H141968   4.428   3.128  16.948 -2.3146  2.0164  2.6759
 6851TIP3    H241969   4.452   3.278  16.941  0.7280  1.5651  1.8285
 6852TIP3   OH241970   4.300   6.178  12.078 -0.2929  0.3129 -0.4273
 6852TIP3    H141971   4.295   6.084  12.062  2.0770  0.2444 -1.1701
 6852TIP3    H241972   4.303   6.217  11.991  2.2573  0.7398 -0.2362
 6853TIP3   OH241973   3.023   1.496   2.797 -0.0163  0.3182  0.2892
 6853TIP3    H141974   3.024   1.460   2.708 -1.3349 -2.5315  1.3083
 6853TIP3    H241975   2.931   1.508   2.817  0.1924 -0.3621  1.7307
 6854TIP3   OH241976   1.081   3.566  13.175 -0.0957  0.1278 -0.0880
 6854TIP3    H141977   1.122   3.569  13.088  1.2487  0.4267  0.5253
 6854TIP3    H241978   1.026   3.644  13.178  0.3497  0.4654 -0.4483
 6855TIP3   OH241979   4.513   4.027  16.005  0.1590 -0.0524  0.2586
 6855TIP3    H141980   4.503   4.121  16.021  0.8947 -0.1975  1.7697
 6855TIP3    H241981   4.470   3.986  16.080 -1.0612 -0.9694 -0.9040
 6856TIP3   OH241982   5.242   6.493  14.495  0.2646  0.1967  0.0883
 6856TIP3    H141983   5.226   6.422  14.557  0.2063 -0.7038 -0.9301
 6856TIP3    H241984   5.158   6.539  14.489  0.2736  0.2973  0.6787
 6857TIP3   OH241985   1.562   5.748   5.132  1.2693 -0.2574 -0.1575
 6857TIP3    H141986   1.654   5.729   5.116  2.0557  2.2863  0.9526
 6857TIP3    H241987   1.534   5.800   5.056  0.6608 -1.1563 -0.5741
 6858TIP3   OH241988   2.424   6.180   0.117  0.2382  0.0061 -0.1743
 6858TIP3    H141989   2.397   6.261   0.160 -0.9213 -1.4442  2.0210
 6858TIP3    H241990   2.392   6.188   0.028  0.8468  2.2512 -0.2502
 6859TIP3   OH241991   4.350   4.507  13.830 -0.0099  0.8677 -0.2697
 6859TIP3    H141992   4.404   4.468  13.898  0.2004  0.5979 -0.5851
 6859TIP3    H241993   4.280   4.444  13.815  0.2335  0.6795 -0.6592
 6860TIP3   OH241994   3.861   6.087   3.660 -0.0196 -0.3525  0.0202
 6860TIP3    H141995   3.779   6.081   3.709  0.4590  1.1398  1.0627
 6860TIP3    H241996   3.910   6.157   3.703  0.0368  1.7767 -3.1728
 6861TIP3   OH241997   2.967   3.672  11.780  0.6554 -0.2352  0.1158
 6861TIP3    H141998   3.045   3.615  11.778  0.1047 -0.9880 -0.8882
 6861TIP3    H241999   2.998   3.754  11.819  1.1839 -1.6106  2.8120
 6862TIP3   OH242000   4.544   2.395   5.218  0.3456 -0.0408 -0.2607
 6862TIP3    H142001   4.552   2.489   5.204  1.2405  0.0434  0.7339
 6862TIP3    H242002   4.622   2.371   5.267 -2.1099 -0.3706  4.0283
 6863TIP3   OH242003   4.977   3.366   4.933 -0.4787  0.4864 -0.3642
 6863TIP3    H142004   5.069   3.356   4.954 -0.5692  0.8149  0.1902
 6863TIP3    H242005   4.961   3.299   4.866 -0.0224 -0.0820  0.0825
 6864TIP3   OH242006   6.284   0.509   2.041 -0.6469  0.1928 -0.2322
 6864TIP3    H142007   6.246   0.497   1.954 -1.4338  0.4615  0.0661
 6864TIP3    H242008   6.309   0.420   2.069  1.3510  0.3080 -1.4769
 6865TIP3   OH242009   4.028   5.667  14.699 -0.6352  0.0797  0.0939
 6865TIP3    H142010   4.108   5.623  14.669 -1.9004 -1.7353 -0.7924
 6865TIP3    H242011   4.014   5.738  14.636  1.5586  2.0459  1.6710
 6866TIP3   OH242012   3.441   3.575   0.039 -0.1015 -0.9583  0.0849
 6866TIP3    H142013   3.472   3.511  -0.026  1.5908 -0.0389 -0.0886
 6866TIP3    H242014   3.387   3.636  -0.011  1.5837  0.0263 -0.6557
 6867TIP3   OH242015   4.834   0.640  12.207 -0.5214  0.2868 -0.0838
 6867TIP3    H142016   4.886   0.608  12.281  0.4185 -0.6710 -1.1219
 6867TIP3    H242017   4.791   0.561  12.172 -1.0737  0.7552 -0.4799
 6868TIP3   OH242018   5.398   2.564   0.091 -0.3755  0.3198  0.1793
 6868TIP3    H142019   5.357   2.512   0.160  0.4570 -3.2852 -1.7626
 6868TIP3    H242020   5.491   2.539   0.094 -0.1822  0.6173 -1.6902
 6869TIP3   OH242021   0.944   1.948   4.991  0.4132 -0.0632  0.3633
 6869TIP3    H142022   0.902   1.862   4.991 -0.1532  0.2080  0.6521
 6869TIP3    H242023   0.940   1.976   4.900 -0.6311  0.2405  0.4930
 6870TIP3   OH242024   0.447   1.363  14.327  0.4939  0.1403  0.6603
 6870TIP3    H142025   0.499   1.443  14.334  0.7284 -0.1485  3.1254
 6870TIP3    H242026   0.503   1.303  14.278  0.0266  1.6176 -1.8713
 6871TIP3   OH242027   2.459   0.003   1.442  0.2716 -0.2683 -0.0027
 6871TIP3    H142028   2.419   0.090   1.437 -0.1536 -0.3324  1.6822
 6871TIP3    H242029   2.552   0.018   1.424  0.0952  0.4439 -0.3351
 6872TIP3   OH242030   6.018   5.521  13.122 -0.2279  0.1138 -0.0548
 6872TIP3    H142031   6.023   5.598  13.179  1.0236  1.2092 -1.5711
 6872TIP3    H242032   6.006   5.557  13.034 -1.9338 -1.5257 -0.5571
 6873TIP3   OH242033   3.925   4.746   4.421  0.0203 -0.6704  0.0243
 6873TIP3    H142034   3.850   4.750   4.480 -0.3185  1.0934 -0.4656
 6873TIP3    H242035   3.989   4.691   4.467 -0.3645  0.3553  1.8897
 6874TIP3   OH242036   3.137   5.335  14.510 -0.3158  0.6364  0.5185
 6874TIP3    H142037   3.142   5.398  14.582  0.4398  1.2103 -0.0333
 6874TIP3    H242038   3.129   5.387  14.431 -1.0592  0.0050  0.1561
 6875TIP3   OH242039   4.289   2.588  12.230  0.0085  0.0223 -0.0803
 6875TIP3    H142040   4.326   2.523  12.290 -1.4801 -0.8994 -0.1249
 6875TIP3    H242041   4.244   2.536  12.163  1.0074  1.0481 -1.6130
 6876TIP3   OH242042   4.382   6.341   4.181 -0.2462  0.2266 -0.0655
 6876TIP3    H142043   4.341   6.372   4.100  1.0983 -0.0915 -0.8944
 6876TIP3    H242044   4.337   6.258   4.200  0.5867 -0.6012 -1.4837
 6877TIP3   OH242045   5.347   3.464   2.301  0.5905 -0.1372 -0.5416
 6877TIP3    H142046   5.335   3.558   2.312  1.2606 -0.0186 -0.8125
 6877TIP3    H242047   5.369   3.433   2.389  3.1384  0.3972 -0.8993
 6878TIP3   OH242048   5.325   0.314   4.128  0.1973 -0.2562 -0.0007
 6878TIP3    H142049   5.233   0.323   4.151 -0.2222 -2.0637 -0.8180
 6878TIP3    H242050   5.370   0.376   4.186 -1.6020  1.5115 -0.3753
 6879TIP3   OH242051   3.720   6.672  14.932  0.1762 -0.5157 -0.0524
 6879TIP3    H142052   3.767   6.630  15.003 -1.8665  0.8458  2.2374
 6879TIP3    H242053   3.638   6.624  14.924  0.1301 -0.2996 -1.1512
 6880TIP3   OH242054   0.668   2.654  12.039 -0.2047 -0.2801 -0.1189
 6880TIP3    H142055   0.692   2.727  12.096  0.2936 -0.2441 -0.3713
 6880TIP3    H242056   0.662   2.692  11.952  0.3367 -0.5876 -0.2972
 6881TIP3   OH242057   0.120   1.952   4.404 -0.0556  0.0252  0.2523
 6881TIP3    H142058   0.139   1.918   4.316  0.5382 -0.0180  0.3947
 6881TIP3    H242059   0.026   1.968   4.403 -0.3802 -1.6959  0.1874
 6882TIP3   OH242060   6.636   0.899  17.177 -0.1371 -0.4316  0.6181
 6882TIP3    H142061   6.702   0.856  17.122  0.0016  0.5758 -0.0226
 6882TIP3    H242062   6.552   0.873  17.138 -0.0327  2.0934 -1.5950
 6883TIP3   OH242063   0.489   3.502   4.488 -0.2720  0.7297 -0.6436
 6883TIP3    H142064   0.459   3.549   4.411 -2.2362 -0.9899 -1.0028
 6883TIP3    H242065   0.421   3.517   4.554  0.1742  0.1935 -0.0436
 6884TIP3   OH242066   2.652   3.939  16.212  0.5280  0.0527  0.6212
 6884TIP3    H142067   2.666   3.855  16.169 -0.3656  0.3669 -0.3531
 6884TIP3    H242068   2.698   3.933  16.295  0.8628 -1.2236  0.3548
 6885TIP3   OH242069   4.192   6.319   0.166  0.3136  0.2667 -0.0978
 6885TIP3    H142070   4.130   6.344   0.097  0.3931 -0.7485 -0.5541
 6885TIP3    H242071   4.275   6.307   0.119 -0.4411 -4.4779 -0.6785
 6886TIP3   OH242072   1.351   1.381  17.153 -0.5169 -0.5995 -0.1300
 6886TIP3    H142073   1.401   1.333  17.087 -0.0989 -0.9420  0.4196
 6886TIP3    H242074   1.398   1.463  17.164  0.3119 -1.1784  0.8367
 6887TIP3   OH242075   0.490   2.499  11.922  0.4108 -0.3099 -0.0010
 6887TIP3    H142076   0.519   2.567  11.982 -1.4084  1.5695 -1.1105
 6887TIP3    H242077   0.541   2.421  11.946  1.8374  1.1560  1.9725
 6888TIP3   OH242078   4.386   2.914   1.834  0.0458 -0.3183  0.2809
 6888TIP3    H142079   4.454   2.852   1.807  0.9433  0.1035  1.4978
 6888TIP3    H242080   4.426   3.000   1.819 -0.5770 -0.0513  0.1452
 6889TIP3   OH242081   1.903   5.885  16.681 -0.2504  0.0949  0.2222
 6889TIP3    H142082   1.953   5.824  16.627 -0.6447 -0.8265  0.8852
 6889TIP3    H242083   1.913   5.970  16.637  0.4829 -0.3990 -0.5836
 6890TIP3   OH242084   1.614   3.597   3.291  0.8002 -0.6321 -0.2925
 6890TIP3    H142085   1.553   3.534   3.331  0.8110 -0.3344  0.1941
 6890TIP3    H242086   1.626   3.664   3.357  1.2547 -0.4185 -0.5888
 6891TIP3   OH242087   0.316   5.312  14.988 -0.0109  0.3760  0.2358
 6891TIP3    H142088   0.285   5.372  14.920  0.3946  0.3630  0.0340
 6891TIP3    H242089   0.328   5.368  15.066  0.4728  0.5830  0.0172
 6892TIP3   OH242090   4.825   0.318  12.482  0.2314 -0.6766 -0.4076
 6892TIP3    H142091   4.916   0.339  12.463  0.3513  2.1487  2.4487
 6892TIP3    H242092   4.830   0.249  12.549  0.3254  0.1177  0.4127
 6893TIP3   OH242093   0.535   1.152  15.852 -0.3324  0.2574  0.4250
 6893TIP3    H142094   0.476   1.175  15.924  0.7599  0.7788  1.1891
 6893TIP3    H242095   0.532   1.227  15.793 -0.5035  0.2425  0.4156
 6894TIP3   OH242096   1.935   4.552  15.785  0.3873  0.4103  0.3524
 6894TIP3    H142097   2.028   4.543  15.805  0.3143  2.3524  1.7934
 6894TIP3    H242098   1.904   4.622  15.842 -1.6681  0.7768 -1.0900
 6895TIP3   OH242099   0.664   6.084   5.801 -0.2865 -0.0135  0.2975
 6895TIP3    H142100   0.626   6.154   5.855 -1.8386 -0.8586  0.3628
 6895TIP3    H242101   0.709   6.027   5.863  2.1179  1.5468  0.1104
 6896TIP3   OH242102   4.329   3.573  16.726 -0.2982 -0.5152 -0.4131
 6896TIP3    H142103   4.236   3.595  16.716 -0.0542  0.4751 -0.6005
 6896TIP3    H242104   4.352   3.527  16.646 -0.8512 -1.5835  0.0326
 6897TIP3   OH242105   3.912   0.141   5.588  0.6029 -0.0739 -0.1784
 6897TIP3    H142106   3.905   0.073   5.521 -0.9709  0.8207 -0.9653
 6897TIP3    H242107   3.886   0.221   5.544 -0.8653  0.4827  1.5839
 6898TIP3   OH242108   3.856   5.022  15.240 -0.1158 -0.1351 -0.5470
 6898TIP3    H142109   3.792   5.076  15.194 -0.1647 -0.1074 -0.4459
 6898TIP3    H242110   3.912   5.084  15.286  0.5636 -0.1160 -1.3904
 6899TIP3   OH242111   5.932   4.304  15.697 -0.6492 -0.3950 -0.2596
 6899TIP3    H142112   5.918   4.350  15.614 -1.6404  0.2917  0.2669
 6899TIP3    H242113   5.943   4.213  15.672  2.0029  0.1614 -1.3859
 6900TIP3   OH242114   0.074   0.756  17.204  0.5633 -0.6611  0.2151
 6900TIP3    H142115   0.160   0.732  17.239  0.8590  0.4035  0.2522
 6900TIP3    H242116   0.022   0.777  17.282  0.7524  0.2086  0.1161
 6901TIP3   OH242117   1.764   3.874  16.451  0.1688  0.5409 -0.2697
 6901TIP3    H142118   1.757   3.967  16.429 -0.3571  0.8435  1.0871
 6901TIP3    H242119   1.724   3.829  16.376  0.8894  1.3568 -1.1828
 6902TIP3   OH242120   5.145   1.860  11.178 -0.4467  0.0520 -0.2181
 6902TIP3    H142121   5.162   1.797  11.249  3.0644  1.6450  0.5789
 6902TIP3    H242122   5.089   1.926  11.219 -2.0103 -1.1847 -0.2876
 6903TIP3   OH242123   1.469   2.023   4.572 -0.1987  0.3935  0.0581
 6903TIP3    H142124   1.526   2.085   4.618 -0.7629 -0.1985  1.6516
 6903TIP3    H242125   1.490   2.035   4.480  1.8694  0.8109  0.5186
 6904TIP3   OH242126   3.280   2.256   3.629  0.0244 -0.1778  0.2505
 6904TIP3    H142127   3.374   2.261   3.642 -0.2447 -1.1085  3.3975
 6904TIP3    H242128   3.264   2.164   3.605 -0.2619 -0.8505  2.7557
 6905TIP3   OH242129   5.075   5.651  16.200 -0.0506 -0.6096 -0.1000
 6905TIP3    H142130   5.167   5.632  16.182 -0.3594 -1.5695 -0.7266
 6905TIP3    H242131   5.049   5.584  16.263 -0.1189  0.1570  0.7163
 6906TIP3   OH242132   2.080   3.061  10.273 -0.5618 -0.1616 -0.0135
 6906TIP3    H142133   1.996   3.050  10.319  0.0262 -2.8791  0.5870
 6906TIP3    H242134   2.139   3.098  10.339 -1.4166  2.5810 -0.6768
 6907TIP3   OH242135   3.240   0.202  14.273  0.0814  0.8143  0.1136
 6907TIP3    H142136   3.278   0.116  14.253 -1.8005 -0.2642  0.8687
 6907TIP3    H242137   3.264   0.257  14.199  0.8700 -0.5097 -0.6554
 6908TIP3   OH242138   2.038   0.830   5.227  0.5102 -0.5957 -0.2502
 6908TIP3    H142139   1.969   0.769   5.200  0.2923 -0.2186 -0.5506
 6908TIP3    H242140   2.102   0.825   5.157 -0.5656  1.2038 -1.4333
 6909TIP3   OH242141   4.889   3.009   4.286  0.9622 -0.4234  0.1585
 6909TIP3    H142142   4.873   2.928   4.237 -0.9502  0.1531 -0.2731
 6909TIP3    H242143   4.944   2.982   4.360  1.0096 -1.9689 -0.3991
 6910TIP3   OH242144   0.814   3.486  17.170 -0.1024  0.1611 -0.1465
 6910TIP3    H142145   0.730   3.459  17.132 -0.9263  0.1019  1.6093
 6910TIP3    H242146   0.830   3.422  17.239  1.7486 -0.2148 -0.8823
 6911TIP3   OH242147   2.678   6.593   2.606  0.5028 -0.1648 -0.1449
 6911TIP3    H142148   2.583   6.578   2.602  0.6232 -0.7624 -1.3039
 6911TIP3    H242149   2.701   6.616   2.516  1.6188 -0.9718 -0.0763
 6912TIP3   OH242150   3.683   0.088  14.690  0.2459  0.0497 -0.4957
 6912TIP3    H142151   3.644   0.024  14.749  0.5590 -0.2996 -0.6587
 6912TIP3    H242152   3.643   0.070  14.605 -0.2825  0.6211 -0.3716
 6913TIP3   OH242153   5.400   6.334  17.045  0.2970  0.2471  0.0294
 6913TIP3    H142154   5.309   6.305  17.048  0.4996 -0.9754 -2.4867
 6913TIP3    H242155   5.450   6.255  17.021  1.6386  1.4030 -1.2306
 6914TIP3   OH242156   1.599   2.723  15.259 -0.2499  0.6267  0.0579
 6914TIP3    H142157   1.598   2.671  15.178 -0.7546  0.2104  0.3270
 6914TIP3    H242158   1.587   2.813  15.230  2.0114  0.8054 -0.5504
 6915TIP3   OH242159   3.472   0.368   3.620 -0.2457 -0.4050  0.2900
 6915TIP3    H142160   3.469   0.275   3.597 -2.9048 -0.8115  1.8831
 6915TIP3    H242161   3.550   0.376   3.674  1.5739 -1.0646 -2.0792
 6916TIP3   OH242162   5.527   3.909   5.428 -0.0993  0.3224  0.1233
 6916TIP3    H142163   5.604   3.962   5.410 -1.1906  1.9674  0.1008
 6916TIP3    H242164   5.544   3.826   5.383  1.0423  1.1429 -1.0296
 6917TIP3   OH242165   1.563   0.260   2.587  0.5082 -0.2535  0.2254
 6917TIP3    H142166   1.611   0.248   2.669  0.2839 -0.9056  0.2681
 6917TIP3    H242167   1.526   0.348   2.593  2.4787  0.6650 -0.2166
 6918TIP3   OH242168   1.390   0.595   5.128 -0.0386  0.7180  0.2754
 6918TIP3    H142169   1.438   0.678   5.134  3.4155 -1.1511  1.2477
 6918TIP3    H242170   1.393   0.573   5.035  1.7724  0.3247  0.3823
 6919TIP3   OH242171   0.668   0.616  11.688  0.1190  0.0496 -0.0057
 6919TIP3    H142172   0.674   0.541  11.748 -1.5915 -0.0888  0.0327
 6919TIP3    H242173   0.759   0.644  11.677  1.3781 -4.1711 -2.7839
 6920TIP3   OH242174   0.563   1.627  15.493  0.0335 -0.1673  0.2795
 6920TIP3    H142175   0.623   1.553  15.497 -0.2333 -0.3925  0.1298
 6920TIP3    H242176   0.573   1.661  15.405 -0.1942 -0.3185  0.1955
 6921TIP3   OH242177   0.707   2.344  15.872 -0.1238  0.5585  0.1201
 6921TIP3    H142178   0.628   2.368  15.919  0.1912 -1.1105  1.6088
 6921TIP3    H242179   0.695   2.380  15.784 -1.1065  3.0319  1.1897
 6922TIP3   OH242180   4.873   5.282   3.153 -0.0113 -0.0252 -0.1057
 6922TIP3    H142181   4.893   5.275   3.060  1.3139 -0.5726  0.1996
 6922TIP3    H242182   4.839   5.371   3.163  0.0705  0.1278 -1.0597
 6923TIP3   OH242183   5.089   5.020   1.619 -0.2581 -0.4212 -0.1152
 6923TIP3    H142184   5.078   5.091   1.682  0.9584 -0.4474  0.1524
 6923TIP3    H242185   5.170   5.041   1.573  0.0037 -1.5163 -0.1860
 6924TIP3   OH242186   2.479   4.944  13.302  0.0317  0.0974  0.0793
 6924TIP3    H142187   2.395   4.915  13.267  0.1182  0.5620 -0.5290
 6924TIP3    H242188   2.462   5.032  13.335  0.1008 -0.1003  0.6588
 6925TIP3   OH242189   4.982   3.766   3.582  0.0447 -0.1975  0.2994
 6925TIP3    H142190   4.953   3.857   3.568 -2.1599 -0.9687 -0.5714
 6925TIP3    H242191   5.075   3.774   3.604  0.0302  2.2320 -0.2061
 6926TIP3   OH242192   1.214   3.817  16.737 -0.4639  0.0928 -0.1340
 6926TIP3    H142193   1.199   3.848  16.826 -0.6720  0.8099 -0.4046
 6926TIP3    H242194   1.306   3.837  16.719  0.2318 -2.1273  0.6928
 6927TIP3   OH242195   5.672   1.920   0.051 -0.0300 -0.3996  0.6074
 6927TIP3    H142196   5.639   2.009   0.041  1.5606 -0.0104 -2.4178
 6927TIP3    H242197   5.604   1.864   0.014  0.4051 -0.0810 -0.7219
 6928TIP3   OH242198   0.306   0.182   4.962  0.1411  0.2354 -0.2897
 6928TIP3    H142199   0.353   0.103   4.935 -0.5146 -0.1597 -0.2829
 6928TIP3    H242200   0.265   0.159   5.045 -1.3844  0.0392 -1.0733
 6929TIP3   OH242201   5.355   0.987  11.650  0.6743  0.3317 -0.2798
 6929TIP3    H142202   5.416   0.948  11.713  1.1210 -0.1386 -0.9812
 6929TIP3    H242203   5.332   1.071  11.688  3.5323  1.5465 -1.0078
 6930TIP3   OH242204   5.662   6.707  16.886 -0.2077 -0.5658 -0.0781
 6930TIP3    H142205   5.641   6.801  16.882 -0.6163 -0.6981 -2.5569
 6930TIP3    H242206   5.618   6.676  16.965  1.6431  1.6828  1.9791
 6931TIP3   OH242207   0.492   6.088   4.341 -0.1829 -0.4927  0.1022
 6931TIP3    H142208   0.477   6.137   4.422  0.1034 -0.5096  0.1660
 6931TIP3    H242209   0.411   6.038   4.328  0.2669 -1.5040  1.0780
 6932TIP3   OH242210   2.966   3.195   2.069  0.3748  0.0838  0.2434
 6932TIP3    H142211   2.932   3.108   2.085 -0.5156  0.5791  1.1336
 6932TIP3    H242212   3.050   3.197   2.115  0.2830 -0.2191  0.4238
 6933TIP3   OH242213   1.925   3.337   1.619  0.3565 -0.2164 -0.1095
 6933TIP3    H142214   1.850   3.388   1.651  0.2667 -0.3174 -0.1558
 6933TIP3    H242215   1.980   3.401   1.574  1.2158  0.2043  1.4838
 6934TIP3   OH242216   3.767   6.298  14.298  0.9166 -0.2009  0.9897
 6934TIP3    H142217   3.807   6.278  14.383  1.6748 -0.0358  0.6878
 6934TIP3    H242218   3.784   6.220  14.245  1.7167  0.2454  0.5634
 6935TIP3   OH242219   2.242   4.972  13.546  0.1168  0.3584  0.2388
 6935TIP3    H142220   2.210   4.901  13.490 -3.1478  1.7622  0.1170
 6935TIP3    H242221   2.224   4.943  13.635  0.6655  0.2374  0.3186
 6936TIP3   OH242222   2.122   5.297   1.963 -0.2236 -0.4358 -0.0318
 6936TIP3    H142223   2.038   5.334   1.936 -0.2424 -1.1576 -1.0119
 6936TIP3    H242224   2.101   5.248   2.043 -0.6180 -0.1468  0.0499
 6937TIP3   OH242225   0.970   0.583  16.874 -0.3457  0.3518 -0.6958
 6937TIP3    H142226   1.059   0.597  16.907 -0.5238 -0.9019  0.4175
 6937TIP3    H242227   0.973   0.496  16.835 -0.9770  0.4917 -1.0656
 6938TIP3   OH242228   5.736   0.734   2.877 -1.3989 -0.1975 -0.1376
 6938TIP3    H142229   5.688   0.816   2.870 -1.7838 -0.1244  2.3307
 6938TIP3    H242230   5.802   0.751   2.945 -1.7344 -2.0128  0.7095
 6939TIP3   OH242231   5.715   2.055  11.943 -0.0184  0.2778  0.4319
 6939TIP3    H142232   5.654   2.067  12.014  0.4557 -0.3284  0.9581
 6939TIP3    H242233   5.766   1.977  11.968 -1.0932 -1.1097 -1.4325
 6940TIP3   OH242234   3.985   5.376  10.770 -0.2321  0.4455  0.7293
 6940TIP3    H142235   4.000   5.294  10.817 -0.3950 -0.1163 -0.1732
 6940TIP3    H242236   4.044   5.372  10.695  1.8427  2.4288  2.1358
 6941TIP3   OH242237   2.085   1.556   3.912 -0.1424  0.0269 -0.2856
 6941TIP3    H142238   2.032   1.555   3.833  0.0358 -0.0275 -0.4065
 6941TIP3    H242239   2.160   1.612   3.890  1.1593 -1.9195 -0.9894
 6942TIP3   OH242240   6.571   4.151   3.671  0.8198  0.0554 -0.5003
 6942TIP3    H142241   6.655   4.122   3.637  0.1305 -0.3632 -1.9327
 6942TIP3    H242242   6.558   4.238   3.631  0.9861  0.5433  0.4723
 6943TIP3   OH242243   1.215   2.695   3.716 -0.1686  0.0789 -0.1585
 6943TIP3    H142244   1.137   2.748   3.702 -0.1909 -0.5638 -3.1621
 6943TIP3    H242245   1.286   2.747   3.677  0.5091 -0.3696  0.4433
 6944TIP3   OH242246   3.538   0.120  16.125  0.0863 -0.3592  0.2016
 6944TIP3    H142247   3.528   0.032  16.162 -0.3695 -0.4356 -0.0880
 6944TIP3    H242248   3.578   0.105  16.039  1.2746 -0.1716  0.7053
 6945TIP3   OH242249   5.934   0.745  12.523 -0.1319  0.2682  0.4962
 6945TIP3    H142250   6.029   0.754  12.513  0.0900 -1.3885  0.8563
 6945TIP3    H242251   5.902   0.726  12.435  0.3032 -2.2465  0.8058
 6946TIP3   OH242252   6.725   4.200   4.252 -0.0601 -0.4501  0.0320
 6946TIP3    H142253   6.799   4.149   4.286 -0.1440 -0.7086 -0.1722
 6946TIP3    H242254   6.650   4.168   4.302 -0.0667 -0.3225  0.1043
 6947TIP3   OH242255   4.671   2.477  15.296 -0.4267 -0.5731  0.2818
 6947TIP3    H142256   4.710   2.394  15.269  3.6069  0.3548  2.4103
 6947TIP3    H242257   4.666   2.471  15.391 -0.2654  1.4645  0.4655
 6948TIP3   OH242258   2.653   4.318   1.844 -0.0765  0.3931  0.1953
 6948TIP3    H142259   2.711   4.379   1.889  2.1245 -0.2011 -1.6220
 6948TIP3    H242260   2.645   4.354   1.756  3.8124 -3.1623 -1.9944
 6949TIP3   OH242261   3.140   0.946  14.612  0.6518  0.3374  0.5947
 6949TIP3    H142262   3.091   0.955  14.694  0.0843 -0.7533  0.3901
 6949TIP3    H242263   3.150   0.852  14.600 -1.6256  0.3002 -1.9159
 6950TIP3   OH242264   1.325   6.170  12.304 -0.1324  0.0304 -0.2468
 6950TIP3    H142265   1.268   6.231  12.352 -0.7119  0.4898 -1.4795
 6950TIP3    H242266   1.307   6.085  12.344 -0.6006  0.3916  0.3530
 6951TIP3   OH242267   6.014   3.356  11.320 -0.3133 -0.0711  0.4979
 6951TIP3    H142268   5.997   3.450  11.307  0.6315 -0.0587 -0.8941
 6951TIP3    H242269   5.938   3.313  11.280 -0.5290  0.0985  0.7232
 6952TIP3   OH242270   6.487   3.207   4.917 -0.5845  0.8644 -0.0167
 6952TIP3    H142271   6.530   3.144   4.976 -0.2756  1.8329  0.8312
 6952TIP3    H242272   6.403   3.167   4.896 -0.1377 -0.1115 -0.0078
 6953TIP3   OH242273   5.591   4.218   3.820 -0.0102 -0.6584  0.0297
 6953TIP3    H142274   5.682   4.249   3.815 -0.1742 -0.0097  0.7810
 6953TIP3    H242275   5.539   4.290   3.784 -0.2026 -1.2013 -0.7958
 6954TIP3   OH242276   6.166   0.157   1.437  0.5191  0.2459  0.2164
 6954TIP3    H142277   6.124   0.220   1.378 -0.5146  1.1087  1.7802
 6954TIP3    H242278   6.177   0.078   1.384 -0.3033  1.0000 -1.1420
 6955TIP3   OH242279   3.564   5.453  12.093 -0.3768  0.5101  0.1708
 6955TIP3    H142280   3.520   5.536  12.111 -2.8117 -0.6925  0.1845
 6955TIP3    H242281   3.497   5.400  12.048  1.3289 -1.1911 -0.4975
 6956TIP3   OH242282   4.889   1.708  16.112 -0.3501 -0.4272  0.0977
 6956TIP3    H142283   4.909   1.750  16.029 -1.3744  1.2615  0.6589
 6956TIP3    H242284   4.803   1.668  16.098 -1.2206  1.1274  0.7367
 6957TIP3   OH242285   5.629   2.385  15.491  0.1948  0.2019 -0.3856
 6957TIP3    H142286   5.557   2.339  15.536 -0.3801  0.5446 -0.9421
 6957TIP3    H242287   5.602   2.476  15.490  0.7201  0.3600 -0.4674
 6958TIP3   OH242288   2.003   2.242  13.918 -0.3722  0.1430  0.1455
 6958TIP3    H142289   2.021   2.206  13.831 -1.0838 -1.3984  0.6212
 6958TIP3    H242290   2.077   2.301  13.935  1.1860 -1.5857 -0.3827
 6959TIP3   OH242291   5.318   6.530  11.373  0.5197 -0.0912 -0.0762
 6959TIP3    H142292   5.325   6.450  11.424  1.8881  0.0199 -0.0636
 6959TIP3    H242293   5.310   6.499  11.282 -2.4192 -0.3057  0.1371
 6960TIP3   OH242294   3.906   2.571  15.784 -0.0224  0.1842  0.1339
 6960TIP3    H142295   3.892   2.545  15.875 -0.8133  2.9478  0.8997
 6960TIP3    H242296   3.859   2.506  15.732 -4.2400  1.4323  1.9912
 6961TIP3   OH242297   4.780   6.286   5.456 -0.4255 -0.6057  0.2653
 6961TIP3    H142298   4.708   6.290   5.393 -0.2005 -2.6730 -0.2082
 6961TIP3    H242299   4.793   6.376   5.484 -1.6931  0.1242 -1.3409
 6962TIP3   OH242300   2.054   4.585  17.182 -0.3502  0.3133  0.5717
 6962TIP3    H142301   1.990   4.514  17.197  0.8577 -0.7017  1.0933
 6962TIP3    H242302   2.080   4.613  17.269  0.7685 -0.0849  0.3807
 6963TIP3   OH242303   5.647   1.564   6.310  0.2516  0.3477 -0.3879
 6963TIP3    H142304   5.610   1.478   6.292  0.5841 -0.4565  2.3117
 6963TIP3    H242305   5.578   1.610   6.357  1.4524 -0.0289  1.8890
 6964TIP3   OH242306   3.695   2.590  12.553 -0.2800  0.2868  0.8004
 6964TIP3    H142307   3.646   2.508  12.548  0.6271 -0.2214 -0.3035
 6964TIP3    H242308   3.628   2.658  12.563 -1.2466 -0.3513 -0.9652
 6965TIP3   OH242309   0.271   0.228   5.827  0.3777 -0.1392 -0.1503
 6965TIP3    H142310   0.338   0.272   5.878  0.4056 -0.5165  0.1371
 6965TIP3    H242311   0.229   0.167   5.888 -0.3632  0.2332 -0.2661
 6966TIP3   OH242312   4.645   3.025  11.403 -0.4727 -0.8560  0.8263
 6966TIP3    H142313   4.639   2.930  11.412  1.3414 -1.0579  0.2001
 6966TIP3    H242314   4.691   3.039  11.320 -0.5581  0.5696  0.9888
 6967TIP3   OH242315   3.244   1.239   2.009 -0.2229 -0.0093 -0.0726
 6967TIP3    H142316   3.242   1.334   2.001 -0.6499  0.2357  2.1538
 6967TIP3    H242317   3.314   1.222   2.073 -1.6231 -0.9599  1.2874
 6968TIP3   OH242318   4.641   5.851  12.874 -0.2770 -0.2139 -0.2893
 6968TIP3    H142319   4.712   5.874  12.814 -0.4255 -0.1091 -0.4247
 6968TIP3    H242320   4.674   5.874  12.960 -0.5373  0.7967 -0.4434
 6969TIP3   OH242321   6.694   4.122   5.313  0.7889 -0.1491  0.0615
 6969TIP3    H142322   6.652   4.062   5.251 -0.9406  0.0704  0.9381
 6969TIP3    H242323   6.644   4.111   5.394 -0.6278  3.4745 -0.1130
 6970TIP3   OH242324   2.845   2.402  16.767 -0.5815 -0.2087 -0.4756
 6970TIP3    H142325   2.778   2.354  16.814 -1.6825  0.4250 -1.3521
 6970TIP3    H242326   2.861   2.350  16.688 -0.7004  0.0905 -0.7002
 6971TIP3   OH242327   3.833   4.786  15.404 -0.4447  0.1163 -0.0486
 6971TIP3    H142328   3.835   4.864  15.349  0.8025  0.0117 -0.1874
 6971TIP3    H242329   3.842   4.818  15.493  1.2959  0.1007 -0.1813
 6972TIP3   OH242330   3.651   0.717  14.843 -0.0807 -0.3989  0.3822
 6972TIP3    H142331   3.694   0.636  14.816 -3.1798 -2.4021  0.9650
 6972TIP3    H242332   3.629   0.762  14.761  2.6399  0.5856  0.0601
 6973TIP3   OH242333   4.514   0.591  16.267  0.4157  0.1167  0.0951
 6973TIP3    H142334   4.608   0.591  16.254  0.5644  1.4674  0.8906
 6973TIP3    H242335   4.500   0.655  16.338 -1.0913 -0.0085 -0.0534
 6974TIP3   OH242336   3.517   0.106  16.943 -0.9574  0.8384  0.2526
 6974TIP3    H142337   3.467   0.159  16.881 -2.0855  0.5937  0.9415
 6974TIP3    H242338   3.479   0.019  16.937 -0.5108  0.6110  0.6735
 6975TIP3   OH242339   2.711   5.187   5.702 -0.2524 -0.3739  0.4443
 6975TIP3    H142340   2.795   5.152   5.671 -0.8621 -0.7183 -0.9028
 6975TIP3    H242341   2.730   5.279   5.723  0.4081 -0.3791 -0.0819
 6976TIP3   OH242342   0.774   5.132   2.156  0.1624 -0.0148  0.6084
 6976TIP3    H142343   0.730   5.068   2.211 -0.5349 -0.0753 -0.0042
 6976TIP3    H242344   0.756   5.216   2.197 -0.5620 -0.0367  0.3444
 6977TIP3   OH242345   6.698   4.204   1.099  0.2513  0.1711  0.1650
 6977TIP3    H142346   6.682   4.238   1.187  0.0271 -0.7903  0.5055
 6977TIP3    H242347   6.675   4.111   1.105 -0.6098  0.2724 -1.1257
 6978TIP3   OH242348   5.414   1.043   1.544 -0.1115 -0.3171 -0.2090
 6978TIP3    H142349   5.417   1.092   1.462  1.2552 -0.2384 -0.1468
 6978TIP3    H242350   5.420   0.951   1.517 -1.9569 -0.4387 -0.2901
 6979TIP3   OH242351   3.563   3.542  15.750  0.5007  0.0411  0.1023
 6979TIP3    H142352   3.543   3.630  15.716 -1.4702 -0.3852  0.0721
 6979TIP3    H242353   3.542   3.484  15.677 -0.5860 -0.6267  0.9209
 6980TIP3   OH242354   1.978   2.148   2.765  0.2928  0.1527 -0.0996
 6980TIP3    H142355   1.975   2.052   2.765  0.0880  0.1203  1.6180
 6980TIP3    H242356   1.933   2.173   2.846 -1.1781  1.7878 -1.3559
 6981TIP3   OH242357   3.174   0.166   0.098  0.6550  0.0975 -0.2854
 6981TIP3    H142358   3.223   0.220   0.037  1.6087 -0.9033 -0.4349
 6981TIP3    H242359   3.200   0.076   0.077 -1.2219 -0.4737 -0.3426
 6982TIP3   OH242360   0.897   5.019   3.505 -0.3046 -0.3221  0.0222
 6982TIP3    H142361   0.973   5.052   3.457 -0.3209 -1.2162 -0.6437
 6982TIP3    H242362   0.930   4.998   3.592 -0.0598  0.4166  0.1081
 6983TIP3   OH242363   5.052   4.219   3.766 -0.3484  0.4012 -0.3981
 6983TIP3    H142364   5.145   4.210   3.746  0.5961  1.6525  2.8051
 6983TIP3    H242365   5.021   4.286   3.705  0.9405  0.3653 -1.1380
 6984TIP3   OH242366   5.060   3.582  16.280  0.1834 -0.4587 -0.3681
 6984TIP3    H142367   5.060   3.501  16.330  0.2027 -2.8056 -3.8007
 6984TIP3    H242368   4.971   3.589  16.246  0.9893 -0.9709 -2.7702
 6985TIP3   OH242369   4.675   1.807  12.868  0.1227  0.2379 -0.4671
 6985TIP3    H142370   4.646   1.892  12.837 -0.0200  0.1582 -0.5527
 6985TIP3    H242371   4.607   1.746  12.839 -1.6787  0.5657  2.6058
 6986TIP3   OH242372   6.508   4.985  14.105  0.0269  0.4133  0.3251
 6986TIP3    H142373   6.490   4.919  14.172 -0.9541  0.1381 -0.1868
 6986TIP3    H242374   6.585   5.032  14.137 -1.2434  1.2351  2.3508
 6987TIP3   OH242375   2.661   5.859   4.830 -0.1690 -0.2814 -0.1875
 6987TIP3    H142376   2.749   5.823   4.846 -0.7318 -1.1185  1.1574
 6987TIP3    H242377   2.645   5.917   4.904 -0.5783  0.2264 -0.6688
 6988TIP3   OH242378   4.068   2.092   2.745  0.3005  0.8883 -0.4695
 6988TIP3    H142379   4.124   2.169   2.756 -1.9103  2.4341  0.8680
 6988TIP3    H242380   3.994   2.124   2.693 -0.0261 -0.7215 -1.0457
 6989TIP3   OH242381   4.865   5.803  15.813 -0.0052  0.5230  0.3514
 6989TIP3    H142382   4.945   5.821  15.765  0.2029  1.6871  1.1095
 6989TIP3    H242383   4.839   5.887  15.851 -1.8070  0.2610 -0.2031
 6990TIP3   OH242384   1.867   5.761   6.190  0.3338  0.1361 -0.3349
 6990TIP3    H142385   1.930   5.732   6.124  1.2135 -1.2225  1.0327
 6990TIP3    H242386   1.888   5.853   6.205  0.5197  0.2929 -1.4904
 6991TIP3   OH242387   5.720   1.349  16.256  0.1739  0.4215 -0.1208
 6991TIP3    H142388   5.739   1.424  16.200 -2.1655  0.6499 -0.7490
 6991TIP3    H242389   5.646   1.378  16.310 -0.4272 -1.2254  0.0028
 6992TIP3   OH242390   1.956   3.118  17.068 -0.4744 -0.2024  0.1512
 6992TIP3    H142391   1.951   3.032  17.110 -0.9450 -0.1797  0.1524
 6992TIP3    H242392   1.893   3.113  16.996 -0.9232  0.3216  0.4929
 6993TIP3   OH242393   2.345   6.311   4.801  0.2153 -0.1880  0.2766
 6993TIP3    H142394   2.408   6.352   4.860  0.6606 -0.4688  0.0034
 6993TIP3    H242395   2.260   6.325   4.842  0.6304 -1.5762  1.7031
 6994TIP3   OH242396   5.449   6.446   4.506  0.2991 -0.3943 -0.3143
 6994TIP3    H142397   5.441   6.482   4.594 -1.0313  0.3404 -0.6985
 6994TIP3    H242398   5.543   6.438   4.491  0.7517  3.2490 -0.3051
 6995TIP3   OH242399   2.047   4.504   0.232 -0.0620 -0.6376  0.3707
 6995TIP3    H142400   2.135   4.539   0.218 -0.8771  1.1658 -0.5808
 6995TIP3    H242401   2.033   4.511   0.326 -0.4442  2.4737  0.1861
 6996TIP3   OH242402   5.719   3.080   0.115  0.0120 -0.4145 -0.2132
 6996TIP3    H142403   5.703   3.003   0.170 -0.1958 -1.0516 -1.1447
 6996TIP3    H242404   5.699   3.154   0.172 -1.4090 -1.0825  0.1999
 6997TIP3   OH242405   6.022   1.305   5.013 -0.3841 -0.2063  0.4784
 6997TIP3    H142406   5.961   1.374   4.988 -1.0142 -0.5301  1.0714
 6997TIP3    H242407   5.978   1.260   5.086  0.7526 -0.1685  1.2153
 6998TIP3   OH242408   3.247   2.854   4.206  0.0069 -0.1016  0.0608
 6998TIP3    H142409   3.220   2.774   4.252 -1.4296  0.8557  0.9732
 6998TIP3    H242410   3.311   2.824   4.141 -0.3678 -1.9546  0.4871
 6999TIP3   OH242411   6.543   1.430  16.778  0.3836  0.1650  0.2754
 6999TIP3    H142412   6.610   1.483  16.822 -0.5855  1.3750  0.3199
 6999TIP3    H242413   6.462   1.451  16.823 -0.7235  1.6923 -2.2270
 7000TIP3   OH242414   6.083   1.615  14.607 -0.2251 -0.0986  0.4628
 7000TIP3    H142415   6.159   1.595  14.553 -0.4798  1.1572 -0.3946
 7000TIP3    H242416   6.021   1.544  14.588  0.2536 -0.4744  0.2654
 7001TIP3   OH242417   0.010   6.148   1.666 -0.4907 -0.2918  0.0546
 7001TIP3    H142418  -0.061   6.085   1.652 -1.0855  0.8655 -2.6649
 7001TIP3    H242419  -0.019   6.228   1.623  1.4390  1.0077  1.0031
 7002TIP3   OH242420   3.748   6.335   5.056  0.3185  0.0030  0.0844
 7002TIP3    H142421   3.719   6.357   4.968  0.8400  0.2451 -0.0299
 7002TIP3    H242422   3.711   6.404   5.111  3.1829  2.1645 -0.4654
 7003TIP3   OH242423   1.996   4.385  14.628 -0.1299  0.0826  0.4214
 7003TIP3    H142424   1.979   4.480  14.630  0.9407  0.3767 -1.7696
 7003TIP3    H242425   2.087   4.378  14.601  0.1039 -1.5992  1.5495
 7004TIP3   OH242426   2.679   1.937  13.944 -0.1970  0.1399 -0.3427
 7004TIP3    H142427   2.686   1.852  13.901  1.0818 -0.7848  1.5296
 7004TIP3    H242428   2.645   1.917  14.031  1.5569  1.3155  0.6720
 7005TIP3   OH242429   6.693   2.692  16.868 -0.0080 -0.0529 -0.2086
 7005TIP3    H142430   6.651   2.775  16.888  2.1954  0.7098  1.7216
 7005TIP3    H242431   6.702   2.648  16.953  0.6014 -1.3881 -0.9301
 7006TIP3   OH242432   0.758   2.185  12.067 -0.1912  0.3433 -0.0130
 7006TIP3    H142433   0.761   2.274  12.031  0.9688 -0.0073 -0.8191
 7006TIP3    H242434   0.840   2.145  12.039 -0.5815 -0.9008  0.5785
 7007TIP3   OH242435   3.811   4.538  15.705  0.1491 -0.0186 -0.0525
 7007TIP3    H142436   3.851   4.555  15.620  2.0904  1.1707  1.0471
 7007TIP3    H242437   3.876   4.565  15.769 -0.3550 -2.9029  1.8755
 7008TIP3   OH242438   5.104   0.098  11.394 -0.0729 -0.2093  0.1889
 7008TIP3    H142439   5.162   0.061  11.460  1.3961  0.5827 -0.6214
 7008TIP3    H242440   5.151   0.088  11.311 -0.9095  0.8333 -0.4438
 7009TIP3   OH242441   3.937   3.341  11.975  0.2905  0.2233 -0.6010
 7009TIP3    H142442   4.020   3.300  11.949  1.6329  0.6424  2.5652
 7009TIP3    H242443   3.909   3.390  11.897  1.6217 -1.9655 -2.6034
 7010TIP3   OH242444   0.724   4.514  15.385  0.2531  0.9309 -0.1094
 7010TIP3    H142445   0.792   4.532  15.321 -0.7145 -0.3034 -1.5498
 7010TIP3    H242446   0.705   4.420  15.375  0.1978  0.6332  2.1345
 7011TIP3   OH242447   4.777   1.514   1.012  1.1142 -0.1595  0.5420
 7011TIP3    H142448   4.789   1.442   0.949  1.5231  2.0433 -2.0726
 7011TIP3    H242449   4.692   1.496   1.053  0.8927 -1.7572 -0.5216
 7012TIP3   OH242450   5.564   2.308   2.937  0.4900  0.1384  0.0437
 7012TIP3    H142451   5.615   2.389   2.945  0.8584  0.0449 -1.1225
 7012TIP3    H242452   5.612   2.244   2.989 -0.1228  0.7865  1.4717
 7013TIP3   OH242453   3.646   1.693  11.795  0.0227 -0.5752  0.7246
 7013TIP3    H142454   3.578   1.747  11.837 -0.3774  0.1439 -0.7821
 7013TIP3    H242455   3.682   1.749  11.727  1.8527 -1.1187  1.2077
 7014TIP3   OH242456   6.624   5.803   0.643 -0.0115 -0.7072  0.1299
 7014TIP3    H142457   6.603   5.838   0.730  1.4901 -0.8227  0.5746
 7014TIP3    H242458   6.632   5.880   0.587 -1.3103 -0.6503 -0.0122
 7015TIP3   OH242459   2.415   3.916   4.970 -0.9340  0.4560  0.3759
 7015TIP3    H142460   2.462   3.999   4.967 -0.4094  0.1470 -0.5940
 7015TIP3    H242461   2.471   3.859   5.023 -0.7896  0.4338  0.2026
 7016TIP3   OH242462   4.897   6.314  17.019 -0.6031 -0.2550 -0.5628
 7016TIP3    H142463   4.864   6.355  17.099  1.2839  0.9780 -0.3477
 7016TIP3    H242464   4.872   6.375  16.949  1.3304  0.8852 -0.3566
 7017TIP3   OH242465   5.240   1.893   6.413  0.3039  0.3047 -0.1737
 7017TIP3    H142466   5.183   1.928   6.344 -0.3396 -0.3497  0.0153
 7017TIP3    H242467   5.180   1.851   6.475  0.8805  0.7675  0.7250
 7018TIP3   OH242468   3.812   2.354  15.631 -0.3571 -0.1229  0.5321
 7018TIP3    H142469   3.717   2.351  15.622 -0.2232 -2.2635 -0.8310
 7018TIP3    H242470   3.834   2.278  15.684  0.7643 -1.6431 -1.9145
 7019TIP3   OH242471   6.238   1.445   3.714 -0.1959 -0.5385 -0.5531
 7019TIP3    H142472   6.277   1.516   3.663  0.1281 -0.3676 -0.0718
 7019TIP3    H242473   6.144   1.453   3.698 -0.0494 -1.0701 -1.8788
 7020TIP3   OH242474   0.069   5.872  16.596  0.5369  0.0713  0.3790
 7020TIP3    H142475   0.001   5.933  16.568  1.2323 -0.2569 -2.3903
 7020TIP3    H242476   0.046   5.849  16.686 -1.4769  1.9878  0.4409
 7021TIP3   OH242477   5.851   4.748  12.219 -0.5516 -0.4070  0.4103
 7021TIP3    H142478   5.782   4.800  12.177 -1.2378 -1.0136  0.7563
 7021TIP3    H242479   5.905   4.717  12.147 -1.0672 -0.5182  0.0693
 7022TIP3   OH242480   2.446   2.338  15.191 -0.2360 -0.1011  0.1872
 7022TIP3    H142481   2.416   2.289  15.114  1.1825  1.1347 -1.2279
 7022TIP3    H242482   2.462   2.271  15.258 -0.6247 -1.3033 -0.8899
 7023TIP3   OH242483   2.063   2.516  16.633  0.0089  0.1630  0.4526
 7023TIP3    H142484   2.127   2.451  16.605 -0.0129  0.3814 -0.1278
 7023TIP3    H242485   2.003   2.468  16.690  0.1655 -0.2539  0.2717
 7024TIP3   OH242486   0.010   5.161   2.440  0.1047  0.1544  0.1849
 7024TIP3    H142487   0.073   5.160   2.368 -0.1362 -1.0667 -0.0442
 7024TIP3    H242488  -0.017   5.069   2.449 -0.7685  0.4761  1.0440
 7025TIP3   OH242489   2.211   4.608  11.110 -0.0110  0.2497  0.2310
 7025TIP3    H142490   2.212   4.637  11.019  0.8327 -2.6691 -0.8102
 7025TIP3    H242491   2.126   4.566  11.121 -0.2397  0.8750  0.9013
 7026TIP3   OH242492   0.326   2.197  12.183 -0.2240 -0.0825  0.2732
 7026TIP3    H142493   0.263   2.268  12.180 -0.2292 -0.0705  0.6825
 7026TIP3    H242494   0.411   2.241  12.191 -0.3800 -0.1479  2.9663
 7027TIP3   OH242495   4.919   0.556   0.298 -0.4138  0.0490 -0.1349
 7027TIP3    H142496   4.900   0.530   0.388  0.3161  1.3364  0.4185
 7027TIP3    H242497   4.929   0.473   0.251 -2.9368 -0.6590  0.4567
 7028TIP3   OH242498   3.551   0.956  14.464 -0.4932 -0.0492 -0.2623
 7028TIP3    H142499   3.595   0.907  14.394 -0.4236 -0.5266  0.1091
 7028TIP3    H242500   3.609   0.947  14.540 -1.2147 -0.6853  0.2370
 7029TIP3   OH242501   0.881   4.218   4.288  1.0074 -0.1870  0.0225
 7029TIP3    H142502   0.904   4.256   4.204 -0.6760  1.1764  0.1142
 7029TIP3    H242503   0.807   4.161   4.269  2.1064 -1.7675  0.2528
 7030TIP3   OH242504   4.666   4.393  11.817  0.4676 -0.2132  0.3734
 7030TIP3    H142505   4.675   4.410  11.723 -1.3455 -2.6283 -0.3764
 7030TIP3    H242506   4.589   4.443  11.843  0.2491 -0.4718  0.2415
 7031TIP3   OH242507   0.935   6.655   1.280 -0.0309  1.0050  0.0378
 7031TIP3    H142508   0.853   6.608   1.268  0.4784  0.1752 -0.3032
 7031TIP3    H242509   0.977   6.652   1.194  1.3599 -0.5701  0.7062
 7032TIP3   OH242510   6.074   6.614  11.513 -0.7363 -0.4451 -0.0980
 7032TIP3    H142511   6.140   6.624  11.445 -0.2547 -1.0767  0.2532
 7032TIP3    H242512   6.039   6.526  11.499 -0.9569 -0.4044  0.1843
 7033TIP3   OH242513   6.382   6.607  16.990  0.1380  0.8482 -0.0135
 7033TIP3    H142514   6.473   6.633  17.005  0.5535 -0.7598  0.4660
 7033TIP3    H242515   6.382   6.567  16.903  0.2351 -0.4772  0.5633
 7034TIP3   OH242516   1.504   4.408  16.674  0.1429 -0.2164 -0.0782
 7034TIP3    H142517   1.561   4.467  16.625 -0.3498 -1.2211 -1.9876
 7034TIP3    H242518   1.547   4.398  16.759  1.1360  1.4826 -0.3325
 7035TIP3   OH242519   0.912   0.075  11.332  0.1277 -0.4724 -0.6136
 7035TIP3    H142520   0.997   0.104  11.299 -0.0385 -0.7072 -1.2702
 7035TIP3    H242521   0.858   0.064  11.253 -1.1816  1.7130 -0.0940
 7036TIP3   OH242522   1.372   4.595   3.100  0.7418 -0.4977  0.0625
 7036TIP3    H142523   1.300   4.549   3.142  0.7024  0.5970  1.2565
 7036TIP3    H242524   1.450   4.543   3.119  0.7552  0.0589  1.7094
 7037TIP3   OH242525   1.100   5.441   2.019  0.0377  0.4110 -0.2936
 7037TIP3    H142526   1.097   5.471   1.928 -1.9412 -0.6872 -0.6245
 7037TIP3    H242527   1.009   5.423   2.042  0.7164 -1.4396  1.1833
 7038TIP3   OH242528   2.154   6.775   4.525 -0.3616  0.2332 -0.2302
 7038TIP3    H142529   2.131   6.863   4.495 -2.1280  0.2247  0.9394
 7038TIP3    H242530   2.070   6.731   4.537  0.4140 -1.0544  0.8059
 7039TIP3   OH242531   1.408   5.825  13.716  0.7951  0.7949  0.3074
 7039TIP3    H142532   1.365   5.900  13.757  0.5757  0.5352  0.5480
 7039TIP3    H242533   1.361   5.749  13.748  0.1714  0.6222 -0.9615
 7040TIP3   OH242534   2.106   0.590  14.926 -0.0588 -0.1056 -0.4219
 7040TIP3    H142535   2.165   0.654  14.965  0.7431 -0.0585 -1.6351
 7040TIP3    H242536   2.044   0.567  14.995  0.9072  0.4398  0.6399
 7041TIP3   OH242537   4.017   5.395  15.483  0.0636  0.3300 -0.5103
 7041TIP3    H142538   3.987   5.484  15.467 -0.1151  0.4845  0.6046
 7041TIP3    H242539   4.087   5.405  15.548 -1.9752 -0.5376  1.9837
 7042TIP3   OH242540   0.309   3.276   2.641 -0.1240 -0.3872 -0.1973
 7042TIP3    H142541   0.393   3.314   2.664  1.1361  0.0948 -4.5846
 7042TIP3    H242542   0.245   3.345   2.659  0.8282  0.3470  0.4536
 7043TIP3   OH242543   3.954   0.114   6.557 -0.5312 -0.0835 -0.2818
 7043TIP3    H142544   3.899   0.163   6.617 -0.8866 -0.2499 -0.4726
 7043TIP3    H242545   3.988   0.179   6.496  0.2472  0.1766  0.3985
 7044TIP3   OH242546   5.852   5.690   1.326 -0.6766  0.0106  0.5086
 7044TIP3    H142547   5.886   5.625   1.265 -0.9607  0.2778  0.0570
 7044TIP3    H242548   5.859   5.648   1.412 -1.0333 -0.6990  0.2068
 7045TIP3   OH242549   2.223   3.467   2.516 -0.4370  0.1738  0.8719
 7045TIP3    H142550   2.302   3.430   2.557  0.2957 -1.4581 -1.7358
 7045TIP3    H242551   2.255   3.509   2.436 -2.0432  1.1354  0.6922
 7046TIP3   OH242552   4.911   1.305  13.397  0.0870 -0.1886 -0.1513
 7046TIP3    H142553   4.874   1.363  13.330  0.5990 -0.2047 -0.4524
 7046TIP3    H242554   4.914   1.219  13.355  0.3102 -0.2197 -0.0691
 7047TIP3   OH242555   5.677   1.682   1.444  0.0917  0.1213 -0.3377
 7047TIP3    H142556   5.642   1.704   1.358  1.3688 -0.9135 -1.1470
 7047TIP3    H242557   5.605   1.640   1.490 -0.1528 -0.6958 -1.4587
 7048TIP3   OH242558   4.811   6.187   5.177 -0.2544  0.0953 -0.2359
 7048TIP3    H142559   4.750   6.246   5.132 -0.6563 -0.9440 -1.0915
 7048TIP3    H242560   4.760   6.149   5.248  0.0096  0.7725  0.3259
 7049TIP3   OH242561   1.458   1.237   4.281  0.4586  0.0201 -0.2880
 7049TIP3    H142562   1.425   1.326   4.294  1.0038  0.0531  0.9372
 7049TIP3    H242563   1.424   1.187   4.355  2.3445 -0.1594  0.5160
 7050TIP3   OH242564   2.097   3.960  12.263  0.0706 -0.2623 -0.6136
 7050TIP3    H142565   2.074   4.039  12.312  1.1836  0.7491 -1.6470
 7050TIP3    H242566   2.019   3.905  12.267 -0.5067  0.6114  0.6545
 7051TIP3   OH242567   2.629   6.604   4.604 -0.4331 -0.1835 -0.6478
 7051TIP3    H142568   2.695   6.550   4.561 -0.6375 -1.7408  0.8868
 7051TIP3    H242569   2.654   6.603   4.697 -1.5267  0.8009 -0.3166
 7052TIP3   OH242570   1.954   5.215   1.648  0.0137 -0.5341 -0.5055
 7052TIP3    H142571   1.887   5.283   1.637 -1.7871 -2.2525 -0.7466
 7052TIP3    H242572   2.034   5.256   1.616 -0.9296  1.5508 -0.4055
 7053TIP3   OH242573   5.365   0.969  14.205  0.0102 -0.0832 -0.1052
 7053TIP3    H142574   5.413   0.954  14.286 -0.2592  1.7735  0.4573
 7053TIP3    H242575   5.295   0.904  14.205 -0.3176  0.2436  1.4311
 7054TIP3   OH242576   3.001   3.285   3.130 -0.3542  0.5214  0.1036
 7054TIP3    H142577   3.040   3.360   3.176 -1.0063  0.2614  1.1178
 7054TIP3    H242578   2.908   3.305   3.127 -0.1821  1.3247 -2.6654
 7055TIP3   OH242579   3.621   1.525  14.735 -0.7041  0.2201  0.8313
 7055TIP3    H142580   3.707   1.533  14.775 -1.5583 -0.0368  2.8382
 7055TIP3    H242581   3.581   1.611  14.745  0.4226  1.4031 -3.0799
 7056TIP3   OH242582   6.533   2.643  16.156 -0.0054  0.2289 -0.8241
 7056TIP3    H142583   6.617   2.603  16.179 -0.0216  1.0524  0.8448
 7056TIP3    H242584   6.552   2.737  16.151 -1.1259  0.6607  1.4732
 7057TIP3   OH242585   2.290   2.990   3.802  0.4332  0.1102  0.1296
 7057TIP3    H142586   2.239   3.069   3.782  1.3689  0.8620  0.5915
 7057TIP3    H242587   2.319   2.958   3.717  0.4121  0.5254 -0.0376
 7058TIP3   OH242588   5.985   1.448   5.660 -0.0695  0.2154 -0.5577
 7058TIP3    H142589   5.929   1.470   5.586 -0.4173  1.3475  0.0170
 7058TIP3    H242590   5.926   1.448   5.736  0.6320  1.0217 -0.0034
 7059TIP3   OH242591   2.229   0.072   0.735  0.4780  0.3548  0.0879
 7059TIP3    H142592   2.306   0.060   0.790  1.1324  1.0741 -0.6338
 7059TIP3    H242593   2.234   0.164   0.707 -0.4789  0.3274 -0.2161
 7060TIP3   OH242594   2.656   3.969  13.021 -0.0029  0.0616 -0.6232
 7060TIP3    H142595   2.712   3.892  13.017 -0.1636 -0.0566 -0.6004
 7060TIP3    H242596   2.611   3.961  13.105 -2.2272 -1.3639 -1.8645
 7061TIP3   OH242597   0.306   0.214   3.816  0.2617 -0.1562  0.2801
 7061TIP3    H142598   0.295   0.119   3.809 -1.5009  0.0088  0.4001
 7061TIP3    H242599   0.231   0.243   3.868  0.3333  1.3918 -0.4294
 7062TIP3   OH242600   4.673   5.435   2.753 -0.7053  0.0633 -0.4135
 7062TIP3    H142601   4.660   5.505   2.817  0.7661 -0.0277  0.0271
 7062TIP3    H242602   4.714   5.478   2.679  3.3637 -0.7166  1.1186
 7063TIP3   OH242603   6.686   4.159   6.353 -0.3393  0.1232  0.1173
 7063TIP3    H142604   6.729   4.090   6.402 -0.6617  0.6233  1.1320
 7063TIP3    H242605   6.755   4.193   6.295 -0.0408 -0.6814 -0.0113
 7064TIP3   OH242606   1.895   3.114  13.361  0.0278  0.0009  0.4652
 7064TIP3    H142607   1.837   3.046  13.395  1.0589 -1.2254 -0.1417
 7064TIP3    H242608   1.981   3.093  13.398  0.3442  1.0830  0.3937
 7065TIP3   OH242609   5.616   3.495  16.952 -0.1154  0.1700 -0.5623
 7065TIP3    H142610   5.577   3.509  16.865 -0.1734 -0.4226 -0.6382
 7065TIP3    H242611   5.562   3.546  17.011 -1.0690 -0.6965 -0.6572
 7066TIP3   OH242612   2.655   2.331   4.218 -0.6145 -0.0345 -0.3346
 7066TIP3    H142613   2.637   2.243   4.183 -1.1995 -0.1405  0.1983
 7066TIP3    H242614   2.711   2.315   4.294 -2.2868 -0.1543  0.9459
 7067TIP3   OH242615   5.026   3.234   2.533 -0.0070 -0.4298  0.2955
 7067TIP3    H142616   4.946   3.266   2.493  0.0855  1.8908  1.7805
 7067TIP3    H242617   4.997   3.169   2.598 -1.0613  2.2535  2.7046
 7068TIP3   OH242618   0.653   2.823  13.590  0.4040 -0.6621 -0.4005
 7068TIP3    H142619   0.645   2.728  13.585  1.5274 -0.8112  0.2663
 7068TIP3    H242620   0.744   2.841  13.565  0.3363  0.2011 -0.0860
 7069TIP3   OH242621   3.506   3.503  12.103  0.2997 -0.0981 -0.0802
 7069TIP3    H142622   3.438   3.434  12.099  0.2032 -0.0153  0.1048
 7069TIP3    H242623   3.568   3.470  12.167 -0.3681  0.5356  0.9159
 7070TIP3   OH242624   1.344   6.722   4.247 -0.0489  0.2350 -0.0886
 7070TIP3    H142625   1.370   6.734   4.338  0.6553 -0.3475 -0.1955
 7070TIP3    H242626   1.423   6.742   4.197  0.6794 -2.8148 -0.3602
 7071TIP3   OH242627   0.080   0.581   1.297 -0.4594 -0.4277  0.3207
 7071TIP3    H142628   0.173   0.586   1.318  0.3778 -2.1191 -2.4419
 7071TIP3    H242629   0.042   0.531   1.369  0.7085  0.4138  1.5699
 7072TIP3   OH242630   1.771   1.633   5.593 -0.3549 -0.0098  0.4965
 7072TIP3    H142631   1.857   1.625   5.635 -0.5894  2.3026  1.5557
 7072TIP3    H242632   1.787   1.605   5.502  1.3463 -0.2483  0.8279
 7073TIP3   OH242633   2.456   3.011   5.630 -0.1712  0.2815  0.6012
 7073TIP3    H142634   2.518   3.084   5.634  0.4517 -0.2904  1.8600
 7073TIP3    H242635   2.510   2.933   5.639 -1.0496 -0.2423  1.4966
 7074TIP3   OH242636   5.447   6.015  16.641 -0.8247  0.2452 -0.3841
 7074TIP3    H142637   5.361   6.020  16.683 -0.5416 -2.1348  0.6096
 7074TIP3    H242638   5.509   6.008  16.713 -0.1483 -1.6861 -1.0799
 7075TIP3   OH242639   4.523   3.618  14.016 -0.6046  0.3088  0.5320
 7075TIP3    H142640   4.470   3.581  13.945 -1.3462  0.3631  1.0589
 7075TIP3    H242641   4.516   3.554  14.087  1.3407 -0.4991  0.0676
 7076TIP3   OH242642   0.219   6.561  12.910 -0.4229 -0.2458  0.1801
 7076TIP3    H142643   0.170   6.517  12.979 -0.1438  0.4437  0.8322
 7076TIP3    H242644   0.157   6.568  12.837 -1.5249  1.1207  1.1791
 7077TIP3   OH242645   3.620   1.276   1.127 -0.1616 -0.5538  0.2720
 7077TIP3    H142646   3.580   1.274   1.214 -0.3858 -0.9396  0.1609
 7077TIP3    H242647   3.613   1.368   1.099  1.6212 -0.0167  1.4396
 7078TIP3   OH242648   1.125   2.687  12.933  0.1672  0.3869  0.2698
 7078TIP3    H142649   1.146   2.597  12.906 -0.7232  0.3342 -0.2896
 7078TIP3    H242650   1.081   2.677  13.017  2.0385  0.4814  1.3305
 7079TIP3   OH242651   2.212   5.723   5.610  0.1110  0.0019  0.2241
 7079TIP3    H142652   2.119   5.723   5.633  0.1196  0.5626  0.2790
 7079TIP3    H242653   2.243   5.636   5.636 -0.6158 -0.5531 -0.7183
 7080TIP3   OH242654   5.410   6.242   0.747  0.0783  0.1189  0.5205
 7080TIP3    H142655   5.449   6.220   0.663 -0.4204 -0.7059  0.4937
 7080TIP3    H242656   5.465   6.199   0.812 -0.3445 -0.4372  0.5232
 7081TIP3   OH242657   0.802   4.730   5.096  0.0869  0.0515  0.4866
 7081TIP3    H142658   0.813   4.813   5.049 -0.7218  0.1591  0.4832
 7081TIP3    H242659   0.831   4.749   5.185 -2.6926  1.1670  1.2757
 7082TIP3   OH242660   6.325   1.615   3.940  0.1859 -0.1291  1.0919
 7082TIP3    H142661   6.407   1.635   3.896 -1.1412  1.1477 -0.9876
 7082TIP3    H242662   6.296   1.533   3.901 -1.2835  1.3002 -1.0416
 7083TIP3   OH242663   0.789   1.754  14.423  0.2105  0.3616 -0.1911
 7083TIP3    H142664   0.848   1.787  14.491  0.5552 -1.5453  0.5002
 7083TIP3    H242665   0.706   1.799  14.439  1.3616  2.9604 -1.0697
 7084TIP3   OH242666   3.389   5.625   3.723  0.6125  0.2169  0.1006
 7084TIP3    H142667   3.302   5.593   3.745  0.1541  0.7921 -0.8282
 7084TIP3    H242668   3.398   5.707   3.773  1.6669 -1.1221  2.2386
 7085TIP3   OH242669   4.737   2.786  15.563  0.4774 -0.0579  0.3555
 7085TIP3    H142670   4.795   2.717  15.596  2.1387  0.2412 -1.6657
 7085TIP3    H242671   4.661   2.739  15.529  0.8313 -0.7437  0.4789
 7086TIP3   OH242672   4.380   3.503  11.479 -0.3640  0.4213 -0.2235
 7086TIP3    H142673   4.322   3.571  11.445  1.6409  2.5193  0.3448
 7086TIP3    H242674   4.427   3.471  11.402 -2.0259 -1.1895 -0.6639
 7087TIP3   OH242675   4.534   2.797   5.655  0.6215  0.9407 -0.1066
 7087TIP3    H142676   4.584   2.819   5.734  0.5249 -0.7497  0.4630
 7087TIP3    H242677   4.600   2.780   5.588  0.8109 -0.2079  0.3480
 7088TIP3   OH242678   6.309   3.683   5.922 -0.4974  0.2658  0.1180
 7088TIP3    H142679   6.274   3.668   5.834 -1.0620  0.0019  0.3854
 7088TIP3    H242680   6.320   3.778   5.927  1.7626  0.1444 -1.0720
 7089TIP3   OH242681   6.438   0.069  15.898 -0.2526 -0.1355  0.1812
 7089TIP3    H142682   6.416   0.145  15.845  2.0952  0.8678  0.5083
 7089TIP3    H242683   6.506   0.024  15.848 -0.0172 -0.7551  1.0329
 7090TIP3   OH242684   4.573   4.846   6.539  0.0656  0.1783 -0.2511
 7090TIP3    H142685   4.495   4.799   6.510  0.0943 -0.2720  0.3801
 7090TIP3    H242686   4.548   4.938   6.540 -0.8891 -0.0719  1.2630
 7091TIP3   OH242687   5.637   2.272   2.492  0.1504  0.0037  0.0311
 7091TIP3    H142688   5.553   2.258   2.535  0.5923  0.2629  1.0070
 7091TIP3    H242689   5.678   2.343   2.542  1.6336 -1.1865  0.5943
 7092TIP3   OH242690   5.977   5.827  16.511 -0.5107  0.2476  0.0820
 7092TIP3    H142691   5.895   5.871  16.487 -1.7362 -1.3408  1.1006
 7092TIP3    H242692   5.973   5.821  16.607  1.3896  1.1721  0.2673
 7093TIP3   OH242693   3.722   6.677  17.008  0.4521 -0.2125 -0.2836
 7093TIP3    H142694   3.669   6.693  16.930 -0.7772  0.8521  0.7231
 7093TIP3    H242695   3.727   6.762  17.052  0.6928 -0.8874  1.0561
 7094TIP3   OH242696   0.052   4.783  11.479 -0.6812  0.2973 -0.4192
 7094TIP3    H142697   0.023   4.800  11.569  0.3197  0.7691 -0.1801
 7094TIP3    H242698   0.059   4.870  11.439 -1.1075  0.0894 -0.9517
 7095TIP3   OH242699   3.204   1.715   5.515 -0.7068  0.3702  0.2685
 7095TIP3    H142700   3.283   1.768   5.509 -0.7268  0.5113  1.1159
 7095TIP3    H242701   3.184   1.691   5.425 -0.2400  1.1294 -0.0443
 7096TIP3   OH242702   0.030   2.626  15.757  0.1255 -0.1302  0.3087
 7096TIP3    H142703   0.078   2.702  15.789  1.1080  0.4897 -2.4083
 7096TIP3    H242704   0.064   2.610  15.669 -1.5070 -2.4720 -0.0192
 7097TIP3   OH242705   4.680   2.410  17.156 -0.0533  0.1982 -0.1059
 7097TIP3    H142706   4.689   2.491  17.206  1.8651 -0.3461  0.4864
 7097TIP3    H242707   4.620   2.356  17.209 -0.6200  0.8656 -0.0520
 7098TIP3   OH242708   6.387   3.643   2.897  0.6255 -1.1499  0.1982
 7098TIP3    H142709   6.388   3.567   2.838  3.1061 -0.2210 -1.1039
 7098TIP3    H242710   6.479   3.663   2.912  0.0376  0.8029  1.6084
 7099TIP3   OH242711   4.235   5.941  16.663 -0.5992 -0.0367  0.2943
 7099TIP3    H142712   4.327   5.919  16.648  0.1437  2.4101  0.7541
 7099TIP3    H242713   4.189   5.903  16.588  0.6307 -1.9837  0.4554
 7100TIP3   OH242714   6.377   3.091   5.313 -0.1761 -0.1074 -0.2872
 7100TIP3    H142715   6.304   3.082   5.252 -1.5453  1.4412  1.0154
 7100TIP3    H242716   6.369   3.016   5.371  0.2239 -0.7749 -1.0802
 7101TIP3   OH242717   5.734   6.168  16.321  0.3099 -0.0622 -0.1564
 7101TIP3    H142718   5.786   6.207  16.251  0.9526  1.9751  1.3499
 7101TIP3    H242719   5.643   6.181  16.295  0.5447 -0.1192 -1.0071
 7102TIP3   OH242720   4.338   5.194  12.733  0.0760 -0.2217 -0.0090
 7102TIP3    H142721   4.260   5.193  12.789  0.4062  1.2461  0.5320
 7102TIP3    H242722   4.389   5.118  12.762 -0.4731 -0.3541  0.6382
 7103TIP3   OH242723   1.490   0.938   4.061 -0.2676  0.1885 -0.6059
 7103TIP3    H142724   1.417   0.958   4.002 -2.1344  1.0544  1.8145
 7103TIP3    H242725   1.537   1.020   4.071 -2.6090  1.3522  2.3776
 7104TIP3   OH242726   4.400   1.859   0.181  0.1136  0.3325 -0.0140
 7104TIP3    H142727   4.385   1.811   0.263 -1.9700  2.9095  1.2407
 7104TIP3    H242728   4.483   1.905   0.196  1.8122 -2.1802 -0.9979
 7105TIP3   OH242729   5.822   3.206  16.015 -0.1067  0.2137  0.0221
 7105TIP3    H142730   5.799   3.296  16.039  1.4387  1.2841 -2.1685
 7105TIP3    H242731   5.743   3.156  16.035 -1.7593  2.4051 -0.4921
 7106TIP3   OH242732   5.348   0.258  13.418 -0.0908  0.3819  0.0943
 7106TIP3    H142733   5.297   0.187  13.379  0.5817  0.1630 -0.4176
 7106TIP3    H242734   5.289   0.333  13.416 -0.8333 -0.1590  0.6882
 7107TIP3   OH242735   3.772   5.405  15.639  0.2182  0.3716 -0.4119
 7107TIP3    H142736   3.699   5.463  15.619  0.8357  1.5346  0.5929
 7107TIP3    H242737   3.838   5.425  15.573  0.1199  0.2288 -0.5539
 7108TIP3   OH242738   2.958   5.495  12.917 -0.1537 -0.3253 -0.0933
 7108TIP3    H142739   3.034   5.438  12.928  1.0966  1.0329 -1.1450
 7108TIP3    H242740   2.975   5.568  12.977 -0.7906 -0.1473 -0.1260
 7109TIP3   OH242741   3.416   3.243  16.880  0.4876 -0.1163  0.0698
 7109TIP3    H142742   3.433   3.322  16.931  1.7096 -0.1256 -0.2821
 7109TIP3    H242743   3.337   3.206  16.919  0.1007  1.0859  0.4673
 7110TIP3   OH242744   2.839   1.526   5.588 -0.3396 -0.1802 -0.4618
 7110TIP3    H142745   2.884   1.457   5.539 -0.6583 -1.1878  0.6172
 7110TIP3    H242746   2.891   1.604   5.573  1.3669 -1.1549  0.1632
 7111TIP3   OH242747   4.059   6.215  11.848 -0.0287 -0.5433 -0.2339
 7111TIP3    H142748   4.110   6.213  11.766  0.2452 -2.1628 -0.0586
 7111TIP3    H242749   3.972   6.186  11.822 -1.0601  2.4829 -0.5821
 7112TIP3   OH242750   3.520   6.207   1.032  0.7923  0.7765 -0.0572
 7112TIP3    H142751   3.502   6.298   1.058 -0.4950  0.5872 -0.2656
 7112TIP3    H242752   3.440   6.160   1.052  0.6850  0.1003 -1.9545
 7113TIP3   OH242753   0.733   1.714   5.287  0.2616 -0.1247 -0.2525
 7113TIP3    H142754   0.686   1.633   5.265 -0.0721  0.1509 -0.5693
 7113TIP3    H242755   0.824   1.696   5.262  0.3986 -0.7810  0.6673
 7114TIP3   OH242756   0.216   5.962   1.378 -0.2592  0.2371  0.2317
 7114TIP3    H142757   0.265   5.985   1.300  0.1372 -2.2776 -0.3714
 7114TIP3    H242758   0.127   5.944   1.346 -0.3175  0.0427  0.4972
 7115TIP3   OH242759   4.986   2.607   5.493  0.4368 -0.2456 -0.3084
 7115TIP3    H142760   4.960   2.670   5.561 -1.2220 -1.3665  0.1675
 7115TIP3    H242761   4.912   2.606   5.432 -0.1718 -2.6037  0.3628
 7116TIP3   OH242762   1.970   4.430   4.488 -0.2343 -0.2392  0.2696
 7116TIP3    H142763   1.891   4.454   4.535  1.7247  1.4629  3.0073
 7116TIP3    H242764   2.027   4.390   4.554  1.7897  0.0857 -1.1584
 7117TIP3   OH242765   6.502   5.733  12.369 -1.0886 -0.5743  0.4367
 7117TIP3    H142766   6.437   5.708  12.303 -0.8211  1.7356 -0.8176
 7117TIP3    H242767   6.457   5.794  12.427 -0.7066 -0.8650  1.0509
 7118TIP3   OH242768   4.935   3.867  16.047  0.0278 -0.2176  0.4033
 7118TIP3    H142769   4.950   3.772  16.052  0.1627 -0.2018  0.2882
 7118TIP3    H242770   5.006   3.900  15.992  1.7549  0.3582  2.8386
 7119TIP3   OH242771   2.831   4.417  16.049 -0.6384  0.0231  0.0739
 7119TIP3    H142772   2.827   4.326  16.022 -2.3206 -0.0474  0.5036
 7119TIP3    H242773   2.839   4.466  15.967  0.5771 -0.4909 -0.1406
 7120TIP3   OH242774   1.430   0.341  16.713 -0.0444 -0.6827  0.1600
 7120TIP3    H142775   1.420   0.254  16.674 -0.0330 -0.7827  0.3802
 7120TIP3    H242776   1.342   0.364  16.743  0.2691 -1.3873  1.7248
 7121TIP3   OH242777   2.723   2.650  14.319  0.1600 -0.0089 -1.0067
 7121TIP3    H142778   2.680   2.567  14.297 -0.6143 -0.1432  0.8832
 7121TIP3    H242779   2.758   2.636  14.407 -0.5617  1.8726 -0.3783
 7122TIP3   OH242780   6.384   6.176   0.723  0.1290  0.2430  0.1298
 7122TIP3    H142781   6.290   6.189   0.713  0.1497  0.1054 -0.3027
 7122TIP3    H242782   6.413   6.250   0.776 -0.4990 -0.6918  1.8697
 7123TIP3   OH242783   4.405   2.461  14.635  0.1006 -0.0466 -0.0799
 7123TIP3    H142784   4.476   2.504  14.684 -1.3360  0.7768  1.3745
 7123TIP3    H242785   4.394   2.376  14.677 -1.2793  0.7466  1.2558
 7124TIP3   OH242786   1.206   5.817  16.484  0.0442  0.4631 -0.5755
 7124TIP3    H142787   1.296   5.827  16.454 -0.2015  0.5545 -1.3279
 7124TIP3    H242788   1.172   5.742  16.435  0.1230 -0.4578  0.7403
 7125TIP3   OH242789   6.047   4.199  14.149  0.8966  0.5341 -0.0591
 7125TIP3    H142790   5.993   4.265  14.192 -2.7224  0.4104 -3.8955
 7125TIP3    H242791   5.996   4.118  14.155  0.9063  0.1976 -3.0730
 7126TIP3   OH242792   0.352   4.589   1.012 -0.4183 -0.1463 -0.2352
 7126TIP3    H142793   0.278   4.599   0.952  0.7838 -2.0189 -2.1617
 7126TIP3    H242794   0.429   4.609   0.959  0.5824  0.4081  1.3500
 7127TIP3   OH242795   1.651   6.624  16.908 -0.5686 -0.3214  0.2445
 7127TIP3    H142796   1.599   6.549  16.934 -1.8444  0.3654 -0.2335
 7127TIP3    H242797   1.670   6.670  16.989  0.3056 -1.1999  0.5503
 7128TIP3   OH242798   6.211   0.326   5.798 -0.4433  0.6864 -0.2618
 7128TIP3    H142799   6.185   0.283   5.717  0.4705  0.8360 -0.6513
 7128TIP3    H242800   6.243   0.412   5.771 -0.3322  0.8199  0.2772
 7129TIP3   OH242801   1.625   6.206   2.083 -0.0312 -0.1355 -0.2271
 7129TIP3    H142802   1.698   6.150   2.053  0.4315  1.5457 -2.5141
 7129TIP3    H242803   1.552   6.181   2.026 -0.1806  0.6670 -0.3965
 7130TIP3   OH242804   0.713   4.058  12.570  0.0706  0.9056  0.0555
 7130TIP3    H142805   0.695   4.075  12.478  1.3150  0.8290 -0.2242
 7130TIP3    H242806   0.686   4.137  12.616 -1.0279  0.7475 -0.3064
 7131TIP3   OH242807   2.772   3.472  17.044 -0.1069  0.0477 -0.0087
 7131TIP3    H142808   2.845   3.483  16.983  1.3115 -1.1335  1.3865
 7131TIP3    H242809   2.708   3.421  16.995  2.0898 -3.1826  0.1493
 7132TIP3   OH242810   3.818   4.658   1.683  0.0628  0.0388  0.4120
 7132TIP3    H142811   3.862   4.575   1.700  0.4368  0.2766  0.6166
 7132TIP3    H242812   3.888   4.716   1.651  0.3342  1.0074  2.5749
 7133TIP3   OH242813   1.599   0.330  14.116 -0.7588 -0.0180 -0.0108
 7133TIP3    H142814   1.615   0.331  14.021  0.2027 -0.5090  0.1324
 7133TIP3    H242815   1.547   0.409  14.132  1.6815  1.8509 -0.5518
 7134TIP3   OH242816   0.560   2.574   5.728 -0.4352 -0.2990 -0.4375
 7134TIP3    H142817   0.516   2.491   5.709  0.8421 -1.4539  1.3984
 7134TIP3    H242818   0.547   2.587   5.822  2.5937 -0.4165  0.0691
 7135TIP3   OH242819   0.980   5.440   5.844  0.6454  0.7803  0.3997
 7135TIP3    H142820   1.037   5.465   5.771  0.3779 -0.8581 -0.4460
 7135TIP3    H242821   0.971   5.345   5.834  0.1480  0.6060  2.2702
 7136TIP3   OH242822   5.756   4.947  11.411 -0.0310 -0.1203 -0.3621
 7136TIP3    H142823   5.800   4.950  11.326  1.7055  0.0976  0.4940
 7136TIP3    H242824   5.703   4.867  11.407 -0.4519  0.1943 -1.8423
 7137TIP3   OH242825   6.432   2.108  14.151  0.6230  0.1156 -0.7623
 7137TIP3    H142826   6.527   2.118  14.143  0.7626 -1.1867 -0.9461
 7137TIP3    H242827   6.408   2.052  14.078 -0.3671  0.7954 -0.9763
 7138TIP3   OH242828   6.223   6.591   5.772 -0.3823 -0.0003 -0.7997
 7138TIP3    H142829   6.203   6.671   5.820  2.2462  0.0694  0.3485
 7138TIP3    H242830   6.139   6.565   5.733 -1.4580  2.9042 -0.6714
 7139TIP3   OH242831   5.605   1.230  11.641  0.2127 -0.5312 -0.1033
 7139TIP3    H142832   5.619   1.225  11.736 -2.1315 -0.9231  0.2783
 7139TIP3    H242833   5.665   1.299  11.612  2.0169 -1.3616  1.4044
 7140TIP3   OH242834   6.772   0.220  11.354 -0.5665 -0.2659 -0.1868
 7140TIP3    H142835   6.774   0.297  11.411 -0.2132 -0.5279  0.1627
 7140TIP3    H242836   6.845   0.165  11.385 -1.4131 -1.1976  0.2241
 7141TIP3   OH242837   3.534   0.976   1.740  0.5261 -0.0135 -0.4960
 7141TIP3    H142838   3.474   1.049   1.751  1.3905  0.4836  1.1661
 7141TIP3    H242839   3.621   1.012   1.758  1.0481 -1.2926 -0.2943
 7142TIP3   OH242840   3.189   1.671  16.357  0.1509  0.2590 -0.4986
 7142TIP3    H142841   3.143   1.727  16.294  0.5825  0.6386 -0.4752
 7142TIP3    H242842   3.211   1.592  16.307  2.2582  1.3657 -1.4128
 7143TIP3   OH242843   5.659   2.801   0.149  0.5063 -0.1326 -0.2468
 7143TIP3    H142844   5.642   2.777   0.240 -0.8506  1.4397 -0.0283
 7143TIP3    H242845   5.752   2.785   0.136  0.7040 -0.4611  1.3917
 7144TIP3   OH242846   6.156   3.114   3.581  0.0684 -0.1308  0.1140
 7144TIP3    H142847   6.069   3.081   3.605  0.0608  0.8498  1.5600
 7144TIP3    H242848   6.137   3.187   3.522 -0.2458  1.3960  2.0018
 7145TIP3   OH242849   0.205   5.254   0.118  0.0237 -0.1124  0.5949
 7145TIP3    H142850   0.221   5.300   0.036 -1.1097  1.0849  1.0168
 7145TIP3    H242851   0.259   5.175   0.112  1.7423  1.0759 -0.2993
 7146TIP3   OH242852   4.556   3.867   6.030  0.4183  0.2891 -0.3199
 7146TIP3    H142853   4.508   3.788   6.056  1.7284 -0.3243  0.3066
 7146TIP3    H242854   4.489   3.936   6.028 -0.7436 -0.8136 -0.8436
 7147TIP3   OH242855   0.665   5.946   0.028 -0.1256 -0.8021  0.4443
 7147TIP3    H142856   0.733   5.881   0.047 -0.2757 -1.3947 -0.9373
 7147TIP3    H242857   0.680   5.970  -0.063 -0.7343  0.3451  0.6235
 7148TIP3   OH242858   0.069   2.162   0.522 -0.0074  0.6842 -0.0502
 7148TIP3    H142859   0.151   2.142   0.476  0.4946  0.9924  0.6909
 7148TIP3    H242860   0.065   2.096   0.592 -0.1662  0.9463  0.1884
 7149TIP3   OH242861   5.222   5.038  12.683 -0.3658  0.5561 -0.1975
 7149TIP3    H142862   5.301   5.039  12.629  0.8673 -1.1126  1.4506
 7149TIP3    H242863   5.208   5.130  12.707 -0.1725  1.1476 -2.1686
 7150TIP3   OH242864   1.898   2.384   3.060  0.1466 -0.2464 -0.4387
 7150TIP3    H142865   1.843   2.325   3.009 -2.2641  2.3565 -1.0850
 7150TIP3    H242866   1.853   2.392   3.144  0.2098  0.9354 -0.5017
 7151TIP3   OH242867   3.548   3.713   2.156 -0.1906  0.8115  0.0299
 7151TIP3    H142868   3.467   3.748   2.193  0.5736  1.7428  0.8525
 7151TIP3    H242869   3.608   3.787   2.154  0.8029  0.0219 -0.1394
 7152TIP3   OH242870   5.548   5.775  16.518 -0.2446  0.4279  0.0364
 7152TIP3    H142871   5.548   5.870  16.529 -0.9740  0.5526 -0.8582
 7152TIP3    H242872   5.571   5.762  16.426 -0.4367 -0.2451  0.0799
 7153TIP3   OH242873   0.312   5.340   3.876  0.1908 -0.3713 -0.0355
 7153TIP3    H142874   0.305   5.277   3.804 -2.5520 -0.6288  0.3381
 7153TIP3    H242875   0.406   5.358   3.883  0.7981 -2.3075 -1.9458
 7154TIP3   OH242876   0.283   5.076  10.466 -0.1765 -0.3775 -0.2752
 7154TIP3    H142877   0.362   5.023  10.453 -0.1978 -0.0183 -2.3099
 7154TIP3    H242878   0.240   5.075  10.380 -1.2945  1.1260  0.2319
 7155TIP3   OH242879   0.831   0.712  14.779  0.3658  0.1850 -0.0540
 7155TIP3    H142880   0.823   0.719  14.874  1.6028  0.0085  0.0803
 7155TIP3    H242881   0.756   0.658  14.752  1.1575 -1.5630  1.0728
 7156TIP3   OH242882   6.531   4.457   0.345 -0.4441 -0.6281  0.6544
 7156TIP3    H142883   6.520   4.374   0.298 -1.4312 -0.2970  0.2764
 7156TIP3    H242884   6.576   4.514   0.283 -0.4786 -0.6309  0.6269
 7157TIP3   OH242885   4.121   2.510   0.359 -0.6345 -0.3766  0.2555
 7157TIP3    H142886   4.153   2.516   0.449 -2.0267 -0.9018  0.8161
 7157TIP3    H242887   4.162   2.583   0.314  1.4636 -1.1118  0.8601
 7158TIP3   OH242888   6.586   6.087   4.289 -0.2361 -0.2909  0.2073
 7158TIP3    H142889   6.622   6.133   4.213  0.8354 -1.4471 -0.0088
 7158TIP3    H242890   6.539   6.013   4.253 -1.0583  0.0220  0.6122
 7159TIP3   OH242891   5.781   2.351   0.537  0.0786 -0.4265  1.0517
 7159TIP3    H142892   5.765   2.399   0.619  0.9262 -0.6432  1.3573
 7159TIP3    H242893   5.710   2.286   0.533  0.1405 -0.5440  1.7218
 7160TIP3   OH242894   5.576   1.115   2.298 -0.0194 -0.2664  0.5888
 7160TIP3    H142895   5.487   1.146   2.317 -0.5890 -2.0150  0.9231
 7160TIP3    H242896   5.633   1.186   2.327 -1.3506  2.2963 -2.4102
 7161TIP3   OH242897   3.502   2.974   4.350  0.7241 -0.3914  0.1245
 7161TIP3    H142898   3.438   2.908   4.322 -0.5238  0.6784  0.3167
 7161TIP3    H242899   3.554   2.991   4.272  0.6040 -1.0992 -0.1191
 7162TIP3   OH242900   4.187   3.645  15.206  0.5814 -0.5311 -0.2718
 7162TIP3    H142901   4.181   3.688  15.291  1.5021  2.2487 -1.4911
 7162TIP3    H242902   4.110   3.676  15.158 -0.1495 -2.3864 -0.3833
 7163TIP3   OH242903   4.620   3.088   1.842  0.2841 -0.0296 -0.4626
 7163TIP3    H142904   4.706   3.127   1.828  0.5793 -0.4266  0.2145
 7163TIP3    H242905   4.558   3.160   1.829  0.8099  0.6272  0.5749
 7164TIP3   OH242906   0.630   5.754  14.724  0.1924 -0.1043 -0.6854
 7164TIP3    H142907   0.723   5.775  14.727 -0.1293  1.3236  0.6159
 7164TIP3    H242908   0.621   5.676  14.778  0.4640  0.5151  0.2649
 7165TIP3   OH242909   2.195   6.239  12.282  0.3198  0.2034 -0.6357
 7165TIP3    H142910   2.273   6.188  12.305 -0.0318 -0.3524 -0.6746
 7165TIP3    H242911   2.126   6.204  12.338  0.4577  1.8161  0.6197
 7166TIP3   OH242912   4.147   3.669  15.783 -0.1127  0.7686  0.0406
 7166TIP3    H142913   4.111   3.619  15.856  0.0688 -0.4097 -0.6575
 7166TIP3    H242914   4.241   3.666  15.796 -0.1259  1.3975  0.2916
 7167TIP3   OH242915   5.045   3.637   5.755  0.3994  0.0088  0.4065
 7167TIP3    H142916   5.022   3.729   5.767 -0.6604 -0.0190 -1.0404
 7167TIP3    H242917   5.097   3.614   5.832 -0.2255  1.5224  1.3217
 7168TIP3   OH242918   6.021   5.808  11.055  0.7250 -0.7978  0.1759
 7168TIP3    H142919   6.114   5.810  11.032  0.2482  0.8593 -1.8977
 7168TIP3    H242920   5.984   5.736  11.003  0.6792 -0.9391  0.3972
 7169TIP3   OH242921   6.729   3.824  16.787 -0.4682 -0.8579  0.2222
 7169TIP3    H142922   6.687   3.784  16.711 -0.3265  1.6968 -1.3225
 7169TIP3    H242923   6.817   3.846  16.758 -0.2309 -0.3194  1.2831
 7170TIP3   OH242924   3.253   5.682   4.432  0.0448 -0.1362  0.0267
 7170TIP3    H142925   3.296   5.649   4.511 -2.5494 -1.2543  1.0757
 7170TIP3    H242926   3.205   5.760   4.461 -2.6486 -1.7202  0.2047
 7171TIP3   OH242927   5.208   4.092   2.945  0.1990 -0.3971 -0.2012
 7171TIP3    H142928   5.210   4.118   3.037  0.7956  2.6990 -0.9871
 7171TIP3    H242929   5.128   4.130   2.910  0.8165 -0.0683 -1.3228
 7172TIP3   OH242930   5.679   3.262   5.809  0.2486 -0.2231 -0.2226
 7172TIP3    H142931   5.708   3.232   5.895  1.7909  0.5963 -0.4151
 7172TIP3    H242932   5.759   3.269   5.758 -0.1400  2.7904 -0.5984
 7173TIP3   OH242933   5.576   3.213  16.497  0.0180 -0.5601  0.1649
 7173TIP3    H142934   5.599   3.259  16.578 -0.8430  1.0729 -0.4746
 7173TIP3    H242935   5.661   3.189  16.459  0.5451  1.0470  0.2455
 7174TIP3   OH242936   3.087   4.044   5.105  0.3385  0.7895 -0.1401
 7174TIP3    H142937   3.138   4.051   5.024  0.3422 -0.0005 -0.2149
 7174TIP3    H242938   3.125   4.109   5.163  0.8981  0.7758 -0.4819
 7175TIP3   OH242939   1.255   1.410  12.173  0.2535 -1.2497  0.1578
 7175TIP3    H142940   1.317   1.340  12.157  0.0937 -1.0400 -1.6053
 7175TIP3    H242941   1.203   1.415  12.093  1.3343  1.9390 -0.5136
 7176TIP3   OH242942   1.708   4.118  16.280 -0.0353  0.8019  0.1560
 7176TIP3    H142943   1.730   4.057  16.209 -0.9499  1.0598 -0.3682
 7176TIP3    H242944   1.745   4.201  16.252  1.5301  0.4426  1.0407
 7177TIP3   OH242945   1.901   6.437   3.332  0.6590  0.1937  0.5695
 7177TIP3    H142946   1.843   6.445   3.408  1.2475  2.2223  0.8641
 7177TIP3    H242947   1.965   6.371   3.358 -0.7662 -1.2024  0.6971
 7178TIP3   OH242948   4.486   3.762  12.599 -0.2951  0.0405 -0.4703
 7178TIP3    H142949   4.459   3.840  12.551  1.2045  0.9277  0.0616
 7178TIP3    H242950   4.509   3.794  12.686 -2.3397 -1.4417  0.7025
 7179TIP3   OH242951   2.709   0.183   1.090  0.1856  0.3733  0.1479
 7179TIP3    H142952   2.795   0.183   1.132  0.5608  0.8964 -0.6072
 7179TIP3    H242953   2.649   0.213   1.158  0.6464  0.3063  0.5865
 7180TIP3   OH242954   3.967   0.596   6.866  0.1109 -0.2442  0.1727
 7180TIP3    H142955   3.983   0.505   6.841  0.4466 -0.0546 -0.3299
 7180TIP3    H242956   3.898   0.625   6.806 -0.0715 -0.1983  0.4044
 7181TIP3   OH242957   2.459   4.892   3.236  0.5371 -0.7390  0.3260
 7181TIP3    H142958   2.523   4.872   3.304  0.4983 -2.2912 -0.0705
 7181TIP3    H242959   2.511   4.906   3.157  0.4297 -1.5917  0.0955
 7182TIP3   OH242960   1.383   3.992   3.959 -0.7510 -0.0841  0.0188
 7182TIP3    H142961   1.358   4.080   3.988 -0.4602  0.3104 -0.8933
 7182TIP3    H242962   1.324   3.934   4.008 -0.9908  0.6104  0.5916
 7183TIP3   OH242963   6.129   0.086   4.521  0.1164  0.0435 -0.3904
 7183TIP3    H142964   6.159   0.163   4.473  0.9659  1.0520  1.6390
 7183TIP3    H242965   6.039   0.107   4.546  0.4042  0.4606  0.3053
 7184TIP3   OH242966   6.137   3.431   4.518  0.1434 -0.5270  0.0804
 7184TIP3    H142967   6.108   3.341   4.509 -0.7903 -0.3058  0.7670
 7184TIP3    H242968   6.130   3.450   4.611  0.0195  0.3562 -0.0948
 7185TIP3   OH242969   4.354   1.399   2.291 -0.0672 -0.2422  0.0945
 7185TIP3    H142970   4.426   1.336   2.284 -0.2972 -0.6562  1.2687
 7185TIP3    H242971   4.385   1.465   2.353 -0.2164  0.2743 -0.3688
 7186TIP3   OH242972   0.765   6.620   0.340 -0.1441  0.3369  0.0976
 7186TIP3    H142973   0.807   6.701   0.313 -0.7109  0.4234 -0.5363
 7186TIP3    H242974   0.777   6.560   0.266 -1.8470  0.6301 -0.4628
 7187TIP3   OH242975   6.718   0.544  15.509 -0.1353  0.4361 -0.3932
 7187TIP3    H142976   6.727   0.542  15.604  2.3540  1.6407 -0.5243
 7187TIP3    H242977   6.624   0.544  15.494 -0.5959  0.4227  2.0698
 7188TIP3   OH242978   3.209   2.069   2.136 -0.2510 -0.0265  0.2303
 7188TIP3    H142979   3.134   2.125   2.117  0.9047  0.6713 -2.9867
 7188TIP3    H242980   3.173   1.981   2.140 -1.2007  0.1751 -2.2972
 7189TIP3   OH242981   4.216   3.357   3.332  0.2272  0.2225 -0.3815
 7189TIP3    H142982   4.210   3.299   3.409  0.1258  0.5351 -0.1507
 7189TIP3    H242983   4.310   3.361   3.313  0.1852 -0.5050 -0.7789
 7190TIP3   OH242984   3.572   1.815  12.576 -0.8459 -0.6895 -0.1512
 7190TIP3    H142985   3.551   1.787  12.487 -2.9602  1.2469 -0.3480
 7190TIP3    H242986   3.668   1.816  12.578 -0.7143 -0.3352 -2.5828
 7191TIP3   OH242987   5.488   6.174  16.184 -0.7554  0.4006  0.1708
 7191TIP3    H142988   5.482   6.100  16.124 -1.7817 -0.0169  0.7596
 7191TIP3    H242989   5.415   6.162  16.245 -0.2205  1.2382  1.0188
 7192TIP3   OH242990   0.748   4.411   0.717 -0.5460  0.2970  0.7505
 7192TIP3    H142991   0.836   4.401   0.755  0.7019  1.5392 -1.6107
 7192TIP3    H242992   0.709   4.324   0.725  1.2989 -0.5695  0.9013
 7193TIP3   OH242993   0.193   3.055   4.624  0.5912  1.0756  0.2747
 7193TIP3    H142994   0.216   3.079   4.534 -1.8566  0.5644 -0.5738
 7193TIP3    H242995   0.143   2.974   4.614 -1.7722  2.2577  1.8408
 7194TIP3   OH242996   4.889   3.953   5.386 -0.0461  0.1103  0.0890
 7194TIP3    H142997   4.963   3.987   5.436 -0.9228  2.6666 -0.1522
 7194TIP3    H242998   4.818   4.014   5.405 -1.0649 -0.1511 -2.4145
 7195TIP3   OH242999   0.767   5.595  14.514  0.2214 -0.6777 -0.4286
 7195TIP3    H143000   0.822   5.599  14.592  0.0798 -2.0184 -0.2284
 7195TIP3    H243001   0.685   5.556  14.544  0.2727 -1.4799 -1.2848
 7196TIP3   OH243002   2.871   0.440   3.936 -0.5771  0.0533  0.4941
 7196TIP3    H143003   2.850   0.393   4.017 -1.2347 -0.8655 -0.1813
 7196TIP3    H243004   2.884   0.531   3.963  0.0134 -0.3789  1.7411
 7197TIP3   OH243005   0.590   5.268   2.595 -0.2711 -0.5033  0.6164
 7197TIP3    H143006   0.636   5.184   2.602 -0.8337 -0.7697  1.2322
 7197TIP3    H243007   0.573   5.278   2.501 -0.4386 -1.2157  0.5637
 7198TIP3   OH243008   6.182   5.593  11.732 -0.8057 -0.6102 -0.3487
 7198TIP3    H143009   6.226   5.643  11.800  0.5256 -0.9635 -0.9239
 7198TIP3    H243010   6.103   5.644  11.711 -0.5289  0.1822  0.4908
 7199TIP3   OH243011   1.223   6.000  14.036 -0.2978  0.3034 -0.5750
 7199TIP3    H143012   1.252   5.931  14.096 -0.0494  0.9886  0.1125
 7199TIP3    H243013   1.301   6.022  13.985 -0.2652  0.3788 -0.4924
 7200TIP3   OH243014   1.549   1.847   1.106  0.2361  0.1977 -0.0019
 7200TIP3    H143015   1.627   1.861   1.160  1.5778 -0.9707 -1.5301
 7200TIP3    H243016   1.559   1.909   1.034 -1.1737  1.2560  0.6751
 7201TIP3   OH243017   4.042   3.729   6.210  0.3409  0.7858  0.3899
 7201TIP3    H143018   3.955   3.736   6.249  0.7460  0.7962  1.3053
 7201TIP3    H243019   4.097   3.693   6.280  0.8883 -0.0547 -0.4488
 7202TIP3   OH243020   4.465   5.011  16.177 -0.1306  0.0260 -0.2835
 7202TIP3    H143021   4.530   5.081  16.172  1.5620 -1.3075  1.4615
 7202TIP3    H243022   4.495   4.945  16.116 -0.9108  0.1569 -0.8325
 7203TIP3   OH243023   4.285   1.120  12.030  0.0244 -0.4456  0.0215
 7203TIP3    H143024   4.246   1.036  12.053  1.6784 -1.1396  0.4413
 7203TIP3    H243025   4.296   1.116  11.935 -0.4053 -0.4589 -0.0305
 7204TIP3   OH243026   4.160   2.847   1.686  0.3166  0.5499 -0.1274
 7204TIP3    H143027   4.150   2.928   1.636  0.9922  1.3244  0.9428
 7204TIP3    H243028   4.233   2.865   1.746  0.4410 -0.8330  0.1686
 7205TIP3   OH243029   3.830   4.355  11.606 -0.1776  0.2958  0.8945
 7205TIP3    H143030   3.887   4.408  11.550 -2.3331 -0.0692 -1.8055
 7205TIP3    H243031   3.836   4.267  11.570 -1.0014 -0.1372  1.7742
 7206TIP3   OH243032   1.647   1.353  15.410  0.2227 -0.5074  0.3127
 7206TIP3    H143033   1.688   1.282  15.459  1.0577  1.3141  2.4552
 7206TIP3    H243034   1.706   1.369  15.336  0.8407 -1.0361  0.6799
 7207TIP3   OH243035   5.669   4.228   4.355  0.3234  0.2988 -0.0459
 7207TIP3    H143036   5.718   4.189   4.283 -1.5591 -4.0917  0.7443
 7207TIP3    H243037   5.577   4.223   4.327 -0.1942  3.1593  0.7667
 7208TIP3   OH243038   0.161   6.098  13.840 -0.2622 -0.1284  0.3454
 7208TIP3    H143039   0.139   6.103  13.933  0.9840 -1.0247  0.7140
 7208TIP3    H243040   0.234   6.160  13.830 -2.2002  2.1517 -0.6724
 7209TIP3   OH243041   1.113   1.834  10.616 -0.2346 -0.8252  0.7331
 7209TIP3    H143042   1.071   1.847  10.701  0.7100 -0.4295  1.1519
 7209TIP3    H243043   1.160   1.751  10.625  2.1152  0.4742  1.5954
 7210TIP3   OH243044   4.914   2.004  13.200 -0.1133 -0.1997 -0.3399
 7210TIP3    H143045   4.927   2.093  13.166  1.3502 -0.5765 -0.8403
 7210TIP3    H243046   4.998   1.961  13.186 -0.6340 -1.5036  0.4138
 7211TIP3   OH243047   6.194   1.413   2.431  0.0923 -0.0655  0.2572
 7211TIP3    H143048   6.179   1.485   2.492  1.3127 -1.0341  1.7773
 7211TIP3    H243049   6.259   1.357   2.475 -1.6855 -2.7394 -0.2754
 7212TIP3   OH243050   4.929   2.874   4.783 -0.4195  0.1143 -0.6231
 7212TIP3    H143051   4.841   2.877   4.822 -0.1169  0.4424  0.0402
 7212TIP3    H243052   4.928   2.794   4.729 -0.2275 -1.4090  1.5259
 7213TIP3   OH243053   5.995   3.111   6.556  0.1827  0.6684 -0.7632
 7213TIP3    H143054   6.066   3.173   6.539  0.0944  1.0931  0.3455
 7213TIP3    H243055   5.942   3.112   6.476 -0.0335  2.3175 -0.6289
 7214TIP3   OH243056   1.265   1.822   1.042  0.1589  0.3533 -0.3937
 7214TIP3    H143057   1.359   1.824   1.063 -0.0309  0.4717  0.4509
 7214TIP3    H243058   1.245   1.729   1.033  0.5125  0.3533 -1.3268
 7215TIP3   OH243059   0.445   5.054  14.382  0.0490 -0.5861 -0.1039
 7215TIP3    H143060   0.525   5.007  14.405  0.1081 -0.2395  0.4004
 7215TIP3    H243061   0.464   5.091  14.296  1.0522  0.8724  0.7158
 7216TIP3   OH243062   3.660   1.049  17.128 -0.5828  0.1303 -0.1040
 7216TIP3    H143063   3.603   1.070  17.202 -3.0843 -1.3307 -1.4513
 7216TIP3    H243064   3.735   1.005  17.167 -0.8226  1.2274  1.6922
 7217TIP3   OH243065   2.673   5.342   4.876 -0.4793 -0.4640 -0.1991
 7217TIP3    H143066   2.721   5.423   4.859 -0.7346 -0.5098 -1.1717
 7217TIP3    H243067   2.629   5.322   4.794 -1.7497 -0.7096  0.5226
 7218TIP3   OH243068   4.376   1.102  16.875  0.0109 -0.3287 -0.0562
 7218TIP3    H143069   4.402   1.010  16.870 -0.2755 -0.3966 -0.4452
 7218TIP3    H243070   4.369   1.129  16.783 -0.2588 -0.0221  0.0528
 7219TIP3   OH243071   2.626   2.066   0.523  0.2228 -0.0587  0.5381
 7219TIP3    H143072   2.561   2.131   0.550  0.7644  1.4530 -1.5127
 7219TIP3    H243073   2.580   2.012   0.459  0.8497  0.8354 -0.7037
 7220TIP3   OH243074   4.809   0.800   2.221  0.1494  0.2114 -0.4750
 7220TIP3    H143075   4.896   0.799   2.180  0.6878  2.7859  0.3854
 7220TIP3    H243076   4.753   0.841   2.156  0.2923  1.3333  0.0804
 7221TIP3   OH243077   2.654   0.406   3.562 -0.4244  0.1251 -0.1421
 7221TIP3    H143078   2.688   0.352   3.633 -0.9960 -0.6642 -0.4618
 7221TIP3    H243079   2.718   0.477   3.554 -0.9315  0.8611  1.9043
 7222TIP3   OH243080   0.042   4.304  11.696  0.6149 -0.5783 -0.1062
 7222TIP3    H143081   0.045   4.380  11.755  0.0954 -0.7225  0.1184
 7222TIP3    H243082   0.052   4.228  11.754 -2.5712 -0.8854  0.2331
 7223TIP3   OH243083   4.392   3.529   2.445  0.5215  0.0042 -0.8912
 7223TIP3    H143084   4.414   3.473   2.371 -0.2776  0.7684 -1.7323
 7223TIP3    H243085   4.441   3.492   2.519  0.7714 -1.1952 -1.6367
 7224TIP3   OH243086   1.328   3.441   4.440 -0.1055 -0.3713  0.5857
 7224TIP3    H143087   1.396   3.382   4.406 -0.6054 -0.1151 -0.9489
 7224TIP3    H243088   1.344   3.524   4.395 -0.9094 -0.0698  0.8500
 7225TIP3   OH243089   5.534   3.658  11.980 -0.3405 -0.0667 -0.7609
 7225TIP3    H143090   5.448   3.627  11.950 -1.7551  0.9535  1.9121
 7225TIP3    H243091   5.586   3.578  11.990 -2.5522 -1.3541  2.0103
 7226TIP3   OH243092   6.000   2.652   5.051 -0.0537  0.4640 -0.1751
 7226TIP3    H143093   5.906   2.661   5.033 -0.2057 -1.9765 -0.9445
 7226TIP3    H243094   6.004   2.619   5.140 -0.1806 -2.5236 -1.1798
 7227TIP3   OH243095   5.534   3.968   2.296  0.0590  0.3302  0.4339
 7227TIP3    H143096   5.520   3.961   2.201 -1.6057  0.5892  0.6258
 7227TIP3    H243097   5.623   4.002   2.305 -0.0841  1.2021 -1.0776
 7228TIP3   OH243098   5.510   2.052   5.082  0.2008 -0.1919  0.0958
 7228TIP3    H143099   5.490   2.092   4.997  0.6834 -1.8652 -0.8456
 7228TIP3    H243100   5.600   2.082   5.101  0.4418 -0.5631 -0.4428
 7229TIP3   OH243101   1.907   4.879   3.310 -0.3386  0.3094  0.5283
 7229TIP3    H143102   1.959   4.870   3.230  1.5922  0.2900  1.7014
 7229TIP3    H243103   1.900   4.790   3.344 -0.9351  0.3474  0.5048
 7230TIP3   OH243104   1.843   3.671  14.612  0.2432  0.9411 -0.1776
 7230TIP3    H143105   1.771   3.701  14.668 -0.7314 -1.2609 -0.1353
 7230TIP3    H243106   1.800   3.635  14.535  1.2443 -0.6145 -0.0614
 7231TIP3   OH243107   1.777   3.855   1.129 -0.2374  0.2007 -0.3413
 7231TIP3    H143108   1.771   3.763   1.155 -0.2361 -0.0045 -1.0403
 7231TIP3    H243109   1.727   3.860   1.047 -1.3633  1.0978  0.3678
 7232TIP3   OH243110   3.389   1.917   2.398 -0.3996  0.8130  0.2178
 7232TIP3    H143111   3.297   1.933   2.375 -0.3069  0.7505 -0.2138
 7232TIP3    H243112   3.386   1.884   2.488 -0.8555  0.1896 -0.0183
 7233TIP3   OH243113   4.543   2.862   3.479  0.3482 -0.0563 -0.2361
 7233TIP3    H143114   4.491   2.789   3.511  2.2929 -0.6335  1.8227
 7233TIP3    H243115   4.543   2.925   3.551  0.2648  1.1504 -1.2577
 7234TIP3   OH243116   5.808   2.616   4.272  0.0854  0.5705  0.0562
 7234TIP3    H143117   5.834   2.690   4.217  1.1959  1.2544  1.4484
 7234TIP3    H243118   5.863   2.623   4.350 -0.2171 -1.3775  0.4963
 7235TIP3   OH243119   2.892   4.794   3.513  0.3287 -0.5831  0.4820
 7235TIP3    H143120   2.938   4.711   3.505  1.4149  0.1333 -1.4865
 7235TIP3    H243121   2.949   4.848   3.567  1.9473  0.2984 -1.9442
 7236TIP3   OH243122   1.419   5.035   2.690 -0.0190 -0.5600  0.3799
 7236TIP3    H143123   1.493   5.095   2.696 -0.5158  0.2710 -1.2518
 7236TIP3    H243124   1.349   5.078   2.740 -0.0899 -0.2026 -0.0165
 7237TIP3   OH243125   2.302   4.577  12.011  0.1877  0.0826  0.5908
 7237TIP3    H143126   2.306   4.499  11.957  0.1751 -0.1604  0.9345
 7237TIP3    H243127   2.242   4.636  11.965  0.0535 -0.1840  0.4244
 7238TIP3   OH243128   5.730   5.014  11.692  0.2285  0.1284  0.2539
 7238TIP3    H143129   5.746   4.980  11.604 -1.8776  0.3412 -0.2460
 7238TIP3    H243130   5.710   5.107  11.679  0.2859  0.2568  1.0098
 7239TIP3   OH243131   0.342   5.040   5.661  0.1901 -0.2137 -0.2049
 7239TIP3    H143132   0.282   5.092   5.714 -0.7986 -0.6072 -0.9160
 7239TIP3    H243133   0.288   4.972   5.622  1.3613 -1.4806  0.2825
 7240TIP3   OH243134   4.547   1.223   5.761 -0.5589 -0.1160  0.3722
 7240TIP3    H143135   4.524   1.206   5.852  0.0530 -1.3321  0.3225
 7240TIP3    H243136   4.626   1.170   5.746  1.3996  2.6420  0.1032
 7241TIP3   OH243137   6.310   5.593  12.232  0.1940  0.0538 -0.1207
 7241TIP3    H143138   6.230   5.549  12.204  0.6824  0.1874 -1.8145
 7241TIP3    H243139   6.329   5.556  12.318 -0.6811 -1.3230 -0.4969
 7242TIP3   OH243140   4.430   6.172  16.762  0.0180  0.2386  0.4742
 7242TIP3    H143141   4.351   6.222  16.783  0.1507  1.0317 -0.8418
 7242TIP3    H243142   4.398   6.083  16.745 -0.4825  0.3710  0.6981
 7243TIP3   OH243143   1.620   4.762   5.773 -0.3714 -0.6286 -0.0849
 7243TIP3    H143144   1.669   4.699   5.720 -3.8135 -2.7552 -1.0516
 7243TIP3    H243145   1.564   4.808   5.710 -0.8042  0.5627  1.1208
 7244TIP3   OH243146   1.879   4.996  16.165 -0.3851  0.0384 -0.4459
 7244TIP3    H143147   1.950   5.043  16.121 -2.1353  1.9936 -1.3663
 7244TIP3    H243148   1.867   5.044  16.247 -0.4924 -0.4415 -0.1796
 7245TIP3   OH243149   1.346   3.696   4.590 -0.0513  0.6677 -0.1162
 7245TIP3    H143150   1.434   3.728   4.608  0.0932  0.3383 -0.2343
 7245TIP3    H243151   1.348   3.603   4.614 -0.6436  0.8793  0.8090
 7246TIP3   OH243152   2.402   0.253   6.398  0.1718 -0.0380  0.4104
 7246TIP3    H143153   2.354   0.230   6.478  0.2822  0.3286  0.5816
 7246TIP3    H243154   2.388   0.347   6.387 -2.0400 -0.4800 -1.4327
 7247TIP3   OH243155   2.946   6.523  12.876 -0.3901  0.3527 -0.6260
 7247TIP3    H143156   2.995   6.443  12.894 -0.9572  0.2356  0.5075
 7247TIP3    H243157   2.963   6.542  12.784  0.1718 -0.7781 -0.7681
 7248TIP3   OH243158   1.253   1.529   5.079 -0.0248 -0.1654  0.2026
 7248TIP3    H143159   1.315   1.495   5.142 -1.5462 -2.1831  0.7306
 7248TIP3    H243160   1.261   1.471   5.003  0.2463  0.8920 -0.6037
 7249TIP3   OH243161   4.701   5.331   5.316 -0.2205 -0.0652 -0.0300
 7249TIP3    H143162   4.720   5.425   5.325  1.5714 -0.5809  3.5189
 7249TIP3    H243163   4.780   5.295   5.276 -0.0654 -0.2540  0.4306
 7250TIP3   OH243164   3.083   3.956  14.825  0.3190 -0.5295 -0.4946
 7250TIP3    H143165   3.013   4.013  14.856 -0.6139 -0.6988 -2.2059
 7250TIP3    H243166   3.163   4.004  14.845 -0.3807  0.6955 -0.5206
 7251TIP3   OH243167   4.490   1.782  15.436  0.0233 -0.2208 -0.5980
 7251TIP3    H143168   4.552   1.762  15.366 -0.4092 -0.2411 -0.9751
 7251TIP3    H243169   4.408   1.802  15.391 -0.3541 -0.5846 -0.0857
 7252TIP3   OH243170   6.247   0.534   4.704  0.0703  0.4504  0.3400
 7252TIP3    H143171   6.234   0.464   4.640  2.1407  0.4347 -0.1495
 7252TIP3    H243172   6.267   0.611   4.651 -0.3999  0.9736  0.9154
 7253TIP3   OH243173   3.204   0.924  16.984  0.1596  0.1769 -0.2900
 7253TIP3    H143174   3.124   0.948  16.937 -2.1215 -0.2138  3.0152
 7253TIP3    H243175   3.201   0.828  16.988  0.5160  0.1869  0.2858
 7254TIP3   OH243176   4.612   1.529  13.602 -0.4566  0.2327  0.2149
 7254TIP3    H143177   4.664   1.592  13.552  1.5298  0.0839  1.9297
 7254TIP3    H243178   4.614   1.562  13.692 -2.9551 -0.0985  0.4631
 7255TIP3   OH243179   6.283   4.085   0.468 -0.0655  0.5758 -0.1993
 7255TIP3    H143180   6.226   4.038   0.407 -1.8834  1.5080  0.7028
 7255TIP3    H243181   6.344   4.133   0.413 -0.6499  0.1702 -1.2214
 7256TIP3   OH243182   1.950   4.110   4.664  0.0376 -0.8099  0.0971
 7256TIP3    H143183   2.026   4.096   4.608 -0.2231 -0.0713 -0.4576
 7256TIP3    H243184   1.908   4.024   4.670 -0.7316 -0.6188 -2.0341
 7257TIP3   OH243185   4.721   6.238   1.536  0.3036 -0.1833 -0.5869
 7257TIP3    H143186   4.800   6.281   1.501 -0.6743  1.1337 -1.2902
 7257TIP3    H243187   4.653   6.305   1.528 -1.3779 -1.9508 -1.9684
 7258TIP3   OH243188   6.151   5.591  13.532  0.6206 -0.3865  0.2804
 7258TIP3    H143189   6.133   5.500  13.509  1.6755 -0.2693 -1.1121
 7258TIP3    H243190   6.091   5.642  13.477  1.1835 -0.2045 -0.1827
 7259TIP3   OH243191   0.874   2.026   3.957 -0.0882  0.5932  0.0954
 7259TIP3    H143192   0.872   2.092   3.887 -0.1240  0.3449 -0.1409
 7259TIP3    H243193   0.954   2.045   4.005 -0.0252  0.7213 -0.0591
 7260TIP3   OH243194   2.153   2.616   4.865 -0.2453  0.0639 -0.0336
 7260TIP3    H143195   2.110   2.620   4.950 -0.3882  1.6343 -0.1533
 7260TIP3    H243196   2.233   2.669   4.875 -0.4247  0.5351 -0.9472
 7261TIP3   OH243197   0.738   6.228  13.387 -0.1154  0.3612  0.2790
 7261TIP3    H143198   0.747   6.161  13.454 -0.0139 -1.0207 -1.0574
 7261TIP3    H243199   0.648   6.259  13.395 -0.3364 -0.3399  0.5517
 7262TIP3   OH243200   5.533   5.208  15.562 -0.4746  0.3116 -0.1027
 7262TIP3    H143201   5.579   5.130  15.530 -1.1885 -1.1071  2.1088
 7262TIP3    H243202   5.600   5.258  15.608 -0.3764  0.1549 -0.0756
 7263TIP3   OH243203   2.904   3.018  13.622 -0.0179  0.4739 -0.2111
 7263TIP3    H143204   2.984   2.981  13.586  1.4132  2.0270  1.2333
 7263TIP3    H243205   2.909   3.001  13.716 -2.1059 -0.6414 -0.2283
 7264TIP3   OH243206   5.581   1.005  16.538  0.3818 -0.3839  0.2432
 7264TIP3    H143207   5.511   1.041  16.483 -0.7818 -1.0853  1.2274
 7264TIP3    H243208   5.621   1.081  16.579 -0.0107  0.0028 -0.0843
 7265TIP3   OH243209   4.991   2.201  10.807 -0.0225  0.6390 -0.0370
 7265TIP3    H143210   4.997   2.135  10.738  0.0426 -2.2107  2.4879
 7265TIP3    H243211   5.057   2.175  10.871 -2.1289  1.2111  2.5575
 7266TIP3   OH243212   0.005   3.734  11.707 -0.1651 -0.3896 -0.2968
 7266TIP3    H143213  -0.014   3.719  11.799 -1.0178  1.0922 -0.1914
 7266TIP3    H243214   0.060   3.813  11.706  0.4463 -0.8094 -1.0191
 7267TIP3   OH243215   2.650   5.730  14.050 -0.1167 -0.2462 -0.5891
 7267TIP3    H143216   2.560   5.736  14.081 -0.2971 -0.7314 -1.0103
 7267TIP3    H243217   2.699   5.700  14.127  0.1490  2.4244  0.3907
 7268TIP3   OH243218   4.697   0.165   4.950 -1.1613 -0.4381 -0.3078
 7268TIP3    H143219   4.658   0.078   4.957 -0.2232 -0.8499 -0.0830
 7268TIP3    H243220   4.768   0.156   4.887 -1.6219  0.3837 -0.9691
 7269TIP3   OH243221   1.483   3.654   2.771  1.1563  0.1309  0.2285
 7269TIP3    H143222   1.510   3.585   2.832  0.0008 -0.9705 -0.4339
 7269TIP3    H243223   1.428   3.713   2.823  0.0113 -0.9102  0.2585
 7270TIP3   OH243224   1.056   0.812  13.394  0.1189  0.3305  0.3793
 7270TIP3    H143225   1.031   0.743  13.455  1.0413  0.9460  1.5210
 7270TIP3    H243226   1.152   0.817  13.401  0.2160  0.6636 -0.8690
 7271TIP3   OH243227   4.504   5.684   4.099 -0.1085 -1.0042 -0.0558
 7271TIP3    H143228   4.442   5.623   4.139 -3.3583  1.3579 -1.0649
 7271TIP3    H243229   4.456   5.766   4.091  3.8840  1.7452  0.9524
 7272TIP3   OH243230   1.758   3.999   3.334  0.1012 -1.3760  0.3792
 7272TIP3    H143231   1.730   3.930   3.393  0.5509 -0.5380  1.6249
 7272TIP3    H243232   1.769   4.076   3.391 -1.7017  0.1158 -1.1366
 7273TIP3   OH243233   6.759   0.300  14.489  0.0060 -0.4745  0.0381
 7273TIP3    H143234   6.750   0.322  14.582 -0.2882  2.4021 -0.5859
 7273TIP3    H243235   6.826   0.360  14.457 -0.1958 -1.1377 -1.7171
 7274TIP3   OH243236   2.616   0.186  11.822  0.0371 -0.4836  0.3279
 7274TIP3    H143237   2.548   0.197  11.756 -0.2381 -2.2517  0.2795
 7274TIP3    H243238   2.582   0.232  11.899  0.0766  1.0443 -0.5261
 7275TIP3   OH243239   3.160   2.235  10.957 -0.0527 -0.6879 -0.2973
 7275TIP3    H143240   3.248   2.251  10.991  0.5423 -1.8852 -1.2104
 7275TIP3    H243241   3.164   2.147  10.919 -1.2930 -0.2843 -1.4481
 7276TIP3   OH243242   4.523   2.409   6.122 -0.3222 -0.1400  0.2129
 7276TIP3    H143243   4.527   2.366   6.036  0.7126 -1.9828  1.1158
 7276TIP3    H243244   4.461   2.356   6.172  0.1159  0.0948  1.0177
 7277TIP3   OH243245   2.732   3.871   6.469  0.2814 -0.4011 -0.2194
 7277TIP3    H143246   2.767   3.940   6.412 -0.6703 -1.4337 -2.1496
 7277TIP3    H243247   2.643   3.898   6.488  0.5073 -0.1997  0.5893
 7278TIP3   OH243248   0.176   3.032  16.247 -0.4447 -0.4009  0.4231
 7278TIP3    H143249   0.111   3.077  16.193  0.1034 -3.8073 -3.6496
 7278TIP3    H243250   0.192   3.091  16.320 -3.7355  3.2439 -1.4230
 7279TIP3   OH243251   3.496   2.714  13.989  0.2203 -0.0798  0.0462
 7279TIP3    H143252   3.414   2.668  14.007  1.5147 -1.7437  2.0030
 7279TIP3    H243253   3.496   2.787  14.051  0.7894 -0.8342  0.9454
 7280TIP3   OH243254   4.488   5.954   3.565 -0.1295 -0.3350  0.5499
 7280TIP3    H143255   4.432   5.885   3.531  0.7005  0.1913 -2.0870
 7280TIP3    H243256   4.577   5.927   3.543  0.2335  1.4041 -0.3121
 7281TIP3   OH243257   2.443   1.012  14.412 -0.2837 -0.8197  0.2617
 7281TIP3    H143258   2.517   1.073  14.413  0.0258 -1.1664 -0.6740
 7281TIP3    H243259   2.406   1.018  14.500  0.9817 -0.7965  0.8081
 7282TIP3   OH243260   3.142   5.764   4.880 -0.2874  0.1199 -0.8197
 7282TIP3    H143261   3.180   5.836   4.930 -0.7521  0.8204 -1.4530
 7282TIP3    H243262   3.215   5.703   4.866 -0.0233  0.1722  0.2162
 7283TIP3   OH243263   0.517   5.895  16.350 -0.2217  0.5580 -0.0161
 7283TIP3    H143264   0.428   5.907  16.384 -0.2593 -0.2203  0.1739
 7283TIP3    H243265   0.574   5.908  16.425 -0.3608 -2.3661  0.7162
 7284TIP3   OH243266   3.569   2.371   5.141  0.2331  0.0768 -0.0377
 7284TIP3    H143267   3.508   2.298   5.144 -1.9910  1.8498  1.3929
 7284TIP3    H243268   3.637   2.350   5.205  0.1478 -1.1092 -0.3205
 7285TIP3   OH243269   2.758   2.688  13.197 -0.3409  0.0627  0.3345
 7285TIP3    H143270   2.720   2.607  13.231 -0.8969 -0.3223 -1.1449
 7285TIP3    H243271   2.824   2.659  13.135 -1.1328  0.7062 -0.8490
 7286TIP3   OH243272   2.315   5.532  11.653 -0.1334 -0.0645 -0.4782
 7286TIP3    H143273   2.271   5.501  11.573 -2.1417  2.1525 -0.3218
 7286TIP3    H243274   2.280   5.476  11.723 -2.3032  1.2281 -0.4597
 7287TIP3   OH243275   6.689   3.310   6.170 -0.0520 -0.3963  0.6636
 7287TIP3    H143276   6.752   3.296   6.099 -1.3120  0.7010 -0.7269
 7287TIP3    H243277   6.739   3.294   6.250  1.7342 -0.4724 -0.4208
 7288TIP3   OH243278   1.545   0.040  16.687  0.0465 -0.8831  0.1844
 7288TIP3    H143279   1.531   0.056  16.781 -2.3839 -1.3560 -0.0134
 7288TIP3    H243280   1.562  -0.054  16.681 -0.9029 -1.0570  0.0820
 7289TIP3   OH243281   2.681   2.410  15.062  0.2796 -0.3162  0.1702
 7289TIP3    H143282   2.747   2.403  15.130  0.9444 -1.3309 -0.5611
 7289TIP3    H243283   2.598   2.396  15.108  0.7354 -1.2085  0.7441
 7290TIP3   OH243284   2.231   1.654  12.295 -0.0840  0.1616  0.4293
 7290TIP3    H143285   2.321   1.641  12.266 -0.0095 -1.0627  1.1302
 7290TIP3    H243286   2.200   1.731  12.247  0.7390 -0.4835 -1.1903
 7291TIP3   OH243287   1.054   6.102   5.980  0.2018 -0.9611  0.4016
 7291TIP3    H143288   1.087   6.179   6.025 -0.0535 -0.0132 -0.9804
 7291TIP3    H243289   1.126   6.074   5.924 -0.6632  0.0468 -1.2850
 7292TIP3   OH243290   1.380   3.177   5.630 -0.6323 -0.5558  0.0924
 7292TIP3    H143291   1.347   3.211   5.547 -0.1990 -0.3365  0.0060
 7292TIP3    H243292   1.304   3.177   5.689 -1.0984 -1.3340 -0.4909
 7293TIP3   OH243293   5.654   2.573  16.911 -0.6334  0.8114 -0.1673
 7293TIP3    H143294   5.736   2.594  16.957 -2.4460  1.9499  2.8741
 7293TIP3    H243295   5.656   2.478  16.901  0.0586  0.5128  2.1094
 7294TIP3   OH243296   2.608   5.852  15.790 -0.3752  0.3438  0.1300
 7294TIP3    H143297   2.610   5.809  15.875  0.6613  0.2090  0.0411
 7294TIP3    H243298   2.517   5.883  15.781 -1.6972 -3.2240 -0.5065
 7295TIP3   OH243299   6.711   2.748  15.212  0.9109  0.3107  0.3647
 7295TIP3    H143300   6.652   2.824  15.206  2.1741  1.5784  2.5638
 7295TIP3    H243301   6.656   2.673  15.193 -0.8407  1.6352 -0.0285
 7296TIP3   OH243302   2.878   4.955   5.184  0.0311 -0.3015 -0.2883
 7296TIP3    H143303   2.950   4.956   5.120 -1.2695  1.5865 -1.8743
 7296TIP3    H243304   2.838   4.869   5.174  0.6706 -0.5278 -1.0503
 7297TIP3   OH243305   1.801   2.117  12.893  0.3829 -0.5742  0.1756
 7297TIP3    H143306   1.725   2.114  12.951  0.2054 -0.5783 -0.0563
 7297TIP3    H243307   1.860   2.050  12.927  0.9978  0.5151  1.3331
 7298TIP3   OH243308   2.032   5.035   6.328 -0.0367  0.0842  0.0532
 7298TIP3    H143309   2.088   5.037   6.406 -0.0580  0.7781  0.0536
 7298TIP3    H243310   2.061   5.110   6.276 -1.5610  0.9954  0.4645
 7299TIP3   OH243311   5.124   4.789   2.793  0.1911 -0.8039  0.4824
 7299TIP3    H143312   5.117   4.753   2.705 -0.8881  1.1686 -0.2815
 7299TIP3    H243313   5.211   4.827   2.797  1.3545 -3.3187  1.3020
 7300TIP3   OH243314   5.024   0.331   0.852  0.2895  0.1144  0.2439
 7300TIP3    H143315   5.053   0.277   0.778  2.1689 -0.1703  1.1414
 7300TIP3    H243316   5.066   0.291   0.928 -0.4137  1.2977  1.2770
 7301TIP3   OH243317   5.444   2.073  10.665  0.2477  0.0613  0.1693
 7301TIP3    H143318   5.369   2.013  10.667  0.3370 -0.0677 -0.3466
 7301TIP3    H243319   5.476   2.069  10.575  1.4020 -0.5410  0.5806
 7302TIP3   OH243320   5.077   4.055  13.408 -0.0792 -0.0657  0.2278
 7302TIP3    H143321   5.000   4.095  13.367 -0.1096 -0.0006  0.3462
 7302TIP3    H243322   5.074   3.963  13.381 -0.3251 -0.1146  0.4155
 7303TIP3   OH243323   5.941   5.824   6.191  0.2694 -0.2650  0.3156
 7303TIP3    H143324   6.031   5.816   6.161 -0.0340  0.4962 -0.9076
 7303TIP3    H243325   5.945   5.815   6.286  1.5091 -1.1077  0.1971
 7304TIP3   OH243326   5.582   2.745   1.781  0.1078 -0.3724  0.4417
 7304TIP3    H143327   5.634   2.668   1.757  0.8783 -0.0731  1.0862
 7304TIP3    H243328   5.602   2.759   1.874 -0.2591  0.4264  0.4056
 7305TIP3   OH243329   2.641   2.176  11.157 -0.6054 -0.4159 -0.2362
 7305TIP3    H143330   2.584   2.176  11.080 -1.0103 -1.2194  0.0431
 7305TIP3    H243331   2.729   2.176  11.122 -0.7498  1.3508 -0.6769
 7306TIP3   OH243332   4.761   1.096  10.974  0.2357 -0.4262  0.4710
 7306TIP3    H143333   4.831   1.158  10.994  0.4554 -0.2428 -0.7783
 7306TIP3    H243334   4.681   1.145  10.990  0.4042 -0.1604  0.5068
 7307TIP3   OH243335   6.351   2.412   2.531 -0.0454  0.1817  0.1889
 7307TIP3    H143336   6.443   2.414   2.506 -0.0929 -1.4937 -0.2358
 7307TIP3    H243337   6.352   2.393   2.624  0.0550 -0.0381  0.1457
 7308TIP3   OH243338   4.754   1.258   1.225 -0.1344 -0.6656  0.0688
 7308TIP3    H143339   4.699   1.319   1.272  0.0759 -0.3676 -0.0648
 7308TIP3    H243340   4.756   1.179   1.279  1.5172  0.2600  1.4606
 7309TIP3   OH243341   2.093   3.498  12.197  0.1257 -0.0579 -0.4253
 7309TIP3    H143342   2.153   3.430  12.227  0.4098 -0.3464 -1.5995
 7309TIP3    H243343   2.064   3.468  12.111  0.0487  1.1659 -0.8449
 7310TIP3   OH243344   3.305   6.087  12.246  0.1624 -0.3187  0.9180
 7310TIP3    H143345   3.373   6.153  12.257 -0.4241  0.3699  0.4715
 7310TIP3    H243346   3.224   6.137  12.241 -0.0991 -0.8740 -1.7604
 7311TIP3   OH243347   3.471   2.080  12.639 -0.1187 -0.4559 -0.4785
 7311TIP3    H143348   3.507   2.104  12.724 -0.9738 -0.1772 -0.1826
 7311TIP3    H243349   3.512   1.996  12.618  2.4378  0.8978 -1.2363
 7312TIP3   OH243350   3.682   3.772  12.685  0.7507  0.1270 -0.3551
 7312TIP3    H143351   3.701   3.771  12.592 -0.9080  0.6375 -0.7377
 7312TIP3    H243352   3.589   3.795  12.690  0.5359 -0.9414  1.3711
 7313TIP3   OH243353   2.535   6.730  11.651 -0.2730  0.1563 -1.0522
 7313TIP3    H143354   2.558   6.776  11.732 -0.4786  0.1108 -0.9689
 7313TIP3    H243355   2.515   6.799  11.588  4.8421  0.5722 -2.6804
 7314TIP3   OH243356   2.828   1.421  15.903  0.2485  0.1351  0.2198
 7314TIP3    H143357   2.857   1.397  15.815 -1.1545 -1.2235  0.0931
 7314TIP3    H243358   2.833   1.340  15.953 -1.3417  0.3005  0.7130
 7315TIP3   OH243359   3.221   1.842  12.036 -0.0499 -0.3963  0.2788
 7315TIP3    H143360   3.154   1.835  11.968 -0.6148  0.6401  0.7070
 7315TIP3    H243361   3.189   1.911  12.094  1.1417 -0.2364  0.7757
 7316TIP3   OH243362   1.829   0.634  15.734 -0.1162 -0.5150  0.7751
 7316TIP3    H143363   1.832   0.698  15.806  1.5360 -0.2675  0.5267
 7316TIP3    H243364   1.792   0.682  15.660  0.2535 -0.1063  0.8505
 7317TIP3   OH243365   5.001   3.895   5.822  0.9922 -0.0901  0.3831
 7317TIP3    H143366   4.950   3.974   5.839  1.7571  0.5325 -0.1601
 7317TIP3    H243367   5.060   3.888   5.897  1.2448  0.1080  0.2001
 7318TIP3   OH243368   0.466   3.964   3.884 -0.5160  0.4815  0.0292
 7318TIP3    H143369   0.470   3.984   3.791 -0.9005  1.1489  0.1517
 7318TIP3    H243370   0.407   3.888   3.889 -1.2090  0.9940 -0.1935
 7319TIP3   OH243371   3.214   0.489   4.068 -0.0056 -0.2975 -0.5999
 7319TIP3    H143372   3.231   0.573   4.026 -1.7189  0.2556 -0.2585
 7319TIP3    H243373   3.134   0.503   4.118  0.3978 -1.7726  0.5260
 7320TIP3   OH243374   0.801   2.142  12.727 -0.0044 -0.5749  0.7487
 7320TIP3    H143375   0.787   2.071  12.664  1.0009  1.5037 -1.9967
 7320TIP3    H243376   0.896   2.153  12.731 -0.1454  0.9389  0.6873
 7321TIP3   OH243377   1.509   3.830  12.341 -0.3066 -0.4029  0.0771
 7321TIP3    H143378   1.497   3.736  12.351 -1.4676 -0.1516  1.2786
 7321TIP3    H243379   1.517   3.863  12.430 -2.5426  0.9468 -0.1370
 7322TIP3   OH243380   5.137   5.888   3.875 -0.3160 -0.2870  0.2695
 7322TIP3    H143381   5.045   5.907   3.855 -0.4969 -0.8559  0.5360
 7322TIP3    H243382   5.160   5.952   3.943 -0.6548 -0.4332  0.5294
 7323TIP3   OH243383   5.240   0.960   2.596 -0.2147 -0.9327 -0.4051
 7323TIP3    H143384   5.184   0.940   2.521  0.9135  3.1502 -2.6895
 7323TIP3    H243385   5.325   0.923   2.573  0.1348  0.3244 -1.3181
 7324TIP3   OH243386   3.154   4.428   2.042 -0.0427 -0.8131  0.6390
 7324TIP3    H143387   3.239   4.386   2.027 -1.3334 -3.0089 -1.3187
 7324TIP3    H243388   3.123   4.391   2.125  0.2716 -1.2112  0.5829
 7325TIP3   OH243389   4.960   0.979   0.897  0.2109 -0.4800  0.2153
 7325TIP3    H143390   4.871   0.976   0.934 -0.1150 -3.2796 -0.5460
 7325TIP3    H243391   4.946   0.971   0.803  1.2780 -0.2396  0.0283
 7326TIP3   OH243392   2.329   2.245  15.619  0.1599 -0.3988  0.0521
 7326TIP3    H143393   2.364   2.242  15.708 -0.5697 -1.3262  0.3102
 7326TIP3    H243394   2.287   2.331  15.613  1.1152  0.0982  0.2437
 7327TIP3   OH243395   6.301   0.894   0.444  0.0646  0.1056 -0.2548
 7327TIP3    H143396   6.369   0.875   0.378  0.5665 -0.0247  0.2938
 7327TIP3    H243397   6.345   0.880   0.528 -0.6841 -0.0913  0.1035
 7328TIP3   OH243398   3.664   2.422   3.940 -0.3110  0.4640  0.4501
 7328TIP3    H143399   3.670   2.328   3.957 -0.0904  0.4055  0.0726
 7328TIP3    H243400   3.716   2.435   3.860 -0.0881  0.9499  0.6693
 7329TIP3   OH243401   1.442   5.197  16.352  0.1696  0.0486  0.1552
 7329TIP3    H143402   1.490   5.123  16.314  0.1799 -0.4613  1.1256
 7329TIP3    H243403   1.412   5.248  16.277  1.8391  0.1336 -0.4959
 7330TIP3   OH243404   1.921   2.992  12.741 -0.0816  0.5061 -0.0168
 7330TIP3    H143405   1.989   2.984  12.675  1.1488  0.5831  1.1950
 7330TIP3    H243406   1.882   3.078  12.726  1.8247  1.5881  0.7973
 7331TIP3   OH243407   0.157   3.500  12.589 -0.2663  0.1806 -0.0377
 7331TIP3    H143408   0.169   3.544  12.673 -0.9380 -1.0275  0.7255
 7331TIP3    H243409   0.175   3.408  12.607 -0.0488 -0.0475 -1.3156
 7332TIP3   OH243410   1.451   1.555  16.257  0.1818  0.3552  0.2826
 7332TIP3    H143411   1.379   1.584  16.201  1.9462  1.4395 -1.5661
 7332TIP3    H243412   1.517   1.624  16.248  1.4253 -0.5705  1.9545
 7333TIP3   OH243413   1.772   4.746  13.532  0.0978  0.7583 -0.0939
 7333TIP3    H143414   1.726   4.680  13.480  0.5738 -0.0266  0.4579
 7333TIP3    H243415   1.817   4.800  13.466  1.9479 -1.1558 -0.5190
 7334TIP3   OH243416   3.749   5.762  14.813 -0.4742  0.2000  0.0318
 7334TIP3    H143417   3.717   5.676  14.787  0.4362  0.2961 -1.4800
 7334TIP3    H243418   3.792   5.746  14.897  1.0676 -1.1550 -0.9621
 7335TIP3   OH243419   5.172   4.907   4.480  0.0952 -0.1724  0.8372
 7335TIP3    H143420   5.143   4.827   4.523 -1.2045 -0.1605  0.0495
 7335TIP3    H243421   5.095   4.964   4.480  0.8938  0.9465  1.0572
 7336TIP3   OH243422   0.857   0.806   4.394 -0.5471 -0.0038  0.3850
 7336TIP3    H143423   0.876   0.851   4.311 -0.6251 -1.7358 -0.6206
 7336TIP3    H243424   0.928   0.833   4.452  0.4552 -0.0380 -0.7690
 7337TIP3   OH243425   6.417   6.590  13.266 -0.5993 -0.4182  0.1298
 7337TIP3    H143426   6.366   6.571  13.345 -1.9278 -0.1307 -0.6240
 7337TIP3    H243427   6.353   6.626  13.205  0.5558  0.0998 -0.8136
 7338TIP3   OH243428   5.123   0.638   0.706 -0.5502 -0.0613  0.0150
 7338TIP3    H143429   5.027   0.633   0.705 -0.6921  1.4263  1.5487
 7338TIP3    H243430   5.142   0.731   0.697  0.7016 -0.1986  1.0031
 7339TIP3   OH243431   2.508   2.210   6.513 -0.4930  0.0463 -0.3408
 7339TIP3    H143432   2.527   2.273   6.443 -0.1252  1.7282  1.2198
 7339TIP3    H243433   2.580   2.146   6.507 -0.0490  0.5964 -1.0219
 7340TIP3   OH243434   1.288   0.131  16.940  0.0228 -0.3782 -0.2549
 7340TIP3    H143435   1.360   0.179  16.981  1.0780 -2.4964  0.4998
 7340TIP3    H243436   1.209   0.161  16.987  0.3256  2.0916 -1.2109
 7341TIP3   OH243437   6.143   3.597   0.457  0.4720 -0.4844 -0.1554
 7341TIP3    H143438   6.156   3.540   0.533  1.6113 -0.8188 -0.5723
 7341TIP3    H243439   6.085   3.547   0.399  0.9634 -0.9621 -0.2442
 7342TIP3   OH243440   3.788   4.265   1.011  0.5339 -0.0625 -0.8051
 7342TIP3    H143441   3.857   4.233   1.069 -0.1309  0.8665  0.5555
 7342TIP3    H243442   3.740   4.329   1.064  0.8749  2.0535 -2.9311
 7343TIP3   OH243443   5.884   1.414   4.159  0.0551  0.6379  0.7849
 7343TIP3    H143444   5.907   1.372   4.242  2.8914 -1.9554 -1.0874
 7343TIP3    H243445   5.950   1.481   4.146  0.7397 -0.1768 -0.1227
 7344TIP3   OH243446   5.115   0.708   5.369 -0.1628  0.1595  0.1505
 7344TIP3    H143447   5.139   0.795   5.337 -1.0704  0.1831 -0.4859
 7344TIP3    H243448   5.023   0.716   5.393 -0.0444 -0.4217  0.8306
 7345TIP3   OH243449   2.242   5.921  16.240  0.1603  0.5027  0.1703
 7345TIP3    H143450   2.182   5.854  16.271  0.3836  0.1824 -0.0834
 7345TIP3    H243451   2.329   5.885  16.257  0.2835  0.9261  0.4570
 7346TIP3   OH243452   3.906   1.026   4.793 -0.3180  0.2730  0.2254
 7346TIP3    H143453   3.942   1.081   4.723  0.8579 -0.2582  0.3861
 7346TIP3    H243454   3.856   0.958   4.747  3.0114 -1.9921 -0.4136
 7347TIP3   OH243455   2.844   3.517  13.894 -0.2458  0.0678  0.1413
 7347TIP3    H143456   2.786   3.452  13.935  0.1554  0.6374  1.7002
 7347TIP3    H243457   2.791   3.597  13.890  0.6343  0.8885  2.5307
 7348TIP3   OH243458   5.038   2.371   2.983  0.4216 -0.1617  0.8310
 7348TIP3    H143459   5.116   2.362   3.038  0.6836  0.9740  0.6798
 7348TIP3    H243460   5.068   2.345   2.896  0.2125 -1.2042  1.0547
 7349TIP3   OH243461   2.438   4.631   1.705  0.8476 -0.5571  0.3826
 7349TIP3    H143462   2.342   4.636   1.705  0.7949 -1.2245  1.0930
 7349TIP3    H243463   2.465   4.669   1.622 -0.0029  0.2459  0.4668
 7350TIP3   OH243464   4.853   4.829  13.755 -0.1106  0.3141 -0.2784
 7350TIP3    H143465   4.869   4.850  13.663  0.8060  1.6423  0.1469
 7350TIP3    H243466   4.940   4.820  13.793 -0.4866 -0.6689  0.3693
 7351TIP3   OH243467   4.808   5.970  11.805  0.3408  0.1146  0.0574
 7351TIP3    H143468   4.717   5.972  11.777 -0.3058 -1.6458  1.8006
 7351TIP3    H243469   4.810   6.020  11.886  0.8895 -0.0323  0.1430
 7352TIP3   OH243470   3.846   2.426   1.188 -0.4371 -0.5057  0.7644
 7352TIP3    H143471   3.853   2.413   1.282  0.2164  1.0949  0.9805
 7352TIP3    H243472   3.904   2.360   1.150  1.4432  0.5498  1.6553
 7353TIP3   OH243473   1.980   2.123  12.458  0.2342 -0.2247  0.4887
 7353TIP3    H143474   2.020   2.139  12.544  2.7597 -2.0135 -0.2423
 7353TIP3    H243475   2.054   2.105  12.400 -1.4309  0.4505 -2.0035
 7354TIP3   OH243476   5.563   4.806   3.632 -0.3925 -0.0097  0.5011
 7354TIP3    H143477   5.549   4.794   3.539  1.9831 -0.4353  0.1310
 7354TIP3    H243478   5.509   4.739   3.674 -0.5188 -0.6471 -0.6458
 7355TIP3   OH243479   6.510   1.627  13.839  0.2984 -0.0706 -0.0935
 7355TIP3    H143480   6.441   1.637  13.904 -0.0697  0.3043 -0.5271
 7355TIP3    H243481   6.464   1.594  13.761  0.5429  0.4997 -0.4883
 7356TIP3   OH243482   3.172   4.553   5.137  0.5313  0.0468 -0.0843
 7356TIP3    H143483   3.197   4.638   5.099 -0.6330  0.2851 -0.3876
 7356TIP3    H243484   3.089   4.571   5.181 -1.1399 -1.4411 -2.3780
 7357TIP3   OH243485   4.001   0.649   3.879 -0.4833  0.2279  0.3121
 7357TIP3    H143486   3.977   0.609   3.962 -1.1860  1.7590  0.8862
 7357TIP3    H243487   3.950   0.603   3.814 -2.5132  1.1896  1.1385
 7358TIP3   OH243488   4.532   1.277   4.758 -0.1814  0.6371  0.1439
 7358TIP3    H143489   4.624   1.301   4.760 -0.3353  1.2843  2.8716
 7358TIP3    H243490   4.489   1.352   4.716  0.5652 -0.2578 -2.4665
 7359TIP3   OH243491   5.419   1.013  15.325 -0.2215  0.5768 -0.3177
 7359TIP3    H143492   5.428   1.041  15.233 -1.9164  1.1540 -0.3579
 7359TIP3    H243493   5.328   1.034  15.347  0.2223  0.6934  1.5891
 7360TIP3   OH243494   6.711   2.633   4.081  0.2906  0.1862  0.9087
 7360TIP3    H143495   6.689   2.725   4.072 -3.6298 -0.5464  1.4754
 7360TIP3    H243496   6.668   2.590   4.007 -1.3532 -1.5746  2.7629
 7361TIP3   OH243497   6.007   6.740  15.215  0.0462 -0.5602  0.1333
 7361TIP3    H143498   6.068   6.802  15.254  1.1510 -0.7787 -1.1254
 7361TIP3    H243499   5.996   6.672  15.281  0.9280 -0.3470  0.5107
 7362TIP3   OH243500   1.161   0.716  14.877 -0.0677 -0.8961  0.3144
 7362TIP3    H143501   1.159   0.811  14.890 -1.3670 -0.8495 -0.1203
 7362TIP3    H243502   1.120   0.679  14.956  0.1526 -1.0829  0.3437
 7363TIP3   OH243503   4.553   5.856   1.556  0.3325 -0.3638  0.0380
 7363TIP3    H143504   4.613   5.812   1.497  0.4275  0.4456 -0.4847
 7363TIP3    H243505   4.468   5.817   1.537  0.1168  0.8176 -1.6236
 7364TIP3   OH243506   3.421   6.786  14.714 -0.5052  0.0005 -0.1822
 7364TIP3    H143507   3.384   6.720  14.655 -1.5223  0.1934  0.2039
 7364TIP3    H243508   3.462   6.850  14.656 -0.5855 -0.3458 -0.6266
 7365TIP3   OH243509   2.139   1.571  13.427 -0.0032 -0.7512 -0.3092
 7365TIP3    H143510   2.151   1.613  13.513  0.6299 -0.0763 -0.7171
 7365TIP3    H243511   2.215   1.598  13.376 -0.2890 -1.2856 -1.0344
 7366TIP3   OH243512   6.519   0.712   0.405 -0.3621 -0.2282 -0.1642
 7366TIP3    H143513   6.573   0.674   0.473 -0.3424  0.3260  0.1361
 7366TIP3    H243514   6.433   0.670   0.415  0.0402 -1.2319 -0.7502
 7367TIP3   OH243515   2.097   4.536  11.462  0.1837  0.1043 -0.1757
 7367TIP3    H143516   2.091   4.563  11.370 -0.1373 -0.4227 -0.3111
 7367TIP3    H243517   2.137   4.449  11.459 -1.8729 -0.9023  0.0051
 7368TIP3   OH243518   6.244   0.310  15.479  0.2045 -0.2701 -0.2663
 7368TIP3    H143519   6.220   0.252  15.551  2.2097 -0.9665 -0.0844
 7368TIP3    H243520   6.222   0.260  15.400 -2.1801  0.5737 -0.2035
 7369TIP3   OH243521   0.302   3.695   4.967  0.7555 -0.8461 -0.7338
 7369TIP3    H143522   0.326   3.739   5.049  1.5862 -0.9815 -0.9005
 7369TIP3    H243523   0.246   3.623   4.995 -2.2623  1.3581 -0.5791
 7370TIP3   OH243524   3.978   5.725  11.287 -0.2471  0.4254  0.7718
 7370TIP3    H143525   4.009   5.640  11.254 -1.6448  0.4739 -0.7762
 7370TIP3    H243526   4.043   5.788  11.256  1.9620 -0.1769  3.6492
 7371TIP3   OH243527   3.095   5.104   2.614 -0.2937 -0.5080 -0.4918
 7371TIP3    H143528   3.056   5.142   2.535  0.8453 -0.5981 -1.1155
 7371TIP3    H243529   3.072   5.165   2.684  0.1655  0.4957 -1.2044
 7372TIP3   OH243530   3.895   3.020   4.976 -0.2775 -0.3582  0.1194
 7372TIP3    H143531   3.842   3.036   4.898 -0.1246  0.3821  0.1581
 7372TIP3    H243532   3.838   2.969   5.033 -1.4018  1.3747  0.6288
 7373TIP3   OH243533   0.091   0.947  12.990 -0.3553 -0.4503 -1.0863
 7373TIP3    H143534   0.164   1.006  12.970 -1.0160 -0.0453 -2.4152
 7373TIP3    H243535   0.114   0.909  13.075  0.5904  0.9165 -0.6994
 7374TIP3   OH243536   3.648   3.957  15.120  0.3756 -0.3028 -0.5505
 7374TIP3    H143537   3.566   3.926  15.158  0.4732 -0.2042 -0.2553
 7374TIP3    H243538   3.709   3.960  15.194  0.2336  1.0851 -0.4548
 7375TIP3   OH243539   4.446   0.397   6.016  0.3256 -0.1305  0.3859
 7375TIP3    H143540   4.373   0.354   6.062  0.9734 -3.5848 -1.4708
 7375TIP3    H243541   4.518   0.397   6.079  0.1115 -1.2530  0.6480
 7376TIP3   OH243542   0.425   6.116   0.378  0.0535  0.0716  0.3203
 7376TIP3    H143543   0.466   6.164   0.306  0.4528  0.2237  0.6447
 7376TIP3    H243544   0.476   6.035   0.385 -1.1087 -0.7839 -0.7449
 7377TIP3   OH243545   0.406   2.909  15.422  0.3058 -0.0608 -0.8520
 7377TIP3    H143546   0.337   2.942  15.479  2.4454  0.2676  1.7212
 7377TIP3    H243547   0.475   2.975  15.426  2.8935 -2.6204  0.9192
 7378TIP3   OH243548   4.484   6.570   1.104 -0.0335  0.2941  0.7417
 7378TIP3    H143549   4.493   6.605   1.016  0.4353  1.6542  1.2954
 7378TIP3    H243550   4.556   6.611   1.153  1.1671 -2.2111  1.2353
 7379TIP3   OH243551   5.006   5.974  13.612 -0.0122 -0.0484 -0.0093
 7379TIP3    H143552   5.010   5.925  13.694 -0.8737 -1.7157 -0.9099
 7379TIP3    H243553   4.949   6.048  13.631 -0.5246 -0.6380  0.8109
 7380TIP3   OH243554   6.517   5.077  15.842  0.1312 -0.1374  0.0340
 7380TIP3    H143555   6.429   5.099  15.811  0.5779  0.7627 -0.6372
 7380TIP3    H243556   6.539   4.996  15.796  0.7243  1.0927 -1.9696
 7381TIP3   OH243557   6.164   4.267   2.530 -0.1313 -0.3272  0.0103
 7381TIP3    H143558   6.200   4.267   2.442 -0.2476 -0.1456 -0.0399
 7381TIP3    H243559   6.204   4.192   2.574 -0.2534 -0.5544 -0.2703
 7382TIP3   OH243560   6.499   4.322  15.505 -0.3311 -0.3775 -0.3242
 7382TIP3    H143561   6.547   4.279  15.434 -1.6502  0.9216 -2.0790
 7382TIP3    H243562   6.423   4.267  15.520 -0.7138  0.0116 -0.8186
 7383TIP3   OH243563   3.390   2.472  13.746 -0.3269  0.2056 -0.0122
 7383TIP3    H143564   3.424   2.396  13.794  2.2567  0.1879 -1.7078
 7383TIP3    H243565   3.339   2.434  13.675  2.4134 -0.1894 -1.9417
 7384TIP3   OH243566   4.202   4.313  17.146 -0.2799  0.0447  0.1394
 7384TIP3    H143567   4.270   4.368  17.186  1.6618 -1.9524 -0.2461
 7384TIP3    H243568   4.126   4.324  17.203  0.8218  1.2026  1.4619
 7385TIP3   OH243569   2.928   0.777  14.768 -0.0094  0.2662  0.0429
 7385TIP3    H143570   2.920   0.752  14.676  0.6584  0.0832  0.0281
 7385TIP3    H243571   2.859   0.842  14.781  0.5536  1.0816 -0.8667
 7386TIP3   OH243572   5.115   3.563  12.942  0.3192 -0.2951  0.2262
 7386TIP3    H143573   5.099   3.469  12.948  0.0195 -0.2533  0.1330
 7386TIP3    H243574   5.169   3.584  13.018 -0.7802 -0.3104  1.0482
 7387TIP3   OH243575   3.141   3.733   5.793  0.2146  0.7741 -0.2099
 7387TIP3    H143576   3.052   3.708   5.767  0.7322 -0.0928 -1.2385
 7387TIP3    H243577   3.176   3.655   5.837  0.7370  0.8325 -0.5179
 7388TIP3   OH243578   4.679   4.503   1.506  0.3663  0.0732 -0.1466
 7388TIP3    H143579   4.768   4.539   1.499  0.5371 -0.1638  0.6883
 7388TIP3    H243580   4.667   4.487   1.600 -0.3328 -0.4714 -0.3212
 7389TIP3   OH243581   6.449   6.633  12.924  0.2929  0.1687 -0.0272
 7389TIP3    H143582   6.438   6.709  12.981 -3.4205  1.0003 -1.5557
 7389TIP3    H243583   6.380   6.573  12.951 -0.1708 -0.3356 -2.1711
 7390TIP3   OH243584   0.126   0.675  15.777 -0.1248  0.2028  0.6822
 7390TIP3    H143585   0.128   0.580  15.768 -1.0540  0.3678 -2.0153
 7390TIP3    H243586   0.168   0.692  15.862  3.7517 -2.3547 -0.4665
 7391TIP3   OH243587   5.860   3.388  17.154  0.2383  0.0950  0.3318
 7391TIP3    H143588   5.831   3.301  17.129  0.3371 -0.5588  2.3490
 7391TIP3    H243589   5.895   3.378  17.243 -1.8787  2.5723  1.5839
 7392TIP3   OH243590   0.634   0.253  12.950  0.4687  0.2035  0.2314
 7392TIP3    H143591   0.598   0.295  12.871 -0.1238 -0.3003  0.2231
 7392TIP3    H243592   0.584   0.292  13.022 -0.1843 -0.5650  0.2129
 7393TIP3   OH243593   5.622   6.398  12.926 -0.0889 -0.2395  0.6232
 7393TIP3    H143594   5.646   6.326  12.984  0.3144  0.8998  1.9014
 7393TIP3    H243595   5.546   6.365  12.877 -0.0364 -1.4553  1.3226
 7394TIP3   OH243596   0.127   6.596  13.550  0.2282 -0.0502 -0.0252
 7394TIP3    H143597   0.041   6.609  13.511  0.0091  0.7370  0.6830
 7394TIP3    H243598   0.119   6.515  13.601  0.4219 -0.9009 -1.3113
 7395TIP3   OH243599   3.490   2.633   5.172 -0.0047  0.1740  0.3170
 7395TIP3    H143600   3.562   2.694   5.156  0.4951 -0.9334 -2.1922
 7395TIP3    H243601   3.526   2.547   5.150 -2.4837 -0.2445 -2.8352
 7396TIP3   OH243602   2.343   5.488   5.640 -0.2690 -0.2832  0.2440
 7396TIP3    H143603   2.290   5.442   5.574 -0.0419 -2.0419  1.2214
 7396TIP3    H243604   2.430   5.450   5.631 -0.2874 -0.7196  1.6657
 7397TIP3   OH243605   0.402   5.040   3.240 -0.6745  0.0302 -0.1832
 7397TIP3    H143606   0.460   5.099   3.288 -0.7461  0.1548 -0.2493
 7397TIP3    H243607   0.362   5.096   3.172 -1.1795  0.0371  0.1194
 7398TIP3   OH243608   3.299   5.688  15.034  0.2886 -0.4476 -0.1484
 7398TIP3    H143609   3.211   5.650  15.042  0.2789 -0.3266  0.3570
 7398TIP3    H243610   3.357   5.613  15.026  0.0492 -0.5113 -1.5456
 7399TIP3   OH243611   3.952   2.195  11.479 -0.0628 -0.2482  0.0015
 7399TIP3    H143612   3.884   2.257  11.450 -1.7766 -1.5559  1.0339
 7399TIP3    H243613   3.986   2.234  11.559  1.0109  0.7941 -0.9182
 7400TIP3   OH243614   0.605   5.365  12.297 -0.1870  0.1019 -0.3404
 7400TIP3    H143615   0.640   5.324  12.218  0.9301  0.9380 -0.3002
 7400TIP3    H243616   0.510   5.370  12.282 -0.3277 -2.2044 -0.4460
 7401TIP3   OH243617   0.463   6.771   1.058 -0.4000  0.1768  0.2662
 7401TIP3    H143618   0.471   6.692   1.004 -0.4494  0.0510  0.4415
 7401TIP3    H243619   0.393   6.821   1.017  1.1568  1.2334 -1.2029
 7402TIP3   OH243620   1.599   6.525   1.401 -0.2272 -0.2901  0.0379
 7402TIP3    H143621   1.535   6.464   1.365  0.5459  0.2167 -2.4573
 7402TIP3    H243622   1.548   6.589   1.449 -1.4015 -0.9625 -0.2873
 7403TIP3   OH243623   2.529   3.826   1.575  0.1744 -0.2237 -0.3387
 7403TIP3    H143624   2.494   3.901   1.624  1.0050  1.1315 -1.6900
 7403TIP3    H243625   2.526   3.855   1.484  0.6914 -1.7986 -0.8868
 7404TIP3   OH243626   3.895   6.743   2.062  0.2776  0.0347  0.3849
 7404TIP3    H143627   3.962   6.795   2.017  0.3010  0.6283  1.0751
 7404TIP3    H243628   3.842   6.706   1.992  0.5312  0.6431 -0.1422
 7405TIP3   OH243629   0.060   3.405  13.937  0.0172  0.3115 -0.5311
 7405TIP3    H143630   0.038   3.484  13.985  2.0157 -0.1407  1.3176
 7405TIP3    H243631   0.129   3.364  13.989  0.2691 -1.7552 -2.3311
 7406TIP3   OH243632   5.992   1.649   1.124  0.4987  0.1198 -0.4270
 7406TIP3    H143633   5.963   1.559   1.114  1.7260 -0.2662 -0.6788
 7406TIP3    H243634   5.918   1.702   1.095 -0.6638 -0.7632  0.7937
 7407TIP3   OH243635   2.587   0.327  17.046  0.2630  0.6561  0.3999
 7407TIP3    H143636   2.591   0.232  17.042 -0.5570  0.6320  0.1276
 7407TIP3    H243637   2.663   0.352  17.100  0.2742 -0.1654  0.7700
 7408TIP3   OH243638   3.645   3.709  11.322 -0.1346 -0.5644  0.0234
 7408TIP3    H143639   3.581   3.733  11.255 -0.0799 -0.5447 -0.0216
 7408TIP3    H243640   3.713   3.663  11.274 -0.0687 -0.5024  0.0576
 7409TIP3   OH243641   3.393   1.379   5.226 -0.0207  0.1664 -0.3345
 7409TIP3    H143642   3.326   1.311   5.217  0.8261 -0.6116 -0.8417
 7409TIP3    H243643   3.468   1.346   5.178  1.0381  0.6581  0.9288
 7410TIP3   OH243644   5.865   6.028   0.622 -0.1131 -0.2813  0.5542
 7410TIP3    H143645   5.896   5.945   0.586 -0.1404  0.4442 -1.2567
 7410TIP3    H243646   5.782   6.043   0.576  0.6163  1.4436 -0.2636
 7411TIP3   OH243647   2.671   0.963  15.736  0.4634  0.3350 -0.3395
 7411TIP3    H143648   2.720   1.044  15.726  0.5487  0.1388 -1.6717
 7411TIP3    H243649   2.728   0.896  15.700 -0.0331 -0.1718 -0.2002
 7412TIP3   OH243650   3.772   6.088   2.124  0.0158 -0.3804 -0.8776
 7412TIP3    H143651   3.741   6.091   2.215  3.4581  3.0236  0.4570
 7412TIP3    H243652   3.866   6.076   2.132  0.7554  2.2454 -3.8048
 7413TIP3   OH243653   6.228   4.178   1.370 -0.6719  0.2043 -0.5111
 7413TIP3    H143654   6.240   4.142   1.282 -0.7101  0.0923 -0.4705
 7413TIP3    H243655   6.265   4.266   1.365  0.0097 -0.0731 -0.4381
 7414TIP3   OH243656   0.868   6.167  11.788 -0.4632  0.1852 -0.1267
 7414TIP3    H143657   0.954   6.208  11.802 -0.5177  0.0364  0.7343
 7414TIP3    H243658   0.806   6.240  11.795 -0.4188  0.2621 -0.5489
 7415TIP3   OH243659   0.386   6.492   4.618  0.0481 -0.0777  0.6817
 7415TIP3    H143660   0.316   6.437   4.652 -0.0336  0.3773  1.2747
 7415TIP3    H243661   0.342   6.572   4.589  0.1883 -0.2350  0.0333
 7416TIP3   OH243662   5.459   3.583   1.847 -0.0625 -0.4679 -0.9420
 7416TIP3    H143663   5.536   3.636   1.867  1.5296 -2.0424 -2.4464
 7416TIP3    H243664   5.469   3.504   1.901 -1.7769  0.1637  0.4023
 7417TIP3   OH243665   1.573   3.756   4.735  0.3278 -0.0330 -0.1442
 7417TIP3    H143666   1.611   3.844   4.735  0.2731 -0.0020 -1.0684
 7417TIP3    H243667   1.581   3.726   4.825 -1.7573  1.8262  0.7648
 7418TIP3   OH243668   0.965   5.150   3.871 -0.0309 -0.2757 -0.2917
 7418TIP3    H143669   0.983   5.190   3.786 -1.7000 -1.7725 -1.4301
 7418TIP3    H243670   0.870   5.154   3.880  0.1194 -0.1345  1.5339
 7419TIP3   OH243671   6.512   2.146   3.581 -0.0383 -0.2362 -0.1061
 7419TIP3    H143672   6.457   2.150   3.660  0.4458 -2.3156  0.4260
 7419TIP3    H243673   6.549   2.233   3.573  2.5183 -0.6855  3.9871
 7420TIP3   OH243674   3.655   6.788  15.256  0.0740  0.4654 -0.0724
 7420TIP3    H143675   3.565   6.763  15.278  0.5635 -0.5455  0.8506
 7420TIP3    H243676   3.701   6.705  15.241  1.0174  0.9354  0.1372
 7421TIP3   OH243677   2.518   4.842  13.952 -0.4720  0.1196  0.2920
 7421TIP3    H143678   2.585   4.907  13.974 -0.2643  0.4522 -1.1814
 7421TIP3    H243679   2.499   4.797  14.034  1.5546  0.0226  0.7553
 7422TIP3   OH243680   2.744   4.233  16.304 -0.3769 -0.0185  0.7584
 7422TIP3    H143681   2.740   4.308  16.245 -0.5085  0.7730  1.7534
 7422TIP3    H243682   2.655   4.223  16.337 -0.0338  0.3657  1.8207
 7423TIP3   OH243683   0.309   0.940  15.266 -0.0026  0.0250 -0.6241
 7423TIP3    H143684   0.256   1.015  15.291  3.8620  2.5820  1.0038
 7423TIP3    H243685   0.341   0.961  15.178 -0.1531 -0.5413 -0.8208
 7424TIP3   OH243686   4.687   5.409  16.822 -0.3693  0.5707  0.1630
 7424TIP3    H143687   4.664   5.319  16.847  1.2201 -0.5340 -2.0245
 7424TIP3    H243688   4.612   5.438  16.769  0.1521 -0.4365 -1.1851
 7425TIP3   OH243689   5.428   0.325   1.152  0.4711 -0.0292  0.3828
 7425TIP3    H143690   5.374   0.278   1.216  0.2631 -0.7618 -0.3147
 7425TIP3    H243691   5.449   0.259   1.086 -0.1157  0.9471 -0.8163
 7426TIP3   OH243692   3.592   2.569  11.327  0.3125 -0.1407  0.0057
 7426TIP3    H143693   3.580   2.612  11.412  0.9955 -0.6320  0.3571
 7426TIP3    H243694   3.536   2.492  11.331 -0.5389  0.4389 -0.4395
 7427TIP3   OH243695   1.163   2.045  14.471  0.0884 -0.8861 -0.1983
 7427TIP3    H143696   1.237   2.076  14.419 -0.4438 -2.5700 -2.0575
 7427TIP3    H243697   1.161   1.950  14.457 -2.2036 -0.9391  0.1002
 7428TIP3   OH243698   5.467   1.739  13.935 -0.0301 -0.2540 -0.0157
 7428TIP3    H143699   5.474   1.791  14.015  1.9825 -1.3733  0.6063
 7428TIP3    H243700   5.455   1.650  13.965  1.0808 -0.7418 -0.9218
 7429TIP3   OH243701   4.413   2.642   0.723  0.0115  0.4547  0.1380
 7429TIP3    H143702   4.367   2.616   0.803  0.9871 -0.4738  0.4211
 7429TIP3    H243703   4.405   2.566   0.665  0.6366  0.5198 -0.0395
 7430TIP3   OH243704   3.534   2.050  14.035 -0.1983  0.4757  0.3012
 7430TIP3    H143705   3.515   2.117  13.969 -0.8275 -1.7888 -1.9900
 7430TIP3    H243706   3.592   1.988  13.990  1.1166 -0.0727  2.6311
 7431TIP3   OH243707   1.502   4.354  13.838 -0.3749  0.2662  0.6863
 7431TIP3    H143708   1.460   4.268  13.828 -1.2849  0.7973 -0.2090
 7431TIP3    H243709   1.588   4.343  13.798 -1.2240  0.2937 -1.2411
 7432TIP3   OH243710   6.729   3.268   4.021 -0.0844  0.3273 -0.3374
 7432TIP3    H143711   6.787   3.246   4.093  1.3677  0.7739 -1.3323
 7432TIP3    H243712   6.668   3.332   4.057 -0.5677 -0.8234  0.9618
 7433TIP3   OH243713   3.990   3.254   6.330 -0.0359  0.1386  0.2898
 7433TIP3    H143714   4.025   3.263   6.419 -0.3967  1.0111  0.3556
 7433TIP3    H243715   3.937   3.174   6.333 -0.7727  0.6345  1.1163
 7434TIP3   OH243716   6.768   5.658   5.218 -0.4526 -0.6624 -0.4820
 7434TIP3    H143717   6.720   5.618   5.291 -0.4229 -0.5765 -0.4145
 7434TIP3    H243718   6.716   5.734   5.193  0.6662  0.6445  0.9543
 7435TIP3   OH243719   5.874   5.771  12.649  0.0232  0.4518 -0.0645
 7435TIP3    H143720   5.815   5.703  12.616  1.5126 -0.6773 -0.5195
 7435TIP3    H243721   5.816   5.843  12.674 -1.6299 -1.0606  0.6538
 7436TIP3   OH243722   1.747   6.621   2.388  0.1273 -0.1692  0.0038
 7436TIP3    H143723   1.680   6.554   2.373 -0.5883  0.7425 -1.1036
 7436TIP3    H243724   1.698   6.703   2.390  0.8935  0.2809  2.1313
 7437TIP3   OH243725   3.770   5.605   2.942 -0.5878 -0.6210 -0.7356
 7437TIP3    H143726   3.693   5.581   2.993  0.0026  0.0224  0.5070
 7437TIP3    H243727   3.844   5.586   2.999  0.0124  2.3070 -0.3690
 7438TIP3   OH243728   5.151   1.099  15.043 -0.0071 -0.0501 -0.2864
 7438TIP3    H143729   5.159   1.191  15.070  0.4034 -0.2214  0.1802
 7438TIP3    H243730   5.241   1.070  15.031 -0.0792 -0.7838  0.8971
 7439TIP3   OH243731   5.338   6.230   4.747  0.0385 -0.2721  0.2966
 7439TIP3    H143732   5.255   6.203   4.787  0.5462  0.0926  1.6341
 7439TIP3    H243733   5.404   6.174   4.788  0.3798 -1.3004 -1.5253
 7440TIP3   OH243734   6.755   6.094  13.188 -0.2735  0.3648  0.1197
 7440TIP3    H143735   6.796   6.174  13.156 -0.6854  0.2581 -0.6952
 7440TIP3    H243736   6.752   6.105  13.283 -0.0651  1.1838  0.0407
 7441TIP3   OH243737   5.937   1.907   0.818  0.4938 -0.3907 -0.0242
 7441TIP3    H143738   5.896   1.982   0.776  0.9776  0.4743  0.9912
 7441TIP3    H243739   5.982   1.861   0.748  2.3179  1.6905 -0.3074
 7442TIP3   OH243740   0.997   3.921  13.537  0.3549 -0.1695 -0.3037
 7442TIP3    H143741   0.916   3.970  13.521  0.0740  0.1536  1.8668
 7442TIP3    H243742   1.060   3.958  13.474 -0.6792  0.8419 -0.7777
 7443TIP3   OH243743   4.252   3.151  15.418 -0.0371 -0.4382 -0.6732
 7443TIP3    H143744   4.286   3.172  15.330 -0.9726  0.0403 -0.9299
 7443TIP3    H243745   4.276   3.227  15.471  2.5974 -1.7004  0.1086
 7444TIP3   OH243746   0.757   0.526   0.960 -0.1913 -0.1635 -0.7944
 7444TIP3    H143747   0.758   0.621   0.953 -1.5901 -0.0816 -0.1979
 7444TIP3    H243748   0.850   0.500   0.956  0.1692  1.1574 -1.5471
 7445TIP3   OH243749   0.884   3.282  11.610  0.0216  0.6122  0.5875
 7445TIP3    H143750   0.813   3.242  11.559  0.7993  0.1225 -0.1506
 7445TIP3    H243751   0.960   3.225  11.594  0.6021  1.1693  1.2849
 7446TIP3   OH243752   1.307   0.757   0.319 -0.1434  0.0302  0.0762
 7446TIP3    H143753   1.388   0.796   0.285  0.1742 -2.3162 -2.1624
 7446TIP3    H243754   1.237   0.799   0.269 -0.1750  0.6012  0.5821
 7447TIP3   OH243755   4.089   1.265   6.645  0.3481 -0.4043 -0.8786
 7447TIP3    H143756   4.031   1.318   6.699  0.3610 -1.3732  0.1235
 7447TIP3    H243757   4.177   1.284   6.676  0.6366  1.1479 -2.4739
 7448TIP3   OH243758   3.764   3.601  16.996  0.6368 -0.0947 -0.1780
 7448TIP3    H143759   3.796   3.524  17.043 -0.2584  0.3215  1.1951
 7448TIP3    H243760   3.746   3.665  17.065 -1.2002  0.3878 -1.0420
 7449TIP3   OH243761   6.059   2.249   0.636 -0.0318 -0.3560  0.3261
 7449TIP3    H143762   6.049   2.186   0.565 -1.1393 -1.2726  1.2567
 7449TIP3    H243763   6.094   2.197   0.709 -0.9827  0.0808  1.1119
 7450TIP3   OH243764   2.120   0.484   2.775  0.1485  0.6130  0.0126
 7450TIP3    H143765   2.201   0.470   2.725  0.1884  1.1863 -0.0920
 7450TIP3    H243766   2.054   0.502   2.709  0.0595  0.7147  0.1298
 7451TIP3   OH243767   0.978   2.254   6.359  0.3575 -0.4575 -0.4409
 7451TIP3    H143768   0.973   2.257   6.263  0.9788 -0.1459 -0.4638
 7451TIP3    H243769   1.070   2.240   6.378 -0.1734 -4.8542  0.0307
 7452TIP3   OH243770   1.180   4.422  16.687 -0.0865 -0.2240  0.3161
 7452TIP3    H143771   1.185   4.517  16.687  0.8618 -0.2646  0.6853
 7452TIP3    H243772   1.091   4.403  16.716  0.1304  0.5378  1.5259
 7453TIP3   OH243773   3.862   5.128  16.185  0.0267  0.1393  0.2269
 7453TIP3    H143774   3.800   5.058  16.208  0.2795 -0.0146  0.4417
 7453TIP3    H243775   3.814   5.182  16.122 -0.8645  0.8677  1.4986
 7454TIP3   OH243776   6.720   3.282   1.672  0.0549 -0.7274 -0.6687
 7454TIP3    H143777   6.686   3.227   1.601 -1.1611 -0.0634 -0.6285
 7454TIP3    H243778   6.656   3.273   1.742 -0.1760  0.7148 -0.6579
 7455TIP3   OH243779   5.039   0.412   4.825  0.5640  0.2491 -0.2497
 7455TIP3    H143780   5.041   0.345   4.894  0.5007 -0.6500 -1.1071
 7455TIP3    H243781   4.953   0.454   4.836 -0.3922 -1.3706 -1.1234
 7456TIP3   OH243782   2.394   4.780  11.581  0.2630 -0.1541  0.6226
 7456TIP3    H143783   2.382   4.724  11.504  0.2108 -0.4404  0.8389
 7456TIP3    H243784   2.321   4.842  11.577  1.2349  0.9728 -0.5315
 7457TIP3   OH243785   0.727   2.078  10.742  0.4539  0.0852  0.3835
 7457TIP3    H143786   0.774   2.003  10.778  1.8059  0.9414  0.4687
 7457TIP3    H243787   0.790   2.150  10.746  0.4663  0.4234 -2.9916
 7458TIP3   OH243788   5.129   1.651  14.129 -0.8884 -0.3521 -0.3298
 7458TIP3    H143789   5.084   1.734  14.115  0.1992  0.0967 -1.3693
 7458TIP3    H243790   5.154   1.652  14.221 -0.9752  0.4378 -0.3114
 7459TIP3   OH243791   5.192   5.403  16.323  0.0589 -0.1323  0.3138
 7459TIP3    H143792   5.285   5.417  16.305 -0.4829  1.2376 -1.7294
 7459TIP3    H243793   5.183   5.308  16.333  1.9439 -0.1548  2.4579
 7460TIP3   OH243794   4.556   6.200   3.721 -0.3966  0.1200  0.1817
 7460TIP3    H143795   4.482   6.149   3.690 -1.8930  1.4964  1.2955
 7460TIP3    H243796   4.576   6.260   3.650 -0.5522 -0.0493 -0.0034
 7461TIP3   OH243797   2.324   5.605  14.894 -0.1313  0.2281  0.1466
 7461TIP3    H143798   2.259   5.566  14.953 -0.5118  1.0362  0.2708
 7461TIP3    H243799   2.287   5.594  14.806 -1.0046  1.6871  0.2934
 7462TIP3   OH243800   1.666   1.687  14.913  0.1675  0.2406  0.6144
 7462TIP3    H143801   1.681   1.648  14.999 -2.0637  0.3053  1.0917
 7462TIP3    H243802   1.592   1.746  14.927  0.2043  0.7646 -1.2182
 7463TIP3   OH243803   6.061   2.571  12.060 -0.4699 -0.2197 -0.0115
 7463TIP3    H143804   6.089   2.498  12.116 -0.4096 -0.4361 -0.3175
 7463TIP3    H243805   6.014   2.630  12.119 -0.4918 -0.4906  0.2459
 7464TIP3   OH243806   0.283   1.378   5.126  0.6682 -0.0446  0.0760
 7464TIP3    H143807   0.297   1.433   5.203  0.1887  1.4527 -0.8746
 7464TIP3    H243808   0.367   1.334   5.113  1.1535  0.6644  0.6996
 7465TIP3   OH243809   5.538   3.849  16.709  0.5614  0.7500  0.0544
 7465TIP3    H143810   5.571   3.862  16.620  0.1370  1.1055 -0.0549
 7465TIP3    H243811   5.506   3.759  16.710  1.7165  0.3216  0.2270
 7466TIP3   OH243812   0.321   2.899  16.719  0.1808 -0.3658 -0.2127
 7466TIP3    H143813   0.382   2.972  16.729  0.3205 -0.6795  1.4057
 7466TIP3    H243814   0.365   2.839  16.659  0.5471  0.3622 -0.6907
 7467TIP3   OH243815   2.007   2.891   0.653  0.2679  0.3068  0.0952
 7467TIP3    H143816   1.973   2.893   0.742  0.2426 -0.3932  0.1035
 7467TIP3    H243817   2.075   2.824   0.655 -0.7980 -0.8314 -0.7904
 7468TIP3   OH243818   2.122   5.003  13.095  0.2915  0.2096  0.2119
 7468TIP3    H143819   2.171   4.924  13.117 -0.8091 -0.5402  0.0876
 7468TIP3    H243820   2.163   5.073  13.147  0.3144 -0.7386  1.5148
 7469TIP3   OH243821   4.808   2.593   0.171  0.0909  0.4266  0.1186
 7469TIP3    H143822   4.769   2.657   0.230  0.8289  2.1259 -1.1645
 7469TIP3    H243823   4.887   2.563   0.215  0.3676  1.3010  0.2261
 7470TIP3   OH243824   1.229   0.142  13.268  0.0007 -0.0845 -0.2579
 7470TIP3    H143825   1.138   0.163  13.289  0.4236  3.1211 -1.1169
 7470TIP3    H243826   1.230   0.134  13.172  0.8004  1.2388 -0.3847
 7471TIP3   OH243827   0.435   4.773  11.833  0.4178  0.3853  0.3303
 7471TIP3    H143828   0.366   4.818  11.785  0.4180  0.2298  0.1832
 7471TIP3    H243829   0.399   4.763  11.922  0.1985  0.1888  0.2203
 7472TIP3   OH243830   0.714   4.239  11.920  0.5546 -0.0839 -0.1699
 7472TIP3    H143831   0.630   4.263  11.959 -0.5270 -0.1674 -2.3203
 7472TIP3    H243832   0.754   4.180  11.983  1.3050  3.6473  3.2477
 7473TIP3   OH243833   1.930   2.001   1.308 -0.7568  0.0000  0.6068
 7473TIP3    H143834   1.923   2.079   1.363 -1.9318  0.7658 -0.5559
 7473TIP3    H243835   2.024   1.981   1.307 -0.8445 -1.2929  4.4775
 7474TIP3   OH243836   1.032   1.086   1.998 -0.4108 -0.1810 -0.6362
 7474TIP3    H143837   1.126   1.072   2.013 -0.6622  0.6528  2.3417
 7474TIP3    H243838   1.029   1.165   1.944  0.6073  0.1808 -0.2027
 7475TIP3   OH243839   0.741   1.455   3.377  0.3682 -0.3978 -0.3246
 7475TIP3    H143840   0.719   1.492   3.463 -1.9642 -0.5420 -0.7835
 7475TIP3    H243841   0.726   1.361   3.386 -0.1431 -0.3841 -0.9266
 7476TIP3   OH243842   4.023   2.783   0.823 -0.0724  0.5235 -0.6993
 7476TIP3    H143843   4.090   2.844   0.855 -0.7387 -0.2942  2.5693
 7476TIP3    H243844   3.952   2.789   0.887 -1.4099 -1.6124 -1.8587
 7477TIP3   OH243845   3.728   0.683   6.095  0.3200  0.1318 -0.1932
 7477TIP3    H143846   3.665   0.636   6.040 -0.9087 -0.0170  1.2706
 7477TIP3    H243847   3.674   0.736   6.153  1.5949  0.8044  0.4173
 7478TIP3   OH243848   2.121   6.233   2.634  0.2354 -0.0947  0.0297
 7478TIP3    H143849   2.044   6.179   2.647 -1.0347  1.4473 -0.6819
 7478TIP3    H243850   2.188   6.173   2.600 -1.2292 -1.1362 -1.1393
 7479TIP3   OH243851   4.849   5.748   2.119  0.2854  1.0052  0.5256
 7479TIP3    H143852   4.921   5.810   2.127  2.3789 -1.0554 -0.7216
 7479TIP3    H243853   4.886   5.675   2.068 -2.4282 -0.6052  0.6317
 7480TIP3   OH243854   0.255   0.437   0.878 -0.0293  0.0959 -0.2943
 7480TIP3    H143855   0.293   0.402   0.959 -0.0302 -0.8790 -0.7018
 7480TIP3    H243856   0.169   0.395   0.872 -1.2372  2.2482  0.5969
 7481TIP3   OH243857   3.545   5.330   5.056 -0.0638  0.2133  0.2722
 7481TIP3    H143858   3.533   5.306   4.964  0.7853  0.3769  0.1166
 7481TIP3    H243859   3.505   5.418   5.062  1.9695  1.2556 -0.5164
 7482TIP3   OH243860   4.518   1.135   1.854 -0.1572  0.0866  0.1791
 7482TIP3    H143861   4.435   1.169   1.820 -1.3254 -0.9431  1.8482
 7482TIP3    H243862   4.585   1.178   1.801 -1.6532  2.6481  0.2089
 7483TIP3   OH243863   1.144   6.126  17.045 -0.2350 -0.2426 -0.6774
 7483TIP3    H143864   1.082   6.163  17.107  1.5603  0.6429  0.6759
 7483TIP3    H243865   1.145   6.189  16.973 -1.0456 -0.3885 -0.8303
 7484TIP3   OH243866   1.437   6.474   1.710  0.6789  0.1625  0.1609
 7484TIP3    H143867   1.533   6.474   1.699  0.8272  0.8893  1.3072
 7484TIP3    H243868   1.424   6.447   1.800 -0.2227 -0.1168 -0.0474
 7485TIP3   OH243869   2.678   4.671   0.874  0.1046  0.2690 -0.2834
 7485TIP3    H143870   2.755   4.630   0.835 -0.1836 -0.6263  0.0519
 7485TIP3    H243871   2.693   4.666   0.968 -1.1845 -1.6712 -0.1168
 7486TIP3   OH243872   5.976   0.515   3.709  1.0489 -0.0756  0.2273
 7486TIP3    H143873   6.007   0.428   3.734 -0.5585 -1.4335 -2.1142
 7486TIP3    H243874   5.881   0.506   3.702  0.8042  1.9802  0.2382
 7487TIP3   OH243875   3.029   3.926   0.108  0.1942 -0.2143  0.3674
 7487TIP3    H143876   3.069   3.855   0.158  0.0006  0.5271  1.6008
 7487TIP3    H243877   3.020   3.998   0.170 -2.3817 -0.1016 -0.0580
 7488TIP3   OH243878   0.451   5.106   1.231 -0.4027 -0.5423 -0.1068
 7488TIP3    H143879   0.470   5.184   1.180  0.3258 -0.2913  0.5211
 7488TIP3    H243880   0.536   5.063   1.240 -0.1762  0.2400  2.2179
 7489TIP3   OH243881   4.495   2.888   0.089 -0.9050  0.4073 -0.2327
 7489TIP3    H143882   4.493   2.835   0.010 -1.5224 -0.2347  0.2048
 7489TIP3    H243883   4.583   2.926   0.090  0.4876 -2.5465  0.7011
 7490TIP3   OH243884   2.975   6.784  11.184 -0.7554  0.1456  0.2300
 7490TIP3    H143885   3.022   6.821  11.108 -1.9160  1.7352  0.2461
 7490TIP3    H243886   2.890   6.758  11.149 -2.0433  2.6266  1.2669
 7491TIP3   OH243887   0.192   2.366   4.003 -0.2084  0.8607  0.6055
 7491TIP3    H143888   0.117   2.377   4.061 -1.0533 -0.7251 -0.1306
 7491TIP3    H243889   0.237   2.289   4.037  0.0408  0.7080 -0.0524
 7492TIP3   OH243890   1.090   6.416   2.377 -0.1404  0.2031  0.0321
 7492TIP3    H143891   1.101   6.476   2.451  1.9231  0.0877 -0.1128
 7492TIP3    H243892   1.174   6.420   2.330  0.0540 -2.6652 -0.0633
 7493TIP3   OH243893   3.455   3.723  14.715 -1.1304  0.9243 -0.1944
 7493TIP3    H143894   3.390   3.737  14.646 -2.0887 -0.2194  0.4432
 7493TIP3    H243895   3.491   3.810  14.731 -0.3906  1.1463 -2.5643
 7494TIP3   OH243896   5.290   1.595   6.147 -0.0864  0.2165  0.8529
 7494TIP3    H143897   5.242   1.667   6.106 -2.1303 -0.6767  1.5290
 7494TIP3    H243898   5.317   1.630   6.232  0.9465  0.8854  0.2694
 7495TIP3   OH243899   4.291   5.852   4.188  0.0009  0.3440  0.6665
 7495TIP3    H143900   4.206   5.822   4.156  0.7569 -0.9184 -0.2307
 7495TIP3    H243901   4.278   5.861   4.283 -0.6398 -1.6214  0.8091
 7496TIP3   OH243902   6.784   4.164   2.289  0.4438 -0.5038  0.4606
 7496TIP3    H143903   6.864   4.180   2.238  0.8666 -1.5639  0.7553
 7496TIP3    H243904   6.806   4.088   2.344 -0.5443 -0.3821  1.0393
 7497TIP3   OH243905   1.529   5.829  11.025  0.2232  0.4420 -0.1075
 7497TIP3    H143906   1.477   5.794  10.953  0.4545 -1.8481  0.7767
 7497TIP3    H243907   1.489   5.915  11.044 -1.5641 -0.1104 -1.1569
 7498TIP3   OH243908   6.105   6.144  14.958  0.3548 -0.2707  0.0055
 7498TIP3    H143909   6.060   6.070  15.000  1.0145 -1.7232 -1.6965
 7498TIP3    H243910   6.155   6.185  15.029 -0.6027 -0.9943  1.1470
 7499TIP3   OH243911   2.895   2.123   4.889  0.2227  0.2652  0.3510
 7499TIP3    H143912   2.963   2.144   4.952  1.1677  1.0053 -0.8718
 7499TIP3    H243913   2.813   2.143   4.934  0.7653 -0.7958  1.9015
 7500TIP3   OH243914   4.773   4.519   6.722 -0.0154 -0.0688  0.3976
 7500TIP3    H143915   4.796   4.426   6.712  0.8168  0.0752  0.8572
 7500TIP3    H243916   4.774   4.554   6.633 -4.0543 -1.2791 -0.3426
 7501TIP3   OH243917   3.480   2.583   5.704  1.2392  0.3715 -0.4275
 7501TIP3    H143918   3.464   2.553   5.615  1.9285 -4.1848  0.7501
 7501TIP3    H243919   3.393   2.591   5.743  0.9861  1.4376 -1.1570
 7502TIP3   OH243920   4.003   5.397   0.014  0.4092 -0.1976 -0.6021
 7502TIP3    H143921   3.913   5.419  -0.008 -0.6305  0.2097  3.3078
 7502TIP3    H243922   4.010   5.303  -0.002 -0.6967 -0.2323 -0.9493
 7503TIP3   OH243923   5.978   4.717  11.982  0.2177  0.3960  0.3521
 7503TIP3    H143924   5.964   4.668  11.900  2.3988 -0.0237  0.1721
 7503TIP3    H243925   6.005   4.804  11.953  0.6024  0.3664  0.6148
 7504TIP3   OH243926   5.235   5.643   0.788  0.4610  0.8233  0.4129
 7504TIP3    H143927   5.317   5.689   0.768  1.4587 -0.0507  2.1830
 7504TIP3    H243928   5.167   5.710   0.779  1.0634  1.1468 -2.9000
 7505TIP3   OH243929   0.862   6.530   1.618  0.0832 -0.0094  0.3250
 7505TIP3    H143930   0.769   6.517   1.638  0.4948 -3.0397  0.7457
 7505TIP3    H243931   0.878   6.474   1.542  1.9334 -0.9828  1.3725
 7506TIP3   OH243932   1.809   5.957   4.907  0.2186 -0.4521 -0.0991
 7506TIP3    H143933   1.835   5.887   4.966 -0.4139  0.9632  1.9968
 7506TIP3    H243934   1.886   5.974   4.853  0.6281 -2.2030 -0.0999
 7507TIP3   OH243935   2.199   4.083  10.680  0.6297 -0.3458 -0.4968
 7507TIP3    H143936   2.138   4.015  10.652 -0.3563  0.1924  0.2639
 7507TIP3    H243937   2.182   4.156  10.622  0.8830 -0.3519 -0.5808
 7508TIP3   OH243938   5.874   4.395  14.857 -0.3843  0.5549  0.0132
 7508TIP3    H143939   5.957   4.416  14.814  0.5591 -1.9386  0.4484
 7508TIP3    H243940   5.812   4.458  14.822  1.5179  2.0252 -0.8989
 7509TIP3   OH243941   3.840   4.592   3.390  0.1676 -0.0401  0.1719
 7509TIP3    H143942   3.927   4.602   3.353  0.1837  3.2353  0.8499
 7509TIP3    H243943   3.784   4.650   3.338 -1.1321 -0.3500  1.1590
 7510TIP3   OH243944   0.426   4.569  13.202  0.6483 -0.0978 -0.5928
 7510TIP3    H143945   0.392   4.657  13.184  1.3568  0.3787  0.2842
 7510TIP3    H243946   0.506   4.584  13.252  0.4160 -1.2471  0.1848
 7511TIP3   OH243947   1.309   3.782   2.519  0.4162  0.2354  0.4422
 7511TIP3    H143948   1.270   3.704   2.557  1.1392  0.2459  1.2277
 7511TIP3    H243949   1.399   3.757   2.497  0.0027  0.1894 -1.4176
 7512TIP3   OH243950   6.453   5.417  13.866 -0.3672  0.6307  0.0834
 7512TIP3    H143951   6.367   5.418  13.908 -0.4585  2.0918 -0.0970
 7512TIP3    H243952   6.497   5.341  13.904 -0.7314  1.4477  2.2386
 7513TIP3   OH243953   0.691   5.598  11.258 -0.4311 -0.2601  0.6416
 7513TIP3    H143954   0.706   5.650  11.178  1.7748 -0.4077  0.8881
 7513TIP3    H243955   0.617   5.640  11.301 -0.6230  0.8144 -0.6808
 7514TIP3   OH243956   0.139   5.117  15.745 -0.3594 -0.0088  0.1746
 7514TIP3    H143957   0.142   5.135  15.839 -0.4359 -0.5388  0.2820
 7514TIP3    H243958   0.098   5.031  15.739 -2.5454  1.0050 -0.4657
 7515TIP3   OH243959   6.376   5.962  11.297 -0.1254 -0.5013  0.8325
 7515TIP3    H143960   6.430   6.020  11.243 -0.9612  0.8665  1.4203
 7515TIP3    H243961   6.391   5.874  11.261  1.1346  0.0761 -0.1092
 7516TIP3   OH243962   6.516   0.264   1.532  0.1169  0.0975 -0.2500
 7516TIP3    H143963   6.446   0.326   1.513 -1.6387 -2.3272 -2.3888
 7516TIP3    H243964   6.518   0.259   1.628 -1.8083  1.1011 -0.0995
 7517TIP3   OH243965   6.614   4.987   3.872  0.4140 -0.0507 -0.5987
 7517TIP3    H143966   6.638   5.044   3.799  1.4803 -0.0183 -0.2436
 7517TIP3    H243967   6.696   4.971   3.918 -0.5334  1.8383  1.9762
 7518TIP3   OH243968   3.768   3.342  15.493  0.0717 -0.3506  0.2317
 7518TIP3    H143969   3.793   3.250  15.501 -0.9701 -0.5722  1.1219
 7518TIP3    H243970   3.751   3.354  15.400 -1.0944 -1.4257  0.2794
 7519TIP3   OH243971   6.549   1.324   1.769  0.0888  0.2943  0.1886
 7519TIP3    H143972   6.523   1.286   1.685 -1.2622  2.8873 -0.6839
 7519TIP3    H243973   6.469   1.324   1.822  0.6763 -0.3610  1.1041
 7520TIP3   OH243974   3.301   0.725   1.452 -0.0009 -0.1194 -0.1691
 7520TIP3    H143975   3.285   0.723   1.358 -0.8738  1.1935 -0.0823
 7520TIP3    H243976   3.330   0.815   1.469 -1.3915  0.1424  1.0176
 7521TIP3   OH243977   5.338   4.924  13.552  0.3232 -0.2315 -0.2655
 7521TIP3    H143978   5.337   4.989  13.622 -1.8079  0.5341 -0.9189
 7521TIP3    H243979   5.295   4.847  13.589  0.8316 -0.4812 -0.1850
 7522TIP3   OH243980   6.544   1.099  16.258  0.3189  0.3450  0.6984
 7522TIP3    H143981   6.524   1.115  16.166 -0.3923 -1.2289  0.5591
 7522TIP3    H243982   6.608   1.168  16.281  0.2265  0.9761 -0.8479
 7523TIP3   OH243983   5.846   4.465  16.922 -0.1868 -0.4842 -0.2613
 7523TIP3    H143984   5.926   4.481  16.972 -0.4866  0.5269 -0.0975
 7523TIP3    H243985   5.800   4.397  16.972 -0.1141 -0.0383  0.4330
 7524TIP3   OH243986   6.083   5.822  14.075 -0.6620 -0.3160  1.0994
 7524TIP3    H143987   5.999   5.867  14.073 -0.6306 -0.1476 -2.3675
 7524TIP3    H243988   6.076   5.754  14.008  2.7226  1.4180 -1.3208
 7525TIP3   OH243989   5.796   5.561  16.482  0.1672  0.2037 -0.8885
 7525TIP3    H143990   5.846   5.642  16.471  0.3194  0.1351 -0.6995
 7525TIP3    H243991   5.749   5.551  16.399 -0.7982  1.1146 -0.4798
 7526TIP3   OH243992   4.605   6.042  14.902  0.7182  0.1739 -0.3807
 7526TIP3    H143993   4.594   5.949  14.920  0.9774  0.2106 -0.0227
 7526TIP3    H243994   4.700   6.054  14.895  0.6741  0.3710 -0.6401
 7527TIP3   OH243995   5.702   3.650  11.520 -0.0862 -0.5584 -0.7174
 7527TIP3    H143996   5.710   3.706  11.597  0.5749 -0.1367 -1.0924
 7527TIP3    H243997   5.661   3.570  11.553 -0.4389 -0.1101 -0.0590
 7528TIP3   OH243998   0.821   4.831   4.474 -0.1161  0.9529 -1.0844
 7528TIP3    H143999   0.755   4.793   4.532 -0.5220  0.5618 -1.7811
 7528TIP3    H244000   0.904   4.804   4.512 -0.3815  0.4324 -0.8579
 7529TIP3   OH244001   0.298   2.495   0.774 -0.0769  0.2641  0.4335
 7529TIP3    H144002   0.336   2.408   0.761 -0.0802 -0.1587  2.7094
 7529TIP3    H244003   0.348   2.553   0.717  1.7482 -0.8102  0.8667
 7530TIP3   OH244004   0.043   0.574   4.570  0.0896  0.4530  0.1444
 7530TIP3    H144005   0.011   0.602   4.656 -3.5627  1.9210 -1.4402
 7530TIP3    H244006   0.055   0.656   4.521  1.1241 -0.3769 -1.0588
 7531TIP3   OH244007   4.131   6.550   3.294 -0.0171 -0.0007  0.2942
 7531TIP3    H144008   4.116   6.544   3.200  1.7620  0.4715 -0.0677
 7531TIP3    H244009   4.227   6.553   3.302 -0.1579  0.6367  2.0762
 7532TIP3   OH244010   2.363   2.623  16.466 -0.2158 -0.2101  0.3695
 7532TIP3    H144011   2.366   2.646  16.559  0.6229 -0.3451  0.3864
 7532TIP3    H244012   2.270   2.627  16.443 -0.3513  0.6207  1.0105
 7533TIP3   OH244013   3.601   0.671   3.892  0.3064  0.3455 -0.0567
 7533TIP3    H144014   3.607   0.578   3.870  1.3565  0.3059  0.3167
 7533TIP3    H244015   3.646   0.715   3.820  0.2325  0.5288  0.0097
 7534TIP3   OH244016   6.266   0.004   1.211 -0.1724  0.0490 -0.2063
 7534TIP3    H144017   6.310  -0.045   1.142 -1.5049 -0.5654 -0.6609
 7534TIP3    H244018   6.223   0.077   1.165  1.4074  1.4131  0.4001
 7535TIP3   OH244019   5.958   6.391  12.705  0.1274  0.5165  0.1245
 7535TIP3    H144020   5.940   6.356  12.618  0.8741  0.8588 -0.1707
 7535TIP3    H244021   5.905   6.471  12.710  1.1881  1.2828 -0.5761
 7536TIP3   OH244022   2.765   1.889  14.227  0.7086  0.2700  0.2931
 7536TIP3    H144023   2.803   1.965  14.271  0.5581  2.4677 -2.9775
 7536TIP3    H244024   2.671   1.898  14.241  0.4991  1.9703 -1.6831
 7537TIP3   OH244025   3.833   5.511  12.028 -0.6749 -0.2125 -0.9063
 7537TIP3    H144026   3.738   5.514  12.036 -0.6358 -1.3635  0.3932
 7537TIP3    H244027   3.853   5.418  12.017  0.4908 -0.4554  2.3736
 7538TIP3   OH244028   3.680   2.703   1.819  0.6897  0.2423 -0.2606
 7538TIP3    H144029   3.652   2.633   1.760 -2.3775  0.5506  0.6569
 7538TIP3    H244030   3.758   2.740   1.777  1.0485 -2.1726 -1.9451
 7539TIP3   OH244031   4.582   0.635  14.581  0.0618  0.1389  0.4830
 7539TIP3    H144032   4.558   0.588  14.661 -2.2951  1.2157  0.4901
 7539TIP3    H244033   4.609   0.721  14.611  1.8492 -0.3124  0.2741
 7540TIP3   OH244034   2.205   0.392   3.022 -0.0049 -0.2760 -0.1519
 7540TIP3    H144035   2.177   0.458   3.085  0.6742  0.2008 -0.3504
 7540TIP3    H244036   2.155   0.412   2.942  1.6276  1.2170 -0.8394
 7541TIP3   OH244037   5.702   5.326  15.158  0.5246  0.0400 -0.4112
 7541TIP3    H144038   5.714   5.240  15.200 -0.4375  1.2918  2.7284
 7541TIP3    H244039   5.786   5.370  15.171 -0.6587  1.5883  3.4839
 7542TIP3   OH244040   2.621   4.562  11.147 -0.1749  0.6719 -0.0854
 7542TIP3    H144041   2.618   4.468  11.162  0.0532  0.6524 -0.1622
 7542TIP3    H244042   2.578   4.574  11.062 -0.5836  0.6824  0.1188
 7543TIP3   OH244043   2.430   2.192  16.834 -0.3176 -0.2116 -0.1891
 7543TIP3    H144044   2.380   2.132  16.889  0.5580 -1.1854 -0.4330
 7543TIP3    H244045   2.428   2.153  16.746  1.5892 -0.7547 -0.0321
 7544TIP3   OH244046   0.422   2.879   1.238  0.3816 -0.3578 -0.0508
 7544TIP3    H144047   0.328   2.869   1.256  0.4896 -0.9775  0.1787
 7544TIP3    H244048   0.433   2.841   1.151  0.6962 -1.8094  0.5959
 7545TIP3   OH244049   2.596   1.702  16.923 -0.1031  0.4383 -0.1087
 7545TIP3    H144050   2.549   1.632  16.969  0.9969 -1.1087 -1.2318
 7545TIP3    H244051   2.530   1.741  16.865 -0.6966  0.2348  0.4271
 7546TIP3   OH244052   5.173   3.485   3.069 -0.2944 -0.1043  0.5675
 7546TIP3    H144053   5.127   3.462   2.989 -0.6054  3.7709 -0.5924
 7546TIP3    H244054   5.105   3.488   3.136 -1.0017  1.3831 -0.1788
 7547TIP3   OH244055   0.758   4.546   3.427 -0.4701 -0.2797  0.0227
 7547TIP3    H144056   0.837   4.597   3.442 -0.6967  0.4329 -1.1485
 7547TIP3    H244057   0.779   4.489   3.353 -1.1613  0.1632 -0.5244
 7548TIP3   OH244058   6.445   6.453   4.070  0.1950 -0.8932  0.0220
 7548TIP3    H144059   6.398   6.408   4.139 -0.4058 -0.5446 -0.1515
 7548TIP3    H244060   6.423   6.406   3.990 -1.6142  0.5391 -0.3826
 7549TIP3   OH244061   6.295   3.877   4.779  0.1876  1.0400 -0.6154
 7549TIP3    H144062   6.230   3.825   4.732 -0.4556  0.3879  0.9546
 7549TIP3    H244063   6.285   3.965   4.744  0.8084  0.3309 -2.8115
 7550TIP3   OH244064   2.319   4.168  15.077  0.0518  0.6557  0.4202
 7550TIP3    H144065   2.367   4.250  15.073  2.3347 -0.6456 -1.0636
 7550TIP3    H244066   2.359   4.119  15.149 -0.5090  0.3822  0.5525
 7551TIP3   OH244067   2.640   2.526  12.813 -0.2931 -0.3305  0.5750
 7551TIP3    H144068   2.619   2.614  12.844  2.6472  0.1358  1.5535
 7551TIP3    H244069   2.631   2.470  12.890  1.0304 -0.2685  0.7937
 7552TIP3   OH244070   1.799   2.381   2.297 -0.2738  0.0699 -0.3101
 7552TIP3    H144071   1.790   2.286   2.287 -2.3113  0.3524 -1.7835
 7552TIP3    H244072   1.841   2.410   2.217  2.6354  0.2319  1.1504
 7553TIP3   OH244073   6.539   2.097   1.924  0.3944  0.2673 -0.2677
 7553TIP3    H144074   6.471   2.055   1.976  0.2778 -1.2537 -1.5690
 7553TIP3    H244075   6.494   2.165   1.876 -0.0961 -0.3030 -0.6284
 7554TIP3   OH244076   1.264   1.989  12.638  0.3756 -0.8958  0.0609
 7554TIP3    H144077   1.314   2.038  12.703  0.3070 -1.4294  0.5260
 7554TIP3    H244078   1.324   1.979  12.564  0.3244  0.0430 -0.1165
 7555TIP3   OH244079   0.269   5.199   4.828  0.4668  0.0317 -0.3141
 7555TIP3    H144080   0.359   5.165   4.833 -0.1641 -1.6892  0.2926
 7555TIP3    H244081   0.263   5.238   4.741  1.7263 -0.0659 -0.4696
 7556TIP3   OH244082   0.145   1.066   5.169 -0.1726  0.1685  0.3336
 7556TIP3    H144083   0.198   1.022   5.236  1.8868  1.3867 -0.4027
 7556TIP3    H244084   0.131   1.155   5.203 -0.3224  0.3680 -0.2312
 7557TIP3   OH244085   3.899   0.748   2.474 -0.6451 -0.0029 -0.9123
 7557TIP3    H144086   3.968   0.799   2.432  0.3327  0.2925  0.9176
 7557TIP3    H244087   3.869   0.804   2.546 -1.8273 -0.7084 -0.8366
 7558TIP3   OH244088   1.368   3.073  14.129  0.1955  0.1008  0.2862
 7558TIP3    H144089   1.365   2.989  14.175  0.0142 -1.0981 -1.8121
 7558TIP3    H244090   1.462   3.089  14.117  0.2733  0.7941  1.6711
 7559TIP3   OH244091   1.582   3.251   3.197 -0.3906 -0.4791  0.0090
 7559TIP3    H144092   1.660   3.204   3.227 -0.9935 -0.5638  1.5136
 7559TIP3    H244093   1.543   3.286   3.277 -1.5117  0.1768 -0.8018
 7560TIP3   OH244094   5.976   5.735  13.371  0.0832  0.0053 -0.7470
 7560TIP3    H144095   6.029   5.799  13.324  0.3249 -0.9708 -1.8403
 7560TIP3    H244096   5.903   5.786  13.407  1.1884  1.1867 -0.0863
 7561TIP3   OH244097   3.798   0.397   2.348  0.3638  0.4592 -0.2462
 7561TIP3    H144098   3.793   0.303   2.330  0.3880  0.8241 -2.5210
 7561TIP3    H244099   3.888   0.410   2.378  0.3145 -0.2560  0.2417
 7562TIP3   OH244100   5.545   5.071   3.630 -0.1664 -0.2620 -0.5910
 7562TIP3    H144101   5.539   4.976   3.619 -0.3337 -0.1905 -1.1236
 7562TIP3    H244102   5.617   5.097   3.573  0.7469 -0.2257  0.5274
 7563TIP3   OH244103   3.286   3.321   5.115  0.6618 -0.4653 -0.0317
 7563TIP3    H144104   3.204   3.368   5.101 -0.1525 -1.9634 -0.5882
 7563TIP3    H244105   3.259   3.237   5.152  2.2490  0.4395  3.6432
 7564TIP3   OH244106   0.784   0.161  13.235 -0.2211 -0.3111  0.4322
 7564TIP3    H144107   0.777   0.169  13.330  0.3938 -0.5135  0.4999
 7564TIP3    H244108   0.752   0.244  13.201 -3.5228 -1.3349  0.6531
 7565TIP3   OH244109   0.815   4.010   4.565  0.4012  0.0716 -0.0934
 7565TIP3    H144110   0.853   4.096   4.546 -1.0660  0.6172 -0.6708
 7565TIP3    H244111   0.756   4.026   4.639  2.0890 -0.9979  1.5867
 7566TIP3   OH244112   4.879   4.468   5.624  0.3040  0.1066 -0.2699
 7566TIP3    H144113   4.938   4.394   5.638 -0.1851 -0.7458 -2.3423
 7566TIP3    H244114   4.828   4.474   5.705  0.5087 -1.6920  0.0296
 7567TIP3   OH244115   0.486   4.009   1.224  0.0531  0.2256 -0.4939
 7567TIP3    H144116   0.443   4.046   1.301  0.6463  0.0796 -0.0843
 7567TIP3    H244117   0.560   4.067   1.207 -0.3623  0.5471 -1.2686
 7568TIP3   OH244118   1.768   4.424  15.330  0.2929  0.8308 -0.3229
 7568TIP3    H144119   1.713   4.362  15.379 -0.3689  1.9119  0.3399
 7568TIP3    H244120   1.705   4.482  15.286  0.8919  0.4198 -1.7597
 7569TIP3   OH244121   1.400   4.808  17.076  0.0921 -0.5189  0.2279
 7569TIP3    H144122   1.467   4.746  17.105 -0.4603 -0.4780  1.6798
 7569TIP3    H244123   1.344   4.757  17.017 -1.0295 -1.8041  2.2835
 7570TIP3   OH244124   2.006   3.719  13.144  0.7255 -0.0921  0.2905
 7570TIP3    H144125   1.981   3.748  13.057  1.4990 -0.7167 -0.1544
 7570TIP3    H244126   1.956   3.639  13.159  1.0211 -0.3048  0.1691
 7571TIP3   OH244127   2.483   5.902   0.514 -0.5654  0.0154  0.8844
 7571TIP3    H144128   2.498   5.989   0.549  2.0009 -0.6989  1.7832
 7571TIP3    H244129   2.496   5.910   0.420 -1.6715  0.8160  0.7815
 7572TIP3   OH244130   3.649   0.286   0.031 -0.5742  0.2398 -0.2752
 7572TIP3    H144131   3.705   0.208   0.025  2.1386  2.1681 -2.5011
 7572TIP3    H244132   3.627   0.292   0.124 -0.7294 -3.0051  0.0009
 7573TIP3   OH244133   5.125   0.224   1.093 -0.7223  0.0867 -0.1219
 7573TIP3    H144134   5.205   0.177   1.070 -1.7904 -1.7919 -0.2629
 7573TIP3    H244135   5.150   0.279   1.167  0.6597 -0.6233 -0.0239
 7574TIP3   OH244136   6.442   1.258  11.922 -0.5995  0.6101  0.0906
 7574TIP3    H144137   6.373   1.322  11.910 -1.1225  0.3851  1.5998
 7574TIP3    H244138   6.521   1.301  11.891 -0.7705  2.3768  1.8811
 7575TIP3   OH244139   2.775   1.785  15.791 -0.1350 -0.2014 -0.2122
 7575TIP3    H144140   2.734   1.715  15.842  0.7311 -1.7593 -1.5591
 7575TIP3    H244141   2.866   1.758  15.784 -0.0962  0.3169 -1.9912
 7576TIP3   OH244142   3.184   0.330  15.061  0.1392 -0.1093  0.2746
 7576TIP3    H144143   3.098   0.288  15.050  0.1825 -0.1143 -0.0598
 7576TIP3    H244144   3.236   0.298  14.988  0.0887  0.7300 -0.1458
 7577TIP3   OH244145   2.276   5.441   1.016 -0.2327 -0.0272  0.1183
 7577TIP3    H144146   2.253   5.488   0.935 -1.3549  1.3710  1.1996
 7577TIP3    H244147   2.366   5.412   1.002  0.0311  1.2788 -1.1442
 7578TIP3   OH244148   3.704   3.881   1.304 -0.2265  0.2314 -0.0160
 7578TIP3    H144149   3.712   3.972   1.330 -0.9478 -0.4102  2.8058
 7578TIP3    H244150   3.769   3.870   1.234  1.8018  2.2635  1.4147
 7579TIP3   OH244151   5.864   2.203  15.841  0.6138  0.0714  0.3592
 7579TIP3    H144152   5.872   2.226  15.748  1.5239 -0.3028  0.3338
 7579TIP3    H244153   5.886   2.283  15.887 -2.6980  1.1452  0.2876
 7580TIP3   OH244154   1.093   3.852  12.884  0.3072  0.4104 -0.3737
 7580TIP3    H144155   1.027   3.887  12.824 -1.5717 -0.6757  0.9679
 7580TIP3    H244156   1.067   3.761  12.898  0.0605  0.8563  2.8200
 7581TIP3   OH244157   3.258   5.096   3.815  0.6066 -0.2976  0.4217
 7581TIP3    H144158   3.258   5.054   3.901  0.3835  1.4549  1.3133
 7581TIP3    H244159   3.172   5.075   3.778 -0.2831  0.9662  1.6888
 7582TIP3   OH244160   5.744   3.306   3.974  0.0509  0.3036 -0.5501
 7582TIP3    H144161   5.693   3.233   3.940 -0.3763 -0.4028  1.4845
 7582TIP3    H244162   5.832   3.271   3.985  0.2472  0.6027 -1.1342
 7583TIP3   OH244163   6.395   3.414   5.829 -0.3167  0.1566 -0.4450
 7583TIP3    H144164   6.457   3.419   5.756 -1.2662 -0.0348 -1.2885
 7583TIP3    H244165   6.390   3.504   5.862  0.9137  0.0480  0.0869
 7584TIP3   OH244166   2.541   0.595   4.324 -0.5261  0.3860  0.1056
 7584TIP3    H144167   2.600   0.610   4.250  0.7822  1.2978  1.2649
 7584TIP3    H244168   2.462   0.644   4.303 -0.4233  0.1119 -0.9593
 7585TIP3   OH244169   0.331   4.593  13.992  0.4686 -0.1788 -0.2834
 7585TIP3    H144170   0.397   4.563  14.054  0.9437  1.5579  0.1089
 7585TIP3    H244171   0.375   4.587  13.907  1.5754  1.9082  0.0678
 7586TIP3   OH244172   2.978   5.154   3.834  0.3066  0.2467  0.3282
 7586TIP3    H144173   2.906   5.215   3.813 -1.4776 -2.1018 -0.8488
 7586TIP3    H244174   2.973   5.143   3.929 -0.1507  0.9774  0.3979
 7587TIP3   OH244175   0.893   2.702   6.503 -0.2629 -0.7224 -0.0686
 7587TIP3    H144176   0.966   2.760   6.478  1.1211 -1.1096  2.7234
 7587TIP3    H244177   0.816   2.741   6.461  1.2433  0.7193 -1.6798
 7588TIP3   OH244178   0.567   3.366   2.786 -0.4153  1.0574  0.2185
 7588TIP3    H144179   0.654   3.397   2.762  0.5193 -1.7464 -0.4286
 7588TIP3    H244180   0.575   3.342   2.878 -0.6722  1.3137  0.3072
 7589TIP3   OH244181   6.035   3.453  10.460 -0.4338 -0.2875 -0.0077
 7589TIP3    H144182   6.070   3.386  10.402 -0.4690  1.0767 -1.6768
 7589TIP3    H244183   6.103   3.466  10.526  0.6929 -0.1895 -1.1518
 7590TIP3   OH244184   2.431   5.446   5.021 -0.5341  0.0777  0.5483
 7590TIP3    H144185   2.412   5.454   4.927 -0.2681  0.1723  0.5016
 7590TIP3    H244186   2.365   5.502   5.063 -1.1466 -0.5743  0.4713
 7591TIP3   OH244187   6.495   0.615   1.432 -0.2121 -0.0182  0.4355
 7591TIP3    H144188   6.565   0.550   1.427 -0.3842 -0.3191  1.6796
 7591TIP3    H244189   6.537   0.697   1.405 -0.2358 -0.7595 -2.1149
 7592TIP3   OH244190   4.275   4.721   3.629  0.4918  0.1126 -0.4891
 7592TIP3    H144191   4.233   4.730   3.715 -1.8302 -3.7456 -0.9842
 7592TIP3    H244192   4.368   4.737   3.647  0.2859 -1.5686  3.0293
 7593TIP3   OH244193   0.270   3.303  12.148  0.1585  0.8775 -0.0525
 7593TIP3    H144194   0.244   3.345  12.066  1.3416  1.0267 -0.3640
 7593TIP3    H244195   0.187   3.272  12.185 -0.5214  1.7423 -0.7712
 7594TIP3   OH244196   2.267   2.036   1.475  0.8145  0.6791  0.3553
 7594TIP3    H144197   2.268   2.003   1.385 -2.2711 -1.0919  0.8159
 7594TIP3    H244198   2.315   1.970   1.524  1.4946  1.0480  0.2014
 7595TIP3   OH244199   3.739   2.149   1.420 -0.1068 -0.0267  0.3693
 7595TIP3    H144200   3.790   2.090   1.476 -0.1235  0.2969  0.7312
 7595TIP3    H244201   3.775   2.236   1.439 -0.3220  0.1200  0.1041
 7596TIP3   OH244202   5.290   3.670  14.508  0.4203 -0.0817  0.5667
 7596TIP3    H144203   5.254   3.701  14.425 -0.5637 -0.2808  0.8990
 7596TIP3    H244204   5.230   3.600  14.535  0.4171  0.3408  1.7031
 7597TIP3   OH244205   2.709   6.347   3.769 -0.2527 -0.0356 -0.0898
 7597TIP3    H144206   2.628   6.336   3.817 -1.0769  1.0540 -1.1783
 7597TIP3    H244207   2.696   6.297   3.688  0.5741 -0.7066  0.1739
 7598TIP3   OH244208   0.617   5.286   5.741 -0.2085 -0.2120 -0.2552
 7598TIP3    H144209   0.640   5.346   5.670  1.0322 -0.3576 -0.0164
 7598TIP3    H244210   0.654   5.202   5.713  0.9863 -0.0962  0.8877
 7599TIP3   OH244211   0.701   6.672   3.106  0.4202  0.2315 -0.2896
 7599TIP3    H144212   0.728   6.764   3.102  0.2840  0.2426 -2.9325
 7599TIP3    H244213   0.683   6.648   3.015 -1.2855 -1.9214  0.5088
 7600TIP3   OH244214   4.194   1.213   0.749 -1.1626  0.0691 -0.6004
 7600TIP3    H144215   4.130   1.284   0.749 -1.0538  0.1669 -0.2444
 7600TIP3    H244216   4.146   1.137   0.783 -0.2064  0.9567  3.1308
 7601TIP3   OH244217   1.070   4.771  11.216 -0.2358  0.2653 -0.2081
 7601TIP3    H144218   1.145   4.822  11.185  1.1873 -0.8390  1.2415
 7601TIP3    H244219   1.046   4.716  11.142  0.7711  0.2271 -0.5193
 7602TIP3   OH244220   6.584   2.894  12.955 -0.0995  0.1693 -0.7163
 7602TIP3    H144221   6.600   2.844  13.035 -1.2740  2.2679  0.9268
 7602TIP3    H244222   6.650   2.964  12.957 -0.8099  0.8643 -0.9750
 7603TIP3   OH244223   0.222   3.458  15.399  0.8148 -0.0159 -0.7184
 7603TIP3    H144224   0.205   3.418  15.484  0.0298  0.5307 -0.6070
 7603TIP3    H244225   0.198   3.389  15.336  0.5473 -0.1160 -0.5109
 7604TIP3   OH244226   4.127   1.342   5.255  0.4289 -0.2837 -0.6351
 7604TIP3    H144227   4.047   1.290   5.262 -0.4559  0.7879 -2.0225
 7604TIP3    H244228   4.097   1.432   5.272  0.9629  0.3658 -2.8705
 7605TIP3   OH244229   0.721   1.564   3.621 -0.2216  0.3440  0.5822
 7605TIP3    H144230   0.710   1.497   3.689 -2.2318 -0.1585 -0.1675
 7605TIP3    H244231   0.660   1.633   3.646  0.7242  1.2236  0.5139
 7606TIP3   OH244232   4.994   6.556   2.574  0.2544 -1.0508  0.0278
 7606TIP3    H144233   5.027   6.598   2.494 -0.2317 -1.5914 -0.4743
 7606TIP3    H244234   5.022   6.465   2.566 -1.9341 -1.7308 -0.8096
 7607TIP3   OH244235   4.598   5.484   2.107 -0.4367 -0.5462  0.6602
 7607TIP3    H144236   4.648   5.509   2.185  0.2757 -0.6886  0.2627
 7607TIP3    H244237   4.579   5.567   2.063  1.0263 -0.5884 -0.1169
 7608TIP3   OH244238   6.106   3.374  16.011  0.1371  0.1809 -0.6012
 7608TIP3    H144239   6.039   3.323  16.057  0.0074  0.2672 -0.6926
 7608TIP3    H244240   6.182   3.316  16.006  0.9353  0.9066  1.6867
 7609TIP3   OH244241   6.240   6.665  14.530 -0.0935  0.4194 -0.1823
 7609TIP3    H144242   6.229   6.747  14.579  0.2892  0.3805 -0.0337
 7609TIP3    H244243   6.230   6.596  14.596 -0.6736  0.3311 -0.3492
 7610TIP3   OH244244   6.279   1.965  14.573 -0.5672  0.0917  0.1361
 7610TIP3    H144245   6.234   1.992  14.493 -0.2324  0.1009 -0.0488
 7610TIP3    H244246   6.369   1.948  14.546 -0.3779  0.3862  0.5687
 7611TIP3   OH244247   1.900   0.309  15.271  0.1021  0.0840  0.4765
 7611TIP3    H144248   1.994   0.326  15.276 -0.2010  1.6857  1.4866
 7611TIP3    H244249   1.870   0.314  15.361 -1.1062  0.6225  0.0712
 7612TIP3   OH244250   2.997   4.187   4.020  0.0583 -0.7538 -0.4928
 7612TIP3    H144251   2.933   4.238   4.070  0.8277  0.5900 -0.8208
 7612TIP3    H244252   3.047   4.139   4.087  0.0529 -0.1977 -0.0796
 7613TIP3   OH244253   4.012   3.638  17.156  0.7447 -0.0736 -0.0475
 7613TIP3    H144254   3.942   3.664  17.215  2.2537  1.7854  1.0459
 7613TIP3    H244255   4.040   3.552  17.188  1.2131  0.6915  1.7173
 7614TIP3   OH244256   4.474   0.169  13.995 -0.6473 -0.5357  0.1505
 7614TIP3    H144257   4.440   0.214  14.072 -1.2576 -1.4429  0.4338
 7614TIP3    H244258   4.514   0.238  13.942  0.2699  0.0257  1.5267
 7615TIP3   OH244259   2.949   0.077  13.211  0.4825  0.4559 -0.0859
 7615TIP3    H144260   2.912   0.145  13.155  2.0853 -0.1612 -2.0381
 7615TIP3    H244261   2.939   0.110  13.300 -0.1169  2.5512 -0.8866
 7616TIP3   OH244262   3.017   1.352  12.932 -0.1121 -0.2448 -0.1019
 7616TIP3    H144263   2.930   1.373  12.898 -0.2390 -2.3623 -1.2599
 7616TIP3    H244264   3.001   1.286  13.000  0.4970  0.4803  0.7646
 7617TIP3   OH244265   4.427   0.394  14.393 -0.1201  0.1238 -0.0329
 7617TIP3    H144266   4.406   0.485  14.415  1.1832  0.3894  0.2072
 7617TIP3    H244267   4.387   0.381  14.307 -0.5222  0.8495  0.0314
 7618TIP3   OH244268   3.109   4.104   3.591  0.7255 -0.2194 -0.0160
 7618TIP3    H144269   3.087   4.171   3.527  1.5017 -0.1492 -0.2262
 7618TIP3    H244270   3.177   4.052   3.548 -1.1922 -2.3597 -0.6448
 7619TIP3   OH244271   5.663   2.608   1.161 -0.1841  0.0882 -0.0957
 7619TIP3    H144272   5.717   2.535   1.190 -0.0189  1.0186  2.1773
 7619TIP3    H244273   5.722   2.684   1.167 -0.9492  0.7023 -0.2750
 7620TIP3   OH244274   6.297   5.960   5.406  0.3718 -0.8133  0.5562
 7620TIP3    H144275   6.314   5.879   5.357  0.8778  0.7262 -1.9882
 7620TIP3    H244276   6.216   5.994   5.368  0.8987  0.5510  0.6103
 7621TIP3   OH244277   1.129   5.063  11.705 -0.2780 -0.2136  0.0332
 7621TIP3    H144278   1.128   5.042  11.611  0.5590 -2.1438  0.3963
 7621TIP3    H244279   1.220   5.048  11.731 -0.4935  0.3446  1.1429
 7622TIP3   OH244280   1.851   2.289   0.756 -0.1682  0.8678 -0.5077
 7622TIP3    H144281   1.863   2.383   0.767 -0.6131  0.8196  0.5057
 7622TIP3    H244282   1.793   2.281   0.680  1.7467  1.2867 -2.1200
 7623TIP3   OH244283   5.764   2.689   1.452 -0.3139  0.4797  0.8320
 7623TIP3    H144284   5.858   2.677   1.439 -0.0871  2.6226  0.1775
 7623TIP3    H244285   5.738   2.614   1.506  1.8744  0.1785  1.5773
 7624TIP3   OH244286   0.878   0.320   1.268 -0.3010 -0.2120 -0.7907
 7624TIP3    H144287   0.960   0.279   1.241  0.1524 -0.1884  0.4811
 7624TIP3    H244288   0.835   0.345   1.186  1.0460 -0.0648 -1.4783
 7625TIP3   OH244289   5.146   2.762  11.832  0.0670 -0.2820 -0.5097
 7625TIP3    H144290   5.200   2.842  11.840  1.3249 -1.1349 -0.1322
 7625TIP3    H244291   5.087   2.781  11.759  1.7389  0.2539 -1.8103
 7626TIP3   OH244292   1.854   0.852   4.396  1.0853 -0.0754 -0.2848
 7626TIP3    H144293   1.828   0.782   4.457 -0.3921 -0.5926 -1.4487
 7626TIP3    H244294   1.879   0.925   4.453 -1.8318  0.0311  1.0224
 7627TIP3   OH244295   6.061   3.391  15.361 -0.1605  0.0939 -0.1960
 7627TIP3    H144296   6.136   3.366  15.415  1.0344  1.0906 -1.3229
 7627TIP3    H244297   5.991   3.332  15.388  1.0288 -0.8737  0.8912
 7628TIP3   OH244298   0.007   3.316  16.554  0.8520 -0.0527  0.3152
 7628TIP3    H144299   0.076   3.252  16.539  0.8106  0.0161 -0.1641
 7628TIP3    H244300  -0.011   3.310  16.648  1.5271 -0.0499  0.4499
 7629TIP3   OH244301   1.574   3.049  11.326  0.0961  0.2453 -0.4829
 7629TIP3    H144302   1.641   3.109  11.294  0.6203  0.8692  1.6225
 7629TIP3    H244303   1.493   3.077  11.283  1.0391 -0.2393 -2.7203
 7630TIP3   OH244304   5.046   0.129  15.577  0.5258 -0.5489 -0.3999
 7630TIP3    H144305   5.094   0.177  15.510  2.4715 -1.2184  0.4552
 7630TIP3    H244306   4.957   0.122  15.542  0.6123  2.0079 -1.3825
 7631TIP3   OH244307   3.305   4.278  16.821  0.0990 -0.2762  0.1690
 7631TIP3    H144308   3.381   4.237  16.777 -0.6080 -0.1759 -1.2142
 7631TIP3    H244309   3.244   4.206  16.834  0.6721 -0.4984  1.9392
 7632TIP3   OH244310   5.808   0.731  12.265  0.0444  0.1852  0.1503
 7632TIP3    H144311   5.743   0.783  12.312 -1.1124  1.0192 -2.2064
 7632TIP3    H244312   5.769   0.644  12.259  0.0550  0.1585  0.4299
 7633TIP3   OH244313   3.727   6.782   0.651 -0.8380  0.9573 -0.4173
 7633TIP3    H144314   3.681   6.857   0.614  0.4301  2.6585  1.2454
 7633TIP3    H244315   3.664   6.710   0.646 -1.4086  1.5461 -3.8716
 7634TIP3   OH244316   5.309   4.658  15.201  0.6147 -0.2253  0.2595
 7634TIP3    H144317   5.294   4.691  15.290  1.7391 -0.6524  0.6300
 7634TIP3    H244318   5.253   4.713  15.146  0.5939  0.6746  1.1293
 7635TIP3   OH244319   2.756   1.036  14.643  0.1746 -0.3941  0.4904
 7635TIP3    H144320   2.730   1.068  14.557  0.1929  1.3248  1.0824
 7635TIP3    H244321   2.808   1.107  14.680 -0.9475 -0.5181  2.4415
 7636TIP3   OH244322   0.814   2.215   5.751  0.4573 -0.0021 -0.4127
 7636TIP3    H144323   0.864   2.135   5.737  0.1788  0.0084 -1.5396
 7636TIP3    H244324   0.727   2.185   5.778  0.1673 -0.1187 -1.4252
 7637TIP3   OH244325   1.771   3.116   3.344  0.3387 -0.5770 -0.0778
 7637TIP3    H144326   1.695   3.081   3.390  0.1731  0.4233  0.4402
 7637TIP3    H244327   1.799   3.045   3.286  0.0899 -1.5970  1.0120
 7638TIP3   OH244328   6.501   5.422   6.680 -0.0935  0.7812 -0.1829
 7638TIP3    H144329   6.436   5.372   6.731  1.3407  0.2849  1.2465
 7638TIP3    H244330   6.454   5.499   6.651 -0.8994  1.3845  2.4118
 7639TIP3   OH244331   1.780   1.608  15.158 -0.6091  0.0337 -0.5970
 7639TIP3    H144332   1.773   1.635  15.250 -1.3352  1.0798 -0.9447
 7639TIP3    H244333   1.778   1.512  15.162 -0.1540  0.0510  0.5070
 7640TIP3   OH244334   3.370   0.169  12.818 -0.4616 -0.1365 -0.2339
 7640TIP3    H144335   3.371   0.075  12.839  1.2803 -0.7655 -2.6483
 7640TIP3    H244336   3.429   0.177  12.743 -2.1339  2.5990 -1.4108
 7641TIP3   OH244337   0.125   4.983   4.274  0.2618 -0.1481  0.2521
 7641TIP3    H144338   0.036   4.982   4.311  0.8075 -2.0607  1.6587
 7641TIP3    H244339   0.176   4.928   4.333  2.1957  0.1515 -1.0586
 7642TIP3   OH244340   0.408   2.416   3.013  0.1227  0.0535 -0.0967
 7642TIP3    H144341   0.330   2.468   3.029  0.7584  0.7343  0.8755
 7642TIP3    H244342   0.421   2.420   2.919 -1.4765 -0.7718 -0.3919
 7643TIP3   OH244343   4.556   0.302  12.060  0.8543 -0.2303  0.9489
 7643TIP3    H144344   4.588   0.357  12.131 -2.9330  2.8155  0.6403
 7643TIP3    H244345   4.508   0.232  12.104 -1.9170  1.9217  1.6614
 7644TIP3   OH244346   4.155   5.444  10.548  0.1098 -0.0778 -0.1605
 7644TIP3    H144347   4.214   5.518  10.563  1.5789 -1.2092 -0.1570
 7644TIP3    H244348   4.111   5.465  10.466 -1.7773  2.1953  1.3031
 7645TIP3   OH244349   0.646   4.365   1.450 -0.2576  0.0030 -0.2566
 7645TIP3    H144350   0.666   4.283   1.404 -0.5215  0.7897 -1.8247
 7645TIP3    H244351   0.602   4.419   1.385 -0.3874  1.2795  0.8550
 7646TIP3   OH244352   0.895   0.055  17.131  0.5264  0.8991  0.1133
 7646TIP3    H144353   0.827   0.077  17.195 -0.7138  1.9955 -1.4968
 7646TIP3    H244354   0.877  -0.036  17.108  1.8168  0.0461  2.2432
 7647TIP3   OH244355   1.923   3.352   2.417 -0.1705 -0.3666  1.0125
 7647TIP3    H144356   1.910   3.315   2.330  1.6626 -1.2058  1.0476
 7647TIP3    H244357   1.850   3.318   2.469 -1.1368 -0.0603 -0.0956
 7648TIP3   OH244358   3.489   2.749   3.143  0.0991  0.0785 -0.1678
 7648TIP3    H144359   3.454   2.825   3.190  2.0556  1.7153 -1.1663
 7648TIP3    H244360   3.425   2.733   3.073 -0.8377  0.1406  0.6460
 7649TIP3   OH244361   2.383   3.417  14.322  0.3218 -0.2483  0.3845
 7649TIP3    H144362   2.416   3.424  14.233  0.7697  2.1909  0.6818
 7649TIP3    H244363   2.450   3.367  14.369  0.3469 -1.0691 -0.5151
 7650TIP3   OH244364   5.233   3.256  15.875 -0.1958  0.2265  0.2233
 7650TIP3    H144365   5.173   3.309  15.823 -0.2597 -1.1580 -1.1906
 7650TIP3    H244366   5.215   3.166  15.849  3.7721 -0.2217 -1.8582
 7651TIP3   OH244367   6.372   2.287  11.447  0.4142  0.7166  0.6074
 7651TIP3    H144368   6.287   2.296  11.404  0.3652  0.9657  0.7594
 7651TIP3    H244369   6.419   2.367  11.427  1.5468 -0.3931 -1.5101
 7652TIP3   OH244370   3.277   0.732  12.309  0.1057  0.8797 -0.0385
 7652TIP3    H144371   3.339   0.686  12.364  1.2392  0.6053 -1.4777
 7652TIP3    H244372   3.269   0.819  12.349  1.0364  0.7511  0.4420
 7653TIP3   OH244373   4.877   3.372   5.370 -0.3064  0.2240  0.4010
 7653TIP3    H144374   4.885   3.362   5.465  1.0483  1.8614  0.4976
 7653TIP3    H244375   4.891   3.283   5.336  0.0315 -0.2426  1.6705
 7654TIP3   OH244376   4.384   5.223  14.441 -0.0003 -0.6025 -0.3368
 7654TIP3    H144377   4.291   5.239  14.456  0.0180  0.9961 -1.6275
 7654TIP3    H244378   4.411   5.293  14.382  2.2287 -0.5092  0.6740
 7655TIP3   OH244379   3.643   6.659   4.177  0.0918  0.0843 -0.6508
 7655TIP3    H144380   3.600   6.743   4.165  1.7480  1.3007  1.3305
 7655TIP3    H244381   3.732   6.673   4.145 -0.0659 -1.5056 -1.9508
 7656TIP3   OH244382   2.962   4.827   4.181  0.4781  0.3955  0.2268
 7656TIP3    H144383   2.993   4.821   4.271 -1.0853 -0.9009  0.7256
 7656TIP3    H244384   3.026   4.776   4.131  0.1305 -0.8100  0.9698
 7657TIP3   OH244385   2.648   2.819  15.007 -0.3361 -0.5651  0.2621
 7657TIP3    H144386   2.666   2.889  14.944 -2.4740  0.4688  0.6946
 7657TIP3    H244387   2.703   2.840  15.083  1.4649 -1.2392 -0.7945
 7658TIP3   OH244388   1.937   1.845  17.139 -0.2733  0.2666  0.4309
 7658TIP3    H144389   1.907   1.758  17.114  0.4571 -0.4018  1.7442
 7658TIP3    H244390   1.858   1.899  17.135 -0.6969 -0.3938 -0.5948
 7659TIP3   OH244391   5.777   3.803   3.188 -0.3232 -1.1094 -0.6097
 7659TIP3    H144392   5.826   3.821   3.108 -1.5185 -2.9180 -1.8228
 7659TIP3    H244393   5.698   3.856   3.180 -0.3316 -1.1093 -0.5234
 7660TIP3   OH244394   3.248   5.806  16.928  0.4141  0.6221 -0.4271
 7660TIP3    H144395   3.204   5.844  17.004 -1.4156  0.0068 -1.1264
 7660TIP3    H244396   3.341   5.826  16.942  0.2510 -0.1695  2.3521
 7661TIP3   OH244397   6.199   1.813  15.450 -0.0505  0.7000  0.1689
 7661TIP3    H144398   6.274   1.871  15.463  1.5034 -1.5073  1.5977
 7661TIP3    H244399   6.138   1.837  15.520  1.4356 -0.5837  2.0023
 7662TIP3   OH244400   2.055   4.166  15.110  0.0836 -0.2829  0.8757
 7662TIP3    H144401   1.999   4.199  15.041  0.5619  1.0531  1.0916
 7662TIP3    H244402   2.141   4.155  15.069 -0.1808 -1.8790  0.6624
 7663TIP3   OH244403   3.049   3.051   0.155 -0.3128 -0.0750 -0.6837
 7663TIP3    H144404   3.125   3.007   0.117 -0.1380  1.4578 -2.1928
 7663TIP3    H244405   2.990   3.065   0.082 -1.4067  0.1037  0.2074
 7664TIP3   OH244406   1.338   1.568  15.168  0.7300  0.0424 -0.0539
 7664TIP3    H144407   1.263   1.529  15.213  1.3431  0.1368  1.1112
 7664TIP3    H244408   1.321   1.662  15.170  1.4827  0.1754  1.4231
 7665TIP3   OH244409   3.935   6.465   6.281 -0.1474  0.0354  0.0744
 7665TIP3    H144410   3.985   6.393   6.320 -0.9944 -0.5740  0.0669
 7665TIP3    H244411   3.940   6.535   6.346  0.9038  0.0827 -0.0317
 7666TIP3   OH244412   2.491   4.670   4.564  0.2189  0.0228  0.1655
 7666TIP3    H144413   2.464   4.711   4.646 -1.1730 -0.6639  0.0737
 7666TIP3    H244414   2.458   4.581   4.570  1.9314 -0.6702 -0.2633
 7667TIP3   OH244415   3.236   2.858  11.720  0.2554  0.6310  0.5343
 7667TIP3    H144416   3.150   2.831  11.752  0.2867 -0.1376  0.0062
 7667TIP3    H244417   3.283   2.775  11.707  1.3401  1.0600  1.5323
 7668TIP3   OH244418   1.703   6.108  14.585 -0.7261 -0.1725 -0.3898
 7668TIP3    H144419   1.767   6.165  14.627  0.1296  0.4206 -2.3921
 7668TIP3    H244420   1.755   6.045  14.536 -1.6500 -0.0676 -1.5520
 7669TIP3   OH244421   0.792   3.703  16.757  0.2056  0.8690  0.1620
 7669TIP3    H144422   0.859   3.771  16.742  2.2610 -1.2257 -0.7048
 7669TIP3    H244423   0.713   3.739  16.717  1.0780  2.9277  0.1258
 7670TIP3   OH244424   0.870   2.772   3.893  0.1840  0.3257 -0.0667
 7670TIP3    H144425   0.782   2.734   3.884 -0.0773  0.6267  0.9969
 7670TIP3    H244426   0.874   2.800   3.985  2.3096 -1.9932  0.6829
 7671TIP3   OH244427   0.477   1.837  13.898 -0.6240 -0.6973 -0.3626
 7671TIP3    H144428   0.415   1.825  13.969  0.3677  0.5457  0.7642
 7671TIP3    H244429   0.528   1.756  13.896  0.8935  0.0858  1.9772
 7672TIP3   OH244430   5.893   6.556  13.243  0.1739  0.5248  0.1967
 7672TIP3    H144431   5.819   6.608  13.273 -1.6240 -1.0770 -1.2541
 7672TIP3    H244432   5.910   6.587  13.154  0.7635  0.3526  0.2454
 7673TIP3   OH244433   0.938   4.100  10.580 -0.5814  0.1184 -0.4473
 7673TIP3    H144434   0.924   4.050  10.499 -1.1738  0.1121 -0.3464
 7673TIP3    H244435   1.016   4.153  10.562 -1.8047  1.5597 -1.7433
 7674TIP3   OH244436   3.124   1.468  14.529 -0.4814 -0.6196 -0.3438
 7674TIP3    H144437   3.120   1.479  14.624 -0.4926  2.4639 -0.5977
 7674TIP3    H244438   3.216   1.448  14.511  0.0957  1.3304  0.1845
 7675TIP3   OH244439   2.062   3.784  13.548  0.0296  0.2571  0.6887
 7675TIP3    H144440   2.081   3.808  13.457  0.9258 -1.5692  0.3447
 7675TIP3    H244441   1.999   3.850  13.578 -1.2150  0.2241 -1.6417
 7676TIP3   OH244442   0.747   1.521   1.279 -0.6119 -0.6074 -0.2273
 7676TIP3    H144443   0.819   1.583   1.278  0.5767 -1.9201  0.3122
 7676TIP3    H244444   0.678   1.564   1.330  0.4188  0.0179  0.6690
 7677TIP3   OH244445   4.510   4.890   0.905 -0.0377 -0.0605 -0.0773
 7677TIP3    H144446   4.489   4.968   0.854  0.3859 -0.4748 -0.9023
 7677TIP3    H244447   4.605   4.891   0.914 -0.1750  0.7398  1.9279
 7678TIP3   OH244448   4.040   5.572  13.148  0.7232 -0.1520  0.0629
 7678TIP3    H144449   4.027   5.547  13.239  0.3544  1.3679  0.4596
 7678TIP3    H244450   4.135   5.574  13.137  0.8151  1.3905  0.9496
 7679TIP3   OH244451   1.786   3.075  15.788  0.1188  0.3707 -0.5428
 7679TIP3    H144452   1.732   3.114  15.719  0.3665  1.1365 -0.3118
 7679TIP3    H244453   1.876   3.087  15.758  0.5483  4.3231  1.6120
 7680TIP3   OH244454   0.517   0.713   3.042 -0.3412 -0.3117  0.5291
 7680TIP3    H144455   0.444   0.724   2.983  0.2452 -1.5752 -0.4776
 7680TIP3    H244456   0.498   0.772   3.115 -1.2691  0.9862 -0.7141
 7681TIP3   OH244457   1.597   2.673   1.055 -0.2431 -0.0976  0.4100
 7681TIP3    H144458   1.564   2.749   1.103  2.1888  0.5120  1.2930
 7681TIP3    H244459   1.579   2.692   0.963 -1.4372  0.5896  0.7613
 7682TIP3   OH244460   6.056   1.218   4.663 -0.4276 -0.0950  0.1194
 7682TIP3    H144461   5.969   1.197   4.629  0.1983 -0.3024 -1.4366
 7682TIP3    H244462   6.089   1.135   4.696 -0.5015 -0.1916 -0.0474
 7683TIP3   OH244463   6.142   3.723   4.577 -0.2999 -0.4706  0.0094
 7683TIP3    H144464   6.143   3.692   4.486  2.7682 -0.6999 -0.0102
 7683TIP3    H244465   6.095   3.655   4.625 -0.4726 -1.2170 -1.1615
 7684TIP3   OH244466   0.525   5.995   3.522  0.2629 -0.0421 -0.7653
 7684TIP3    H144467   0.431   5.976   3.530  0.3386 -0.6092 -1.1704
 7684TIP3    H244468   0.531   6.058   3.450  0.1010  0.8211 -0.0429
 7685TIP3   OH244469   6.471   1.678   1.264  0.8174 -0.5697  0.1128
 7685TIP3    H144470   6.449   1.616   1.195 -0.7492  0.5483 -0.4502
 7685TIP3    H244471   6.564   1.661   1.283  0.8748 -1.9219 -1.1774
 7686TIP3   OH244472   1.882   6.623  16.433 -0.0269 -0.0460 -0.3235
 7686TIP3    H144473   1.845   6.690  16.375 -1.2055 -1.3591 -1.1314
 7686TIP3    H244474   1.813   6.606  16.497  1.1573  1.1875  1.3788
 7687TIP3   OH244475   1.033   3.700  13.758  0.6855  0.2225  0.2869
 7687TIP3    H144476   1.121   3.712  13.792  1.9460 -2.3232 -1.6901
 7687TIP3    H244477   1.032   3.747  13.675 -0.0382  0.7128  0.5601
 7688TIP3   OH244478   4.043   0.052   1.019 -0.4578 -0.5010  0.4537
 7688TIP3    H144479   4.080   0.075   0.934 -1.3984 -0.7594 -0.0374
 7688TIP3    H244480   4.068  -0.040   1.032 -0.6614 -0.5826  0.2677
 7689TIP3   OH244481   0.460   0.996  12.298  0.3331 -0.0807  0.1376
 7689TIP3    H144482   0.544   1.040  12.284 -0.1274  1.0365  0.7587
 7689TIP3    H244483   0.462   0.969  12.390 -0.0748  0.1372  0.2111
 7690TIP3   OH244484   3.632   5.317   0.243 -0.2286 -0.4633 -0.7956
 7690TIP3    H144485   3.563   5.255   0.266 -1.8805  1.4203 -0.4401
 7690TIP3    H244486   3.704   5.295   0.302 -1.4616 -0.8605  0.6250
 7691TIP3   OH244487   5.946   6.271  11.856  0.2523  0.3220 -0.1299
 7691TIP3    H144488   5.890   6.348  11.860  0.0200  0.1978 -0.8029
 7691TIP3    H244489   5.921   6.227  11.775  1.0987  0.0918 -0.2797
 7692TIP3   OH244490   6.397   2.821   0.984 -0.1700  0.4384  0.3756
 7692TIP3    H144491   6.433   2.868   0.909 -0.3281  2.1420  1.3038
 7692TIP3    H244492   6.351   2.746   0.946 -1.9138  2.2780 -1.4351
 7693TIP3   OH244493   2.816   2.012   5.807 -0.1200 -0.0537 -0.0797
 7693TIP3    H144494   2.869   2.089   5.827  1.5871 -0.5354 -2.2586
 7693TIP3    H244495   2.842   1.988   5.718  0.7901 -4.1544  1.0688
 7694TIP3   OH244496   2.372   6.710   4.806 -0.0468 -0.0094 -0.7742
 7694TIP3    H144497   2.330   6.690   4.890  1.1421 -3.2266 -0.8119
 7694TIP3    H244498   2.464   6.720   4.827  0.4597 -2.0639 -1.7550
 7695TIP3   OH244499   6.215   3.683   5.670  0.2510 -0.2031  0.2567
 7695TIP3    H144500   6.151   3.635   5.618  0.1817 -1.7483  1.6906
 7695TIP3    H244501   6.214   3.771   5.634 -0.1330 -1.0735 -2.0286
 7696TIP3   OH244502   4.107   6.569   0.269  1.2533 -0.3432  0.4855
 7696TIP3    H144503   4.155   6.490   0.246 -1.4890 -1.5368 -1.6719
 7696TIP3    H244504   4.127   6.630   0.198  0.6724 -0.3586  0.3057
 7697TIP3   OH244505   2.649   4.586  13.627  0.1176 -0.3934  0.1814
 7697TIP3    H144506   2.558   4.565  13.649  0.3497 -0.2041  1.3786
 7697TIP3    H244507   2.692   4.599  13.711  1.0614  0.3625 -0.3966
 7698TIP3   OH244508   2.908   0.571  16.905 -0.2725 -0.0434 -0.2883
 7698TIP3    H144509   2.814   0.575  16.923 -0.3580  0.2243 -0.7727
 7698TIP3    H244510   2.948   0.549  16.989 -0.9152 -1.9410 -0.4275
 7699TIP3   OH244511   2.657   3.590  12.246  0.6586  0.0930  0.3712
 7699TIP3    H144512   2.562   3.581  12.238  0.3802  2.3955  0.2756
 7699TIP3    H244513   2.672   3.608  12.339  1.0436 -0.5155  0.4341
 7700TIP3   OH244514   1.393   3.953   2.127  0.3984  0.0317  0.8307
 7700TIP3    H144515   1.382   3.987   2.216 -1.7432 -0.4043  0.7991
 7700TIP3    H244516   1.334   4.008   2.074  0.0918 -1.0192  0.0578
 7701TIP3   OH244517   3.321   4.265   2.553  0.8981 -0.4989 -0.0248
 7701TIP3    H144518   3.369   4.346   2.536  1.5630 -1.0346 -0.7436
 7701TIP3    H244519   3.328   4.252   2.648  0.8804  0.2142  0.0804
 7702TIP3   OH244520   2.350   2.026  10.907 -0.5553 -0.6266 -0.5557
 7702TIP3    H144521   2.347   2.041  11.001 -0.4551 -0.9303 -0.5029
 7702TIP3    H244522   2.292   2.093  10.870  0.5859  0.4696 -0.4073
 7703TIP3   OH244523   6.553   5.414   2.798  0.9018  0.1539  0.1262
 7703TIP3    H144524   6.610   5.482   2.763 -0.7133  0.8033 -1.3776
 7703TIP3    H244525   6.593   5.331   2.770  2.2411  0.4779  0.9746
 7704TIP3   OH244526   0.491   6.507   0.946 -0.2895 -0.0974 -0.1246
 7704TIP3    H144527   0.447   6.425   0.969  0.1128 -0.1845  0.3502
 7704TIP3    H244528   0.584   6.491   0.967 -0.3783  0.8979  1.1816
 7705TIP3   OH244529   0.301   0.471   5.046 -0.4533 -0.3520 -0.0795
 7705TIP3    H144530   0.326   0.403   4.984  0.7665 -0.0267  0.0161
 7705TIP3    H244531   0.385   0.508   5.076 -1.0408  0.1056  1.0743
 7706TIP3   OH244532   2.378   1.955   0.163 -0.3127  0.1900 -0.1163
 7706TIP3    H144533   2.421   1.936   0.246 -0.9559  1.7784  0.6398
 7706TIP3    H244534   2.437   1.922   0.096  1.7902  1.7259  0.8905
 7707TIP3   OH244535   4.635   3.290  15.390 -0.0426  0.0603 -0.1889
 7707TIP3    H144536   4.603   3.375  15.357  0.2524  0.5686  0.7881
 7707TIP3    H244537   4.616   3.293  15.484 -0.1468 -1.0229 -0.1637
 7708TIP3   OH244538   3.802   4.620   5.668  0.2006 -0.3706  0.3898
 7708TIP3    H144539   3.716   4.636   5.707  1.1959  0.0584  2.5549
 7708TIP3    H244540   3.846   4.561   5.729  2.0829  0.8389  0.3025
 7709TIP3   OH244541   6.725   3.262   1.136 -0.1258 -0.4976 -0.1053
 7709TIP3    H144542   6.673   3.262   1.217 -0.3866 -0.7782 -0.2706
 7709TIP3    H244543   6.803   3.212   1.158  0.7153  1.0191  0.5397
 7710TIP3   OH244544   2.984   1.434   1.862  0.9804 -0.2312  0.1814
 7710TIP3    H144545   3.031   1.424   1.778  0.5426 -0.7816 -0.0025
 7710TIP3    H244546   2.893   1.449   1.837  1.3592  3.2224  0.4576
 7711TIP3   OH244547   4.891   5.127  16.327 -0.5668  0.2437 -0.3823
 7711TIP3    H144548   4.816   5.073  16.350 -0.6182 -0.5588 -2.2382
 7711TIP3    H244549   4.897   5.191  16.398 -3.1555  0.5203 -0.3052
 7712TIP3   OH244550   2.637   0.855  15.015 -0.0203  0.3082 -0.2635
 7712TIP3    H144551   2.650   0.868  14.921 -1.9235  0.4368 -0.5387
 7712TIP3    H244552   2.569   0.917  15.040  0.4829  0.3212  1.2425
 7713TIP3   OH244553   2.616   3.269  16.074  0.1141  0.1493 -0.1579
 7713TIP3    H144554   2.525   3.264  16.105 -0.1604  1.1133 -0.7627
 7713TIP3    H244555   2.668   3.272  16.154 -0.5309  1.6322  0.2473
 7714TIP3   OH244556   3.024   6.317  17.151  0.0193 -0.0271  0.3887
 7714TIP3    H144557   3.112   6.354  17.156  0.2782 -0.7458  1.8136
 7714TIP3    H244558   3.021   6.253  17.222 -1.4803 -0.4049  0.0249
 7715TIP3   OH244559   4.293   4.146   3.984  0.2735  0.5894  0.2553
 7715TIP3    H144560   4.207   4.183   4.003 -1.0976 -0.7866 -2.7427
 7715TIP3    H244561   4.281   4.052   3.991  0.4055  0.1171 -3.7630
 7716TIP3   OH244562   4.336   1.818   5.349  0.1895 -0.2631  0.0486
 7716TIP3    H144563   4.319   1.752   5.282  1.3926  0.3071 -0.8565
 7716TIP3    H244564   4.430   1.809   5.369  0.3595  1.1070 -0.0378
 7717TIP3   OH244565   5.460   5.888   3.403  0.1171  0.0758 -0.4325
 7717TIP3    H144566   5.499   5.903   3.489 -1.1041  0.4918  0.0662
 7717TIP3    H244567   5.429   5.974   3.376 -2.7783 -0.6198  0.3634
 7718TIP3   OH244568   3.282   1.729  11.507 -0.0849  0.6960 -0.2376
 7718TIP3    H144569   3.352   1.671  11.536 -1.6513 -0.6120  1.1209
 7718TIP3    H244570   3.258   1.697  11.420 -0.9777 -0.8215  0.5196
 7719TIP3   OH244571   3.175   2.815   1.663  0.0877  0.1995 -0.0272
 7719TIP3    H144572   3.225   2.743   1.625 -0.9347 -0.7262  0.3253
 7719TIP3    H244573   3.193   2.890   1.606  1.0757 -0.3637 -0.4681
 7720TIP3   OH244574   3.989   1.304  15.023  0.1257  0.5363 -0.5413
 7720TIP3    H144575   3.982   1.239  15.093  0.3900  0.6687 -0.3875
 7720TIP3    H244576   4.081   1.330  15.024  0.6220 -0.9764 -2.3298
 7721TIP3   OH244577   1.388   1.815   0.079 -0.4265 -0.8296  0.0951
 7721TIP3    H144578   1.473   1.775   0.059  0.8567  1.2744  0.9177
 7721TIP3    H244579   1.406   1.870   0.155 -2.1694  0.8560 -0.6432
 7722TIP3   OH244580   2.977   2.610   6.176 -0.0707  0.0456  0.0667
 7722TIP3    H144581   3.057   2.558   6.176  0.0127  0.1740  0.0087
 7722TIP3    H244582   2.906   2.546   6.164 -0.1353 -0.3129  2.0382
 7723TIP3   OH244583   1.143   3.696   3.673 -0.9649 -0.3248 -0.5335
 7723TIP3    H144584   1.059   3.662   3.703 -1.4252  0.9302 -0.3344
 7723TIP3    H244585   1.165   3.644   3.597 -1.2199 -1.6213  0.2542
 7724TIP3   OH244586   2.321   1.773  11.238  0.0044 -0.2794  0.2011
 7724TIP3    H144587   2.241   1.726  11.214 -0.7724  0.0161  2.0937
 7724TIP3    H244588   2.364   1.716  11.302 -0.0475  0.7811  1.1974
 7725TIP3   OH244589   2.461   4.372   2.108 -0.7296 -0.1534  0.4245
 7725TIP3    H144590   2.537   4.364   2.050 -0.3077 -1.0893  1.0706
 7725TIP3    H244591   2.499   4.394   2.194 -0.8881 -2.9404  1.3295
 7726TIP3   OH244592   0.270   6.592   4.238  0.0835  0.5278  0.4416
 7726TIP3    H144593   0.293   6.670   4.187  1.4779  0.1642  0.4508
 7726TIP3    H244594   0.300   6.612   4.327  2.5249 -0.7977  0.0104
 7727TIP3   OH244595   6.449   4.685  13.293 -0.2019 -0.1957  0.6953
 7727TIP3    H144596   6.502   4.738  13.354  0.7672 -1.3000  0.8488
 7727TIP3    H244597   6.500   4.684  13.212 -0.9054  0.2593  0.2354
 7728TIP3   OH244598   0.302   0.371   2.171 -0.6516  0.4105  0.0342
 7728TIP3    H144599   0.262   0.346   2.254 -0.8190  3.0330  0.8571
 7728TIP3    H244600   0.395   0.385   2.192  0.1911 -2.6600 -1.1723
 7729TIP3   OH244601   1.701   0.249   5.225  0.2097 -0.1502 -0.5176
 7729TIP3    H144602   1.680   0.342   5.227  0.0317 -0.1867 -0.6617
 7729TIP3    H244603   1.693   0.220   5.316 -1.1323 -0.3351 -0.6812
 7730TIP3   OH244604   6.166   0.348  16.318  0.2137  0.2470  0.1620
 7730TIP3    H144605   6.147   0.344  16.225  0.7441  0.8941  0.0178
 7730TIP3    H244606   6.084   0.379  16.358  0.4492  1.4623 -0.2682
 7731TIP3   OH244607   6.698   0.139  15.971 -0.4379  0.6042 -0.3098
 7731TIP3    H144608   6.660   0.195  15.903  0.8713 -1.4110 -2.8979
 7731TIP3    H244609   6.779   0.183  15.996  1.3014 -0.5729 -3.3247
 7732TIP3   OH244610   3.822   1.358   3.864 -0.6932 -0.5762 -0.2339
 7732TIP3    H144611   3.809   1.448   3.835  0.5517  0.2230  1.5036
 7732TIP3    H244612   3.858   1.313   3.788  0.0963  0.7900 -0.7016
 7733TIP3   OH244613   1.407   6.207   3.636  0.6750  0.1922  0.1546
 7733TIP3    H144614   1.386   6.300   3.627  1.1372  0.3125  0.2458
 7733TIP3    H244615   1.489   6.207   3.686 -0.3689 -0.3463  1.9441
 7734TIP3   OH244616   5.637   4.524   3.047  0.2045  0.3979 -0.5376
 7734TIP3    H144617   5.568   4.468   3.012 -0.4139  1.1174 -0.4932
 7734TIP3    H244618   5.710   4.512   2.986  0.4093 -1.1246 -0.0366
 7735TIP3   OH244619   5.785   6.718  13.566 -0.0699 -0.4610 -0.1050
 7735TIP3    H144620   5.820   6.633  13.541  3.3044  0.7577 -0.0299
 7735TIP3    H244621   5.776   6.766  13.483  1.1575  0.1269  0.0765
 7736TIP3   OH244622   4.629   2.906  16.682  0.3130  0.2118 -0.2564
 7736TIP3    H144623   4.615   2.819  16.719  0.0014  0.1497 -0.5076
 7736TIP3    H244624   4.540   2.940  16.667  0.4192  1.0137  0.8523
 7737TIP3   OH244625   4.015   4.745  11.022  0.2823  0.0242  0.6072
 7737TIP3    H144626   4.076   4.680  10.987  0.7311  1.0571 -0.5887
 7737TIP3    H244627   3.979   4.789  10.945  0.2624  1.4444  1.3793
 7738TIP3   OH244628   6.380   5.966  15.111 -0.1142 -0.1571 -0.5041
 7738TIP3    H144629   6.333   6.021  15.173 -0.6520 -0.7948 -0.3288
 7738TIP3    H244630   6.317   5.948  15.042 -0.0535 -0.7997 -0.4020
 7739TIP3   OH244631   4.583   6.378   0.767  0.4032 -0.5519  0.4039
 7739TIP3    H144632   4.596   6.473   0.765  1.0086 -0.6479 -1.3525
 7739TIP3    H244633   4.488   6.367   0.758  0.4139 -0.1185 -0.3294
 7740TIP3   OH244634   4.033   6.517   3.026 -0.0832  0.1884 -0.3863
 7740TIP3    H144635   3.956   6.460   3.030 -0.3987  0.6277 -0.0664
 7740TIP3    H244636   4.025   6.562   2.942  1.1388 -1.5663 -1.4921
 7741TIP3   OH244637   4.263   5.717   3.797 -0.2653  0.1668 -0.0005
 7741TIP3    H144638   4.301   5.802   3.821 -1.7759  0.5546  1.1935
 7741TIP3    H244639   4.169   5.728   3.812 -0.4402 -1.9110  0.7800
 7742TIP3   OH244640   2.754   6.391   2.769  0.1730 -0.4338 -0.6773
 7742TIP3    H144641   2.740   6.477   2.728  0.6324 -0.7872 -1.6016
 7742TIP3    H244642   2.849   6.379   2.769  0.1753 -0.4857  0.4296
 7743TIP3   OH244643   5.837   3.248   6.108  0.1668  0.3988 -0.1153
 7743TIP3    H144644   5.835   3.299   6.189  1.5545  1.1458 -0.5287
 7743TIP3    H244645   5.888   3.170   6.130 -0.5595 -0.0466  0.0582
 7744TIP3   OH244646   6.384   2.356   5.232  0.1457  0.1516 -0.3128
 7744TIP3    H144647   6.399   2.335   5.139  1.0719  0.3445 -0.2235
 7744TIP3    H244648   6.291   2.373   5.238  0.5387  3.6589 -1.9583
 7745TIP3   OH244649   5.791   4.908  11.114 -0.1659  0.7438 -0.1013
 7745TIP3    H144650   5.790   4.879  11.023 -0.0588 -0.0434  0.1482
 7745TIP3    H244651   5.699   4.923  11.136 -0.2909 -0.0923 -0.0198
 7746TIP3   OH244652   3.710   3.356  14.049  0.5865  0.4985 -0.5846
 7746TIP3    H144653   3.775   3.363  13.978 -1.0937 -0.1184 -2.2655
 7746TIP3    H244654   3.639   3.305  14.011 -1.0905  1.5182  1.0369
 7747TIP3   OH244655   0.044   4.998  12.331 -0.2691 -0.4923 -0.4616
 7747TIP3    H144656   0.099   4.992  12.253  1.5146 -0.3515  0.7282
 7747TIP3    H244657   0.083   5.068  12.383 -2.3424  0.4663 -0.0996
 7748TIP3   OH244658   1.613   4.228  13.527  0.3573 -0.3009  0.3920
 7748TIP3    H144659   1.624   4.246  13.434  2.3079 -0.2910  0.5851
 7748TIP3    H244660   1.538   4.282  13.553  1.9499  2.5621 -0.4637
 7749TIP3   OH244661   4.591   2.131  15.759  0.3416  0.3889 -0.2381
 7749TIP3    H144662   4.560   2.047  15.724  2.6742  0.4270 -2.6756
 7749TIP3    H244663   4.610   2.112  15.851 -2.0187 -0.8844  0.0793
 7750TIP3   OH244664   5.024   4.686   5.919  0.1056 -0.3429 -0.2423
 7750TIP3    H144665   4.992   4.596   5.913 -2.3710  0.3858  0.8252
 7750TIP3    H244666   4.997   4.716   6.005  0.6891  1.5155 -0.6545
 7751TIP3   OH244667   4.606   0.812  10.863 -0.4310  0.1440  0.4234
 7751TIP3    H144668   4.533   0.874  10.864 -0.7462 -0.2285  0.5151
 7751TIP3    H244669   4.566   0.727  10.881  0.1132  0.0399  1.2157
 7752TIP3   OH244670   0.163   5.381  16.662  0.1944 -0.1295 -0.7309
 7752TIP3    H144671   0.213   5.448  16.709  2.2532 -0.9820 -1.5702
 7752TIP3    H244672   0.202   5.298  16.688 -2.1104 -1.0474  0.0446
 7753TIP3   OH244673   0.010   1.407   2.246 -0.3323 -0.0662 -0.0832
 7753TIP3    H144674   0.026   1.316   2.222  0.1551  0.3456 -1.3789
 7753TIP3    H244675  -0.051   1.440   2.181  0.2223  0.7955 -0.1892
 7754TIP3   OH244676   0.062   2.451  15.205 -0.3551 -0.1616 -0.1044
 7754TIP3    H144677  -0.031   2.433  15.219 -0.4629  0.5533  0.1117
 7754TIP3    H244678   0.067   2.479  15.113 -0.4305  0.2926  0.0282
 7755TIP3   OH244679   0.868   3.674  14.679  0.1160 -0.1132  0.3345
 7755TIP3    H144680   0.855   3.612  14.751 -0.4087  1.2921  1.5038
 7755TIP3    H244681   0.826   3.754  14.709  1.3813  1.0323 -0.8213
 7756TIP3   OH244682   5.135   0.585   1.027  0.2757  0.0241  0.0849
 7756TIP3    H144683   5.059   0.638   1.050  1.3169  0.9003  1.6827
 7756TIP3    H244684   5.125   0.568   0.933 -1.6164  0.5252  0.1684
 7757TIP3   OH244685   6.156   0.510  12.197  0.0700  0.3013  0.4476
 7757TIP3    H144686   6.243   0.551  12.205  0.5103 -0.3231 -0.8138
 7757TIP3    H244687   6.105   0.573  12.145  0.3318 -0.1114 -0.3306
 7758TIP3   OH244688   2.401   2.227   0.507  0.0300 -0.0388 -0.5170
 7758TIP3    H144689   2.335   2.168   0.470  1.0739 -0.8457 -1.1457
 7758TIP3    H244690   2.353   2.280   0.571 -1.3639 -0.1045 -1.4728
 7759TIP3   OH244691   6.422   5.739   3.703 -0.1636  0.4198  0.4185
 7759TIP3    H144692   6.468   5.676   3.760 -1.2199  0.2435  1.1045
 7759TIP3    H244693   6.330   5.731   3.729 -1.1148 -1.4101 -2.9272
 7760TIP3   OH244694   5.158   1.125  14.600 -0.3422  0.0046 -0.3631
 7760TIP3    H144695   5.125   1.209  14.570  1.3231  0.6591 -0.4763
 7760TIP3    H244696   5.251   1.125  14.575 -0.2648 -1.8026 -0.2363
 7761TIP3   OH244697   6.150   6.324   0.852 -0.0782 -0.0055 -0.4747
 7761TIP3    H144698   6.095   6.280   0.786 -0.1579  1.1375 -1.2111
 7761TIP3    H244699   6.169   6.410   0.813  2.3299 -0.3862 -0.2976
 7762TIP3   OH244700   0.719   0.334  10.904 -0.4584 -0.4568 -0.4231
 7762TIP3    H144701   0.651   0.343  10.836 -0.7672 -0.7481 -0.1560
 7762TIP3    H244702   0.670   0.315  10.984  0.0052 -1.7841 -0.4401
 7763TIP3   OH244703   1.594   0.992   5.731  0.2465  0.5366  0.1968
 7763TIP3    H144704   1.603   0.905   5.692  1.6961 -0.0600  1.7501
 7763TIP3    H244705   1.680   1.011   5.769  0.4605  3.3570 -1.4183
 7764TIP3   OH244706   3.088   1.636   1.478 -0.4253  0.2291  0.4520
 7764TIP3    H144707   3.126   1.689   1.408  0.9673 -0.2915  0.7702
 7764TIP3    H244708   3.003   1.607   1.443 -0.8432  1.9641 -0.0395
 7765TIP3   OH244709   3.143   0.165   2.493  0.2764 -0.0817  0.1416
 7765TIP3    H144710   3.052   0.158   2.465  0.4112 -0.9016 -0.1137
 7765TIP3    H244711   3.153   0.100   2.563 -0.1867  2.2901  2.5585
 7766TIP3   OH244712   2.352   5.279  12.063  0.1270  0.0570  0.2664
 7766TIP3    H144713   2.438   5.299  12.101 -0.9933  0.4737  2.8443
 7766TIP3    H244714   2.333   5.190  12.092 -1.0209  0.6014  1.3060
 7767TIP3   OH244715   5.860   0.310  15.716  0.2501  0.7222  0.2615
 7767TIP3    H144716   5.784   0.332  15.662  0.5849  1.7960  0.1832
 7767TIP3    H244717   5.878   0.391  15.765  0.8129  0.2073  0.9150
 7768TIP3   OH244718   2.390   3.166  10.837 -0.0732  0.2748 -0.2762
 7768TIP3    H144719   2.465   3.116  10.804  1.0128  0.4334  1.7661
 7768TIP3    H244720   2.423   3.255  10.847 -0.9708  0.6605 -0.7035
 7769TIP3   OH244721   1.312   4.931  13.130 -0.1430  0.4624 -0.0885
 7769TIP3    H144722   1.338   4.894  13.045  0.4747 -1.6785  0.9625
 7769TIP3    H244723   1.228   4.891  13.149 -0.6244  1.4961  0.0116
 7770TIP3   OH244724   5.863   0.044   4.831 -0.5010  0.0087  0.2111
 7770TIP3    H144725   5.936  -0.016   4.817 -0.4480  0.5776 -2.5923
 7770TIP3    H244726   5.785  -0.010   4.814 -0.5596  0.1769 -0.0585
 7771TIP3   OH244727   2.958   3.808  10.352  0.5482  0.1131 -0.3388
 7771TIP3    H144728   2.942   3.716  10.333 -0.2559 -0.2530  1.8340
 7771TIP3    H244729   3.053   3.813  10.369  0.4507 -0.5258  0.4569
 7772TIP3   OH244730   1.360   5.582  15.722 -0.0689  0.0207  0.2985
 7772TIP3    H144731   1.266   5.600  15.716  0.2132  1.7219  0.3916
 7772TIP3    H244732   1.395   5.656  15.771  1.4625 -0.0634 -0.5975
 7773TIP3   OH244733   5.010   3.793   0.867  0.0718 -0.4703 -0.1495
 7773TIP3    H144734   4.975   3.774   0.780 -1.2899  1.8850 -0.1940
 7773TIP3    H244735   4.932   3.802   0.922  0.9111 -1.6480  1.2796
 7774TIP3   OH244736   5.394   0.293   6.040  0.0310  0.7505  0.0967
 7774TIP3    H144737   5.366   0.223   6.099 -1.7497  2.1473  1.0041
 7774TIP3    H244738   5.438   0.356   6.097  0.1892  1.1265 -0.4334
 7775TIP3   OH244739   4.492   0.634   3.634 -0.5368 -0.9783 -0.0448
 7775TIP3    H144740   4.421   0.665   3.691 -0.0163 -0.8750  0.5675
 7775TIP3    H244741   4.552   0.589   3.694 -1.3893 -3.4405 -0.9449
 7776TIP3   OH244742   5.947   4.610   4.516  0.2678  0.3949 -0.3278
 7776TIP3    H144743   5.950   4.577   4.605 -0.8527  1.7624  0.2591
 7776TIP3    H244744   5.916   4.536   4.463  1.7172 -0.6725  0.2458
 7777TIP3   OH244745   6.181   2.165   5.988  0.3178 -0.8786  0.4878
 7777TIP3    H144746   6.119   2.103   5.950 -1.0223  0.7943 -0.1899
 7777TIP3    H244747   6.130   2.216   6.050  1.4647 -0.6622  1.2904
 7778TIP3   OH244748   3.465   1.658  15.142 -0.8813 -0.1867  0.3421
 7778TIP3    H144749   3.406   1.620  15.076  0.1668 -2.0813  0.4325
 7778TIP3    H244750   3.485   1.585  15.200  2.1224  0.1874 -0.0908
 7779TIP3   OH244751   4.405   6.462   1.972  0.0433 -0.3083  0.2464
 7779TIP3    H144752   4.364   6.472   1.886 -0.1974  1.2553  0.5228
 7779TIP3    H244753   4.473   6.530   1.975  1.4737 -1.6820  0.5086
 7780TIP3   OH244754   4.216   5.107  12.513 -0.1065 -0.5097  0.1973
 7780TIP3    H144755   4.129   5.146  12.505 -0.6677 -1.6873  0.4462
 7780TIP3    H244756   4.255   5.150  12.589 -1.3207 -1.5416  1.4361
 7781TIP3   OH244757   0.201   6.641   4.502  0.0412  0.4866  0.7186
 7781TIP3    H144758   0.161   6.708   4.446 -0.6195 -0.3352  0.1878
 7781TIP3    H244759   0.127   6.586   4.529  0.6745 -0.4343  0.5814
 7782TIP3   OH244760   3.149   5.883  11.269  0.1820 -0.1256 -0.2346
 7782TIP3    H144761   3.074   5.935  11.241  0.4070  0.1787 -0.2783
 7782TIP3    H244762   3.177   5.924  11.351 -0.0098 -0.5491  0.0507
 7783TIP3   OH244763   1.767   6.506   0.125  0.6351 -0.4858  0.6579
 7783TIP3    H144764   1.677   6.514   0.156  0.3513 -1.2602  0.0779
 7783TIP3    H244765   1.763   6.438   0.058  1.5140  0.0452  0.0509
 7784TIP3   OH244766   2.377   0.922  15.800 -0.0273  0.5273  0.2869
 7784TIP3    H144767   2.351   0.990  15.862  1.2663  1.0891  0.2441
 7784TIP3    H244768   2.469   0.941  15.781  0.0444 -0.5921 -0.5697
 7785TIP3   OH244769   4.150   1.934  11.201  0.3292  0.0787 -0.7341
 7785TIP3    H144770   4.182   1.939  11.111 -0.0574  1.4438 -0.8225
 7785TIP3    H244771   4.099   1.853  11.204 -0.5740  0.5673 -2.0779
 7786TIP3   OH244772   5.807   4.730   1.084 -0.2229 -0.0566 -0.3534
 7786TIP3    H144773   5.899   4.754   1.084 -0.4481  0.9982 -2.1450
 7786TIP3    H244774   5.807   4.636   1.070  0.5797 -0.2038  0.5313
 7787TIP3   OH244775   1.541   2.694   4.516  0.0055  0.1325  0.5242
 7787TIP3    H144776   1.485   2.628   4.475  0.4642 -1.2876  2.0345
 7787TIP3    H244777   1.521   2.687   4.609  0.4244  1.8234  0.7689
 7788TIP3   OH244778   0.606   1.947   4.469  0.2518  0.5648 -0.3020
 7788TIP3    H144779   0.536   1.901   4.422  0.9820  0.5749 -1.4378
 7788TIP3    H244780   0.568   2.031   4.493 -0.2157  0.4680 -0.6879
 7789TIP3   OH244781   0.284   4.528  13.468 -0.1229 -0.1295 -0.0478
 7789TIP3    H144782   0.271   4.620  13.490 -0.2796 -0.1555 -0.0292
 7789TIP3    H244783   0.196   4.493  13.456 -0.0509 -0.1845 -0.4383
 7790TIP3   OH244784   2.275   0.447   5.212 -0.3384  0.6180  0.2220
 7790TIP3    H144785   2.242   0.407   5.132  2.3471 -0.7698 -0.3219
 7790TIP3    H244786   2.328   0.521   5.182  1.2344 -0.3083  0.5720
 7791TIP3   OH244787   4.330   1.327   1.092  0.3723  0.1070 -0.0758
 7791TIP3    H144788   4.355   1.236   1.080  1.8298  0.5109 -0.3147
 7791TIP3    H244789   4.235   1.328   1.081  0.3490 -1.3512 -0.1827
 7792TIP3   OH244790   4.760   6.353   1.791 -0.4448 -0.4862  0.4929
 7792TIP3    H144791   4.850   6.339   1.819  0.6081  2.0143 -1.1970
 7792TIP3    H244792   4.753   6.309   1.707 -0.8578 -0.7998  0.6864
 7793TIP3   OH244793   6.281   2.590   1.272  0.3191 -0.5822  0.0596
 7793TIP3    H144794   6.269   2.578   1.177  0.7488 -0.8598  0.0375
 7793TIP3    H244795   6.316   2.679   1.280  0.1789 -0.5172 -0.0323
 7794TIP3   OH244796   0.328   2.504   2.401  0.3229 -0.1953 -0.3270
 7794TIP3    H144797   0.301   2.595   2.390 -1.1176 -0.7104 -1.3172
 7794TIP3    H244798   0.324   2.467   2.313  0.2971 -1.3680  0.1558
 7795TIP3   OH244799   4.914   6.088  16.372 -0.0287  0.0954 -0.8590
 7795TIP3    H144800   4.907   6.013  16.314 -0.6240  0.2559 -0.9988
 7795TIP3    H244801   4.864   6.064  16.450 -0.0380  0.2610 -0.8123
 7796TIP3   OH244802   0.522   1.367  13.239  0.0356  0.4378 -0.4559
 7796TIP3    H144803   0.532   1.459  13.215  1.0999  0.4837  0.0977
 7796TIP3    H244804   0.586   1.353  13.309  0.0590 -0.7781 -0.6907
 7797TIP3   OH244805   4.449   3.767   2.343  0.2063 -0.1342  0.3492
 7797TIP3    H144806   4.443   3.673   2.358  0.4240 -0.1373  0.4180
 7797TIP3    H244807   4.532   3.793   2.382  0.1714  0.0789  0.2871
 7798TIP3   OH244808   2.573   6.703   6.179 -0.2096  0.0323  0.4741
 7798TIP3    H144809   2.662   6.718   6.212 -0.2551  1.5432  0.0239
 7798TIP3    H244810   2.582   6.711   6.084 -0.7727 -0.1428  0.4044
 7799TIP3   OH244811   1.936   5.946  15.496 -0.1273 -0.2395  0.5529
 7799TIP3    H144812   1.920   6.038  15.472  0.7607  0.1020  1.2305
 7799TIP3    H244813   1.964   5.950  15.587  0.2581 -1.1603  0.4809
 7800TIP3   OH244814   6.567   0.681   2.993  0.3933 -0.1110  0.6656
 7800TIP3    H144815   6.610   0.767   2.983  0.4886 -0.0302  1.6891
 7800TIP3    H244816   6.540   0.658   2.904  3.3250 -0.5762 -0.1989
 7801TIP3   OH244817   0.971   3.802  11.465 -0.0465 -0.2468  0.6731
 7801TIP3    H144818   1.065   3.816  11.467 -0.1206  0.2844  0.5247
 7801TIP3    H244819   0.938   3.847  11.543 -0.5512  2.5173 -0.9993
 7802TIP3   OH244820   3.536   0.366  14.089  0.2272 -0.3114 -0.8021
 7802TIP3    H144821   3.564   0.432  14.152 -0.1617 -1.8000  1.0420
 7802TIP3    H244822   3.509   0.415  14.012  0.0811  1.6505  0.4512
 7803TIP3   OH244823   5.271   0.205   2.525  0.2737 -0.6339 -0.2910
 7803TIP3    H144824   5.241   0.153   2.451 -1.0442  2.2247 -1.9250
 7803TIP3    H244825   5.206   0.190   2.594  0.0266 -1.2670 -0.6598
 7804TIP3   OH244826   4.675   2.811  14.494 -0.4746 -0.4735 -0.4227
 7804TIP3    H144827   4.580   2.808  14.502 -0.3439 -0.5667  1.7413
 7804TIP3    H244828   4.692   2.800  14.400 -2.5812 -0.2912 -0.8681
 7805TIP3   OH244829   3.899   2.676  15.301 -0.0952  0.8254 -0.0687
 7805TIP3    H144830   3.827   2.698  15.360  0.7788 -0.3180  1.5153
 7805TIP3    H244831   3.921   2.586  15.324  1.8572  1.1625 -0.5008
 7806TIP3   OH244832   4.024   6.631   2.280  0.2043  0.1420  0.0334
 7806TIP3    H144833   4.082   6.578   2.225  0.3945 -0.0469  0.4141
 7806TIP3    H244834   3.967   6.676   2.217  0.0056 -0.5487 -0.2957
 7807TIP3   OH244835   5.541   2.070  16.966  0.4533  0.2058 -0.0780
 7807TIP3    H144836   5.498   1.986  16.982  0.8130  0.3567  2.0114
 7807TIP3    H244837   5.622   2.047  16.920  0.3583 -0.5685  0.1254
 7808TIP3   OH244838   5.669   1.949   1.580 -0.3559  0.1623 -0.3186
 7808TIP3    H144839   5.614   1.872   1.591 -0.4892  0.0471 -1.6808
 7808TIP3    H244840   5.608   2.020   1.561 -0.1916  0.5088  0.3894
 7809TIP3   OH244841   4.446   0.643  11.656  0.1357  0.2153 -0.1319
 7809TIP3    H144842   4.445   0.601  11.741  0.1769 -2.7132 -1.4685
 7809TIP3    H244843   4.503   0.719  11.667  1.7003 -1.1701  1.9501
 7810TIP3   OH244844   4.437   3.558  11.923  0.1132 -0.1928 -0.4445
 7810TIP3    H144845   4.472   3.510  11.847 -1.4022 -1.3326 -0.4786
 7810TIP3    H244846   4.408   3.489  11.983  0.2668  0.7022  0.6835
 7811TIP3   OH244847   0.376   4.333   0.481  0.1430 -0.1320  0.8018
 7811TIP3    H144848   0.382   4.344   0.576  0.3766  0.2998  0.7383
 7811TIP3    H244849   0.460   4.365   0.448  0.1022 -0.3786  0.4583
 7812TIP3   OH244850   5.489   4.703  13.816  0.3659  0.0816 -0.4311
 7812TIP3    H144851   5.474   4.783  13.867  0.4223 -0.2833  0.1610
 7812TIP3    H244852   5.556   4.729  13.752 -1.8863  1.4291 -2.4238
 7813TIP3   OH244853   0.140   0.914  14.667 -0.2783 -0.5504  0.0437
 7813TIP3    H144854   0.198   0.971  14.618 -0.8866  1.9590  2.0462
 7813TIP3    H244855   0.197   0.867  14.728 -0.2062  2.3117  2.3931
 7814TIP3   OH244856   1.901   2.646   0.039  0.1477  0.2204 -0.3146
 7814TIP3    H144857   1.866   2.560   0.063  1.6583 -0.1179  0.8107
 7814TIP3    H244858   1.958   2.629  -0.036  0.3587  0.2562 -0.1626
 7815TIP3   OH244859   1.573   3.400   0.559  0.1685 -0.3802  0.4066
 7815TIP3    H144860   1.573   3.368   0.469 -0.0654 -1.6769  0.8415
 7815TIP3    H244861   1.514   3.340   0.605  1.8099 -0.9489  1.8337
 7816TIP3   OH244862   3.727   6.204  12.519  0.4058 -0.2754  0.0093
 7816TIP3    H144863   3.821   6.218  12.530  0.0204  0.7866  2.7646
 7816TIP3    H244864   3.693   6.289  12.492 -0.0581  0.2470  2.0126
 7817TIP3   OH244865   6.682   3.868  10.997  0.5735 -0.0372 -0.0434
 7817TIP3    H144866   6.605   3.818  10.969  0.6319  0.5642 -1.3694
 7817TIP3    H244867   6.709   3.826  11.078 -1.0686 -0.3628  0.3897
 7818TIP3   OH244868   0.493   0.521  15.290 -0.3782  0.8334  0.4770
 7818TIP3    H144869   0.455   0.515  15.202  0.2628  1.7739  0.1339
 7818TIP3    H244870   0.575   0.472  15.283  0.2339  1.8810  0.2326
 7819TIP3   OH244871   4.937   4.177   2.844  0.2628  0.3299 -0.2412
 7819TIP3    H144872   4.897   4.248   2.895 -2.3898 -2.0327  1.2209
 7819TIP3    H244873   4.896   4.183   2.758 -1.6988 -0.6868  0.5616
 7820TIP3   OH244874   0.658   1.746   2.536  0.4206  0.3684 -0.0311
 7820TIP3    H144875   0.714   1.671   2.517  0.4309  0.6709 -1.2881
 7820TIP3    H244876   0.587   1.710   2.589 -0.1324 -0.7726 -1.4637
 7821TIP3   OH244877   0.526   3.139  15.559 -0.0383 -0.1585 -0.1452
 7821TIP3    H144878   0.579   3.210  15.596  0.5433  0.6117 -2.2771
 7821TIP3    H244879   0.489   3.094  15.635 -2.1376  3.6500  1.3595
 7822TIP3   OH244880   5.707   0.018   3.196 -0.0557  0.1549  0.2514
 7822TIP3    H144881   5.659  -0.064   3.198  0.7242 -0.2938  1.0691
 7822TIP3    H244882   5.777   0.007   3.260 -1.0043  2.1013  1.7392
 7823TIP3   OH244883   2.808   1.257   2.025 -0.1741  0.2062 -0.4937
 7823TIP3    H144884   2.887   1.304   1.997 -0.5366  0.7263 -0.6563
 7823TIP3    H244885   2.783   1.204   1.950  0.7365 -0.9478 -0.0186
 7824TIP3   OH244886   2.025   5.888  13.520  0.5535  0.3361 -0.1274
 7824TIP3    H144887   2.002   5.935  13.600  1.7549 -0.9714  1.0297
 7824TIP3    H244888   1.979   5.936  13.450  0.2625  2.1007  1.2004
 7825TIP3   OH244889   1.410   0.320  11.820  0.4009 -0.4846  0.2534
 7825TIP3    H144890   1.319   0.313  11.789 -0.1106 -0.2157  1.5959
 7825TIP3    H244891   1.441   0.403  11.783  0.6477 -1.3018 -1.4803
 7826TIP3   OH244892   0.008   4.334  13.922  0.3344  0.2958 -0.6149
 7826TIP3    H144893   0.101   4.341  13.901  0.5154 -0.3686 -0.0771
 7826TIP3    H244894  -0.028   4.419  13.900  0.9598  0.3784 -1.3643
 7827TIP3   OH244895   5.678   4.116  11.956 -0.0593 -0.0610  0.1679
 7827TIP3    H144896   5.675   4.152  11.867  0.2751 -1.5001 -0.4678
 7827TIP3    H244897   5.623   4.038  11.952  1.4071 -1.1880  0.6810
 7828TIP3   OH244898   6.774   1.597  14.165  0.0715  0.0320  0.5002
 7828TIP3    H144899   6.737   1.515  14.132 -0.2828  1.2897 -2.5995
 7828TIP3    H244900   6.856   1.572  14.206 -1.1200 -2.0930  1.7571
 7829TIP3   OH244901   3.041   2.263   2.362  0.2990  0.4289 -0.5241
 7829TIP3    H144902   3.019   2.193   2.300  0.5176 -0.0245 -0.0987
 7829TIP3    H244903   2.993   2.240   2.441  1.3481  0.0711  0.0298
 7830TIP3   OH244904   6.081   6.497   1.934 -0.5100  0.5764  0.0530
 7830TIP3    H144905   6.140   6.427   1.905  0.3348  1.6305 -0.8612
 7830TIP3    H244906   6.140   6.568   1.961 -1.3239  0.5545  2.0667
 7831TIP3   OH244907   2.494   6.103  12.751 -0.2936 -0.1098  0.2647
 7831TIP3    H144908   2.496   6.028  12.809  0.7631 -0.0988  0.2664
 7831TIP3    H244909   2.574   6.095  12.698 -1.3040 -0.2094 -1.3076
 7832TIP3   OH244910   5.310   6.310   6.322 -0.0965  0.1870 -0.2941
 7832TIP3    H144911   5.370   6.256   6.375 -0.6622 -0.0234  0.1446
 7832TIP3    H244912   5.228   6.309   6.371 -0.5438  0.2414 -1.0290
 7833TIP3   OH244913   3.226   1.433   3.259 -0.7012  0.5679  0.2780
 7833TIP3    H144914   3.131   1.443   3.252 -0.4668  2.2938 -1.4043
 7833TIP3    H244915   3.257   1.519   3.287  0.3196 -0.2660  1.8400
 7834TIP3   OH244916   0.705   5.716   1.769  0.1200  0.6662  0.1263
 7834TIP3    H144917   0.708   5.810   1.747  1.7534  0.8576  1.0781
 7834TIP3    H244918   0.680   5.674   1.686  1.8892  1.7306 -1.0135
 7835TIP3   OH244919   1.348   4.127   2.327  0.1440  0.2103  0.2547
 7835TIP3    H144920   1.309   4.212   2.307  0.3522  0.5385  1.1594
 7835TIP3    H244921   1.305   4.100   2.409 -0.4753 -0.9223 -0.4216
 7836TIP3   OH244922   2.972   6.678  17.028  0.2055 -0.1458  0.0838
 7836TIP3    H144923   2.956   6.772  17.020 -1.9050 -0.1419  2.9304
 7836TIP3    H244924   2.925   6.639  16.954 -0.0827  0.9417 -0.3188
 7837TIP3   OH244925   5.320   0.934   1.818  0.0522 -0.4021 -0.4788
 7837TIP3    H144926   5.265   0.975   1.884  0.0177 -1.9948  0.5213
 7837TIP3    H244927   5.262   0.874   1.772  0.6819 -1.2439 -0.1909
 7838TIP3   OH244928   2.813   3.875   5.763 -0.2926 -0.4716  0.2797
 7838TIP3    H144929   2.824   3.780   5.756 -0.5277 -0.4906  0.1923
 7838TIP3    H244930   2.754   3.887   5.837 -1.6397 -0.4669 -0.7607
 7839TIP3   OH244931   5.286   6.457   3.135  0.0138  0.0886 -0.0597
 7839TIP3    H144932   5.276   6.446   3.040 -0.6536  1.7116 -0.2166
 7839TIP3    H244933   5.275   6.369   3.171  0.5336 -0.5972 -1.4946
 7840TIP3   OH244934   2.442   1.309  15.275 -0.1441  0.0984  0.3486
 7840TIP3    H144935   2.484   1.256  15.343 -0.1414 -1.5531 -0.8877
 7840TIP3    H244936   2.382   1.249  15.230 -1.1304  1.4799 -0.2847
 7841TIP3   OH244937   0.786   5.941   3.756  0.0194  0.5874 -0.7234
 7841TIP3    H144938   0.809   5.880   3.686 -0.7990  0.0642 -0.5363
 7841TIP3    H244939   0.811   5.896   3.837  0.0371  0.7777 -0.6214
 7842TIP3   OH244940   2.839   3.205  11.083  0.1444  0.5868  0.2647
 7842TIP3    H144941   2.865   3.185  10.993 -0.9454 -0.2476  0.1181
 7842TIP3    H244942   2.917   3.246  11.121  1.3184 -0.8318 -0.4706
 7843TIP3   OH244943   6.533   4.794  14.290 -0.1333 -0.5215 -0.4451
 7843TIP3    H144944   6.557   4.707  14.257 -2.7299 -1.9020  0.9567
 7843TIP3    H244945   6.591   4.808  14.365 -1.1839 -2.1720  0.7466
 7844TIP3   OH244946   4.020   3.970  15.853 -0.2696 -0.4202  0.6705
 7844TIP3    H144947   3.979   3.890  15.885  0.0267 -0.5469  0.7350
 7844TIP3    H244948   4.055   4.012  15.932 -1.1947  0.2220  0.7581
 7845TIP3   OH244949   4.133   1.616   3.970 -0.4954 -0.1796 -0.1392
 7845TIP3    H144950   4.059   1.657   3.925 -2.1588 -1.5550  1.2484
 7845TIP3    H244951   4.193   1.689   3.988 -2.1280  1.2031 -0.0772
 7846TIP3   OH244952   5.535   5.549  13.632  0.0218 -0.5146 -0.1741
 7846TIP3    H144953   5.488   5.628  13.659 -0.8248 -0.8694 -0.5793
 7846TIP3    H244954   5.526   5.547  13.536  1.4701 -0.2162 -0.3319
 7847TIP3   OH244955   2.365   2.067  11.173 -0.0898  0.2329 -0.2517
 7847TIP3    H144956   2.344   1.976  11.193 -1.0095  0.6441  0.7316
 7847TIP3    H244957   2.455   2.078  11.204 -0.0564 -0.2750 -0.1631
 7848TIP3   OH244958   2.938   6.682   3.967  0.2735 -0.2663  0.1006
 7848TIP3    H144959   2.991   6.606   3.993  2.0052  0.4271 -1.1880
 7848TIP3    H244960   2.994   6.757   3.988 -0.6070  0.5555 -0.4410
 7849TIP3   OH244961   1.787   0.544  12.357  0.4771 -0.2209 -0.6495
 7849TIP3    H144962   1.707   0.560  12.407  0.4951  0.5303 -0.8509
 7849TIP3    H244963   1.772   0.460  12.315  0.2169 -0.5826  0.1434
 7850TIP3   OH244964   2.845   5.987   5.885 -0.2129  0.0220 -0.1405
 7850TIP3    H144965   2.882   6.033   5.960  1.2395 -1.3197  0.0024
 7850TIP3    H244966   2.808   6.057   5.831  0.6770  1.2271  0.7460
 7851TIP3   OH244967   2.302   1.202  13.895  0.1101 -0.1958  0.1222
 7851TIP3    H144968   2.356   1.213  13.817 -1.1929  1.3812 -0.6182
 7851TIP3    H244969   2.364   1.181  13.965  1.2767 -1.9335 -1.3519
 7852TIP3   OH244970   3.401   5.178  13.880 -0.1806  0.4085  0.3929
 7852TIP3    H144971   3.418   5.199  13.789 -2.2282 -4.4049 -1.4460
 7852TIP3    H244972   3.484   5.147  13.914  0.3669  1.2705 -0.1226
 7853TIP3   OH244973   1.991   1.267   1.092  0.1053  0.6792 -0.4305
 7853TIP3    H144974   2.040   1.210   1.150  0.0997  1.3435  0.2418
 7853TIP3    H244975   1.904   1.228   1.086 -0.0683  0.9214  0.4726
 7854TIP3   OH244976   5.187   5.342   1.341  0.0580  0.4140  0.2081
 7854TIP3    H144977   5.220   5.424   1.379  2.7123 -0.0710 -0.8429
 7854TIP3    H244978   5.172   5.363   1.249 -0.0300 -0.0795  0.1115
 7855TIP3   OH244979   5.472   4.365  14.437  0.2131  0.3716 -0.0690
 7855TIP3    H144980   5.417   4.440  14.462 -0.2919  0.3325 -1.0019
 7855TIP3    H244981   5.416   4.314  14.378  1.3735  0.5390 -1.3530
 7856TIP3   OH244982   0.977   4.545  15.290 -0.0746 -0.4144  0.1339
 7856TIP3    H144983   1.049   4.606  15.309  0.0639 -0.3746 -0.4897
 7856TIP3    H244984   1.015   4.481  15.229 -0.4875 -0.5554  0.0189
 7857TIP3   OH244985   5.155   5.879   5.840  0.3240 -0.2232 -0.1716
 7857TIP3    H144986   5.096   5.808   5.818 -4.1144  2.6388  1.1582
 7857TIP3    H244987   5.147   5.942   5.768  1.0839  0.6098  0.4362
 7858TIP3   OH244988   4.333   3.685   2.778  0.4670  0.3288 -0.7275
 7858TIP3    H144989   4.427   3.698   2.765  0.8168  2.5410  2.7697
 7858TIP3    H244990   4.327   3.620   2.848 -0.4344  1.8403  0.6783
 7859TIP3   OH244991   0.738   0.699   5.171 -0.1497 -0.2614  0.1544
 7859TIP3    H144992   0.719   0.790   5.151 -0.3502 -0.7058 -1.8258
 7859TIP3    H244993   0.653   0.655   5.171  0.0567 -0.6686 -0.0968
 7860TIP3   OH244994   1.100   6.661  11.464  0.0564  0.2303  0.1297
 7860TIP3    H144995   1.017   6.709  11.472 -1.1268 -1.6235 -0.4426
 7860TIP3    H244996   1.151   6.711  11.400  0.0525  2.2487  1.6262
 7861TIP3   OH244997   2.660   5.708   5.442 -0.5677 -0.1098 -1.0587
 7861TIP3    H144998   2.631   5.637   5.385 -1.2543  1.7379 -3.1627
 7861TIP3    H244999   2.756   5.701   5.442 -0.6476 -2.5569  0.9566
 7862TIP3   OH245000   0.053   6.108  10.990 -0.1552 -0.1467 -0.0874
 7862TIP3    H145001   0.133   6.146  10.954 -1.2105  0.0915 -2.3429
 7862TIP3    H245002  -0.009   6.108  10.917 -1.0952 -3.6400  0.5115
 7863TIP3   OH245003   0.766   2.181   2.309 -0.4738 -0.2490 -0.0255
 7863TIP3    H145004   0.771   2.219   2.397 -0.3785 -0.1346 -0.0803
 7863TIP3    H245005   0.744   2.089   2.324  1.2735 -0.6591  0.1894
 7864TIP3   OH245006   4.109   4.067  12.552 -0.2653  0.2037  0.0987
 7864TIP3    H145007   4.098   4.110  12.467 -0.5520 -1.8942 -0.9889
 7864TIP3    H245008   4.026   4.083  12.597  0.0903  1.8029  0.2703
 7865TIP3   OH245009   0.719   1.381   2.646 -0.2287 -0.3709 -0.9553
 7865TIP3    H145010   0.732   1.288   2.667 -1.4664 -0.2687  0.4192
 7865TIP3    H245011   0.796   1.425   2.682  0.3437 -0.8358 -1.5728
 7866TIP3   OH245012   1.649   0.666   2.547  0.2835 -0.8452  0.0991
 7866TIP3    H145013   1.589   0.607   2.591 -2.0521  1.0328 -0.3214
 7866TIP3    H245014   1.659   0.740   2.608  0.9581 -0.4499 -0.4749
 7867TIP3   OH245015   2.129   4.956   2.657 -0.2970  0.3048 -0.0275
 7867TIP3    H145016   2.224   4.951   2.643  0.1904  1.6764  2.2001
 7867TIP3    H245017   2.091   4.950   2.569  1.8717  0.1868 -1.0240
 7868TIP3   OH245018   3.018   1.438   2.201  0.1799  0.3577 -0.0123
 7868TIP3    H145019   3.014   1.477   2.114  0.9597  2.6111  0.8952
 7868TIP3    H245020   2.994   1.346   2.187  0.5488  0.5777 -2.6262
 7869TIP3   OH245021   1.453   1.594   4.197  0.3134 -1.0049  0.1979
 7869TIP3    H145022   1.525   1.645   4.159  0.5553 -0.2927  1.5736
 7869TIP3    H245023   1.466   1.600   4.291 -0.6079 -2.2653  0.4260
 7870TIP3   OH245024   3.063   1.524   0.016 -0.1213 -0.1425 -0.4756
 7870TIP3    H145025   3.081   1.576   0.094  0.0547  0.5488 -0.9677
 7870TIP3    H245026   3.009   1.580  -0.039  1.6106  0.2968 -1.8348
 7871TIP3   OH245027   5.329   5.523   2.403 -0.0046 -0.9064  0.1126
 7871TIP3    H145028   5.347   5.543   2.495  1.8525  2.0428 -0.7874
 7871TIP3    H245029   5.268   5.591   2.375  0.5212 -0.9373 -1.1760
 7872TIP3   OH245030   6.332   0.091   2.413  0.7423  0.1182  0.0350
 7872TIP3    H145031   6.393   0.118   2.344  1.1897  1.7045  0.9997
 7872TIP3    H245032   6.250   0.074   2.368  1.5929 -1.0314 -1.1579
 7873TIP3   OH245033   6.254   0.091   3.478 -0.2670  0.2679  0.1607
 7873TIP3    H145034   6.299   0.007   3.472 -1.2044 -0.1643 -1.2715
 7873TIP3    H245035   6.174   0.073   3.527  0.3954  0.7479  1.4812
 7874TIP3   OH245036   3.505   4.233   4.098 -0.6432  0.2089  0.1487
 7874TIP3    H145037   3.522   4.267   4.185  0.4669 -2.2468  0.9771
 7874TIP3    H245038   3.419   4.192   4.104 -1.9378  2.5589 -0.8204
 7875TIP3   OH245039   3.715   4.753   4.893 -0.0745  0.3039 -0.0652
 7875TIP3    H145040   3.738   4.660   4.888 -1.7324 -0.2733  1.9686
 7875TIP3    H245041   3.753   4.782   4.976 -0.0346  1.3136 -0.4297
 7876TIP3   OH245042   3.847   2.057   0.123 -0.0032 -0.4620  0.9496
 7876TIP3    H145043   3.889   2.106   0.193 -0.2564  1.7591 -0.3462
 7876TIP3    H245044   3.753   2.066   0.140 -0.1612  1.7752 -0.6064
 7877TIP3   OH245045   1.749   0.245  13.871  0.2145 -0.0171 -0.2472
 7877TIP3    H145046   1.717   0.302  13.801 -0.2748 -0.7398 -0.6333
 7877TIP3    H245047   1.831   0.285  13.899 -1.3278  2.3445  1.2713
 7878TIP3   OH245048   3.882   3.217  11.406  0.2304 -0.1557  0.2210
 7878TIP3    H145049   3.802   3.217  11.458  0.0460  0.4046 -0.0521
 7878TIP3    H245050   3.888   3.306  11.371  1.6104  0.1671  1.1983
 7879TIP3   OH245051   5.161   2.800   2.236 -0.1764  0.4355 -0.1167
 7879TIP3    H145052   5.078   2.753   2.239 -0.4029  0.6939 -1.7378
 7879TIP3    H245053   5.151   2.863   2.165  2.2664 -1.2136 -2.0869
 7880TIP3   OH245054   3.726   2.833  13.250  1.0195 -0.4161 -0.1463
 7880TIP3    H145055   3.680   2.861  13.329 -0.8514  1.7045 -1.8798
 7880TIP3    H245056   3.783   2.907  13.228  0.7480 -0.5485 -1.3450
 7881TIP3   OH245057   4.927   6.714  11.101 -0.3680 -0.0378 -0.6434
 7881TIP3    H145058   4.891   6.734  11.187 -0.0807  0.7136 -0.6897
 7881TIP3    H245059   5.015   6.680  11.118 -1.2744 -2.5118 -0.4868
 7882TIP3   OH245060   4.534   1.480   4.008 -0.8374 -0.5709 -0.2391
 7882TIP3    H145061   4.470   1.547   4.031 -0.0104  0.4938 -0.9253
 7882TIP3    H245062   4.531   1.418   4.081 -1.0783  0.6185  0.8028
 7883TIP3   OH245063   4.833   3.085  10.275  0.6826  0.0515 -0.0882
 7883TIP3    H145064   4.813   3.071  10.182 -0.3448 -0.7314  0.2313
 7883TIP3    H245065   4.915   3.038  10.290  1.5953  1.3208 -0.8928
 7884TIP3   OH245066   1.123   6.159   0.292 -0.3699 -0.0565  0.2106
 7884TIP3    H145067   1.197   6.109   0.326  0.5817  0.4162 -1.0852
 7884TIP3    H245068   1.055   6.149   0.358  0.4074 -1.5694  0.8283
 7885TIP3   OH245069   6.400   6.074   1.365 -0.9011  0.1895 -0.4362
 7885TIP3    H145070   6.394   5.978   1.357  0.7177 -0.0069  0.2877
 7885TIP3    H245071   6.491   6.090   1.391 -1.5329  1.8250  0.9646
 7886TIP3   OH245072   4.014   2.636  12.182 -0.0712 -0.1205  0.6626
 7886TIP3    H145073   4.095   2.660  12.228 -0.5157 -0.0128  1.4108
 7886TIP3    H245074   3.945   2.678  12.234 -0.6335 -0.5549  0.2661
 7887TIP3   OH245075   1.908   2.610  16.217  0.0474 -0.1982 -0.0438
 7887TIP3    H145076   1.867   2.573  16.295 -0.5433  0.3458 -0.0922
 7887TIP3    H245077   1.880   2.553  16.145 -1.8344  0.9908 -0.3044
 7888TIP3   OH245078   5.647   2.376   3.528  0.5215  0.1514  0.5253
 7888TIP3    H145079   5.615   2.354   3.616 -0.3418  0.2860  0.2583
 7888TIP3    H245080   5.713   2.444   3.543  1.1803 -0.6186  1.1438
 7889TIP3   OH245081   3.178   5.364   0.137  0.2428 -0.3352  0.2525
 7889TIP3    H145082   3.239   5.418   0.188 -0.9834  1.1787  0.1710
 7889TIP3    H245083   3.105   5.348   0.197 -0.1120 -0.6045 -0.2444
 7890TIP3   OH245084   5.370   0.141  13.062  0.3545 -0.7411 -0.0862
 7890TIP3    H145085   5.384   0.212  12.999  2.2693 -1.5258 -0.6124
 7890TIP3    H245086   5.275   0.134  13.069  0.1130  0.9480 -1.0735
 7891TIP3   OH245087   0.541   2.880  16.929 -0.1650  0.2025 -0.1852
 7891TIP3    H145088   0.483   2.957  16.924  0.1243  0.3987 -0.5396
 7891TIP3    H245089   0.615   2.902  16.873 -0.8769 -1.0195 -1.6829
 7892TIP3   OH245090   1.924   0.112  11.373 -0.4537 -0.0198 -0.2047
 7892TIP3    H145091   1.977   0.160  11.436  0.8764 -1.4243 -0.1961
 7892TIP3    H245092   1.949   0.150  11.288 -0.5878  0.3690 -0.0715
 7893TIP3   OH245093   5.712   0.986  12.867  0.3589 -0.6521 -0.1071
 7893TIP3    H145094   5.661   0.919  12.822  1.6702 -1.5975 -0.2515
 7893TIP3    H245095   5.798   0.946  12.880  2.0817  1.8316 -2.4914
 7894TIP3   OH245096   2.247   3.477   4.283 -0.1104 -0.4194 -0.3678
 7894TIP3    H145097   2.242   3.554   4.227  2.2127 -0.7289 -1.1403
 7894TIP3    H245098   2.194   3.411   4.238 -0.1667  0.0316 -0.9759
 7895TIP3   OH245099   5.860   4.994   1.670 -0.0218 -0.2514  0.0617
 7895TIP3    H145100   5.799   5.059   1.704  0.2856  0.1709 -0.1905
 7895TIP3    H245101   5.806   4.917   1.653 -0.8864  0.7463 -2.0405
 7896TIP3   OH245102   3.029   5.323   5.005  0.0996 -0.3873 -0.3138
 7896TIP3    H145103   3.009   5.289   4.918  1.7803 -2.0212 -0.1170
 7896TIP3    H245104   2.947   5.313   5.055 -0.5156 -0.5767 -1.3378
 7897TIP3   OH245105   4.381   0.146   1.006 -0.2163 -0.4364  0.3630
 7897TIP3    H145106   4.324   0.121   0.934 -1.3686  2.4705  0.1661
 7897TIP3    H245107   4.461   0.178   0.964  0.4993 -1.8474  0.5628
 7898TIP3   OH245108   5.542   5.932  12.776 -0.3048  0.6277  0.4043
 7898TIP3    H145109   5.487   6.011  12.775  0.4069  1.1356  0.6828
 7898TIP3    H245110   5.484   5.862  12.747 -0.9138  1.2776  0.0323
 7899TIP3   OH245111   6.254   1.129  16.588  0.2362  0.8133  0.5071
 7899TIP3    H145112   6.217   1.151  16.503 -0.9315  0.8280  0.9985
 7899TIP3    H245113   6.199   1.177  16.651  1.6463  1.5605  1.2291
 7900TIP3   OH245114   1.433   0.577  13.563  0.5161  0.3855 -0.6915
 7900TIP3    H145115   1.349   0.597  13.522  0.4757 -1.0752 -1.4035
 7900TIP3    H245116   1.479   0.523  13.498  0.8860 -1.1205  0.7563
 7901TIP3   OH245117   3.102   6.755  15.830  0.5239 -0.0202  0.5472
 7901TIP3    H145118   3.130   6.666  15.808  1.3887  0.5253 -0.6174
 7901TIP3    H245119   3.148   6.775  15.911  0.6791 -0.4636  0.5701
 7902TIP3   OH245120   6.185   5.439  13.902 -0.2350  0.0715  0.1634
 7902TIP3    H145121   6.140   5.404  13.979 -0.5245  2.0147  0.9388
 7902TIP3    H245122   6.158   5.383  13.830  0.0534 -1.8199  1.4538
 7903TIP3   OH245123   3.039   0.148  12.858  0.3613  0.5222  0.4666
 7903TIP3    H145124   3.078   0.075  12.906 -2.2428 -0.7302  0.8678
 7903TIP3    H245125   3.085   0.225  12.891  2.1490 -0.7807  1.1623
 7904TIP3   OH245126   0.812   2.380   0.175 -0.2426 -0.0082  0.0694
 7904TIP3    H145127   0.751   2.418   0.239 -1.2178 -1.0111 -0.2396
 7904TIP3    H245128   0.756   2.344   0.106  0.5537 -2.5598  0.6400
 7905TIP3   OH245129   1.611   2.259  10.864 -0.4550  0.4670  0.2325
 7905TIP3    H145130   1.663   2.337  10.883 -0.2967  0.2210  0.8413
 7905TIP3    H245131   1.638   2.232  10.777 -1.2835  1.7027 -0.4352
 7906TIP3   OH245132   2.627   4.652   5.903 -0.3077 -0.3970 -0.5822
 7906TIP3    H145133   2.581   4.573   5.874  1.2195 -1.2214 -0.8774
 7906TIP3    H245134   2.579   4.723   5.861 -0.5124 -1.3114 -1.9874
 7907TIP3   OH245135   3.017   3.136   3.387  0.3887 -0.0923  0.2957
 7907TIP3    H145136   3.082   3.206   3.399  0.0843  0.3036 -0.3356
 7907TIP3    H245137   2.999   3.135   3.293 -1.4047  0.5975  0.5969
 7908TIP3   OH245138   3.369   2.071  11.515  0.2849  0.4017  0.3515
 7908TIP3    H145139   3.281   2.038  11.532  0.3226  0.5570  0.8660
 7908TIP3    H245140   3.373   2.080  11.419  0.5206 -1.7804  0.1019
 7909TIP3   OH245141   0.685   6.055   2.146  0.1320  0.1236  0.1008
 7909TIP3    H145142   0.696   6.033   2.239 -0.0605 -0.4142 -0.0017
 7909TIP3    H245143   0.616   6.122   2.146  0.9602  1.0003  0.4411
 7910TIP3   OH245144   4.086   2.982  15.235  0.4279  0.0136 -0.2172
 7910TIP3    H145145   4.127   2.996  15.320 -0.6816 -1.2427  0.5571
 7910TIP3    H245146   4.128   2.903  15.200  1.1002  0.6998 -0.9906
 7911TIP3   OH245147   3.586   0.278  14.482  0.5495  0.1292  0.1960
 7911TIP3    H145148   3.630   0.363  14.493 -1.3369  1.3064 -0.7143
 7911TIP3    H245149   3.514   0.280  14.545  0.0730 -0.4833 -0.3062
 7912TIP3   OH245150   3.426   1.260   3.988 -0.3442 -0.0851  0.2327
 7912TIP3    H145151   3.502   1.203   3.982 -1.3811 -1.4618 -0.4903
 7912TIP3    H245152   3.352   1.201   4.000 -1.6192  0.9876 -1.6996
 7913TIP3   OH245153   5.506   6.782   1.303 -0.4295 -0.1311  0.3164
 7913TIP3    H145154   5.455   6.842   1.357  1.6960  2.9508 -0.7768
 7913TIP3    H245155   5.580   6.757   1.359  0.8324  1.6366 -0.4888
 7914TIP3   OH245156   0.312   0.716   2.818  0.1520  0.3971 -0.2642
 7914TIP3    H145157   0.333   0.633   2.777  0.0218  0.6903 -0.9486
 7914TIP3    H245158   0.301   0.777   2.744  1.7963  1.3915  0.2526
 7915TIP3   OH245159   4.755   3.381  16.812  0.4188 -0.7669 -0.3169
 7915TIP3    H145160   4.771   3.438  16.888  0.0193 -0.2209 -0.6405
 7915TIP3    H245161   4.831   3.323  16.810  1.1433  0.1622 -0.3462
 7916TIP3   OH245162   0.910   6.383  13.953 -0.6988  0.2449 -0.2661
 7916TIP3    H145163   0.979   6.357  14.014 -2.9809 -0.1502  2.3066
 7916TIP3    H245164   0.916   6.317  13.883  1.6457  0.3867 -0.2892
 7917TIP3   OH245165   5.028   0.916  14.380  0.5904  0.1953  0.2025
 7917TIP3    H145166   5.026   0.915  14.476 -1.5900  0.2597  0.2188
 7917TIP3    H245167   5.055   0.828  14.356 -1.9235 -0.8675  0.9429
 7918TIP3   OH245168   4.224   5.396   4.999 -0.3315 -0.2933  0.0874
 7918TIP3    H145169   4.180   5.353   5.072  0.6723 -1.8063 -0.1564
 7918TIP3    H245170   4.191   5.350   4.921 -1.5491  1.4260 -0.4886
 7919TIP3   OH245171   5.933   0.960  11.796  0.2947 -0.9054 -0.4049
 7919TIP3    H145172   5.878   0.904  11.851 -1.0954  0.2088 -0.5946
 7919TIP3    H245173   5.882   0.971  11.715  0.5170  0.6257 -0.3614
 7920TIP3   OH245174   4.993   1.952  13.702  0.3763  0.5654  0.5528
 7920TIP3    H145175   4.916   1.951  13.758  1.3167 -1.9862  1.9796
 7920TIP3    H245176   4.967   1.902  13.624  0.5471 -0.2694  1.0207
 7921TIP3   OH245177   6.218   3.636   5.182 -0.5971  0.3267  0.6053
 7921TIP3    H145178   6.154   3.570   5.156  0.5495 -1.0816  1.1438
 7921TIP3    H245179   6.301   3.588   5.184  0.2665  1.7771  1.1361
 7922TIP3   OH245180   0.436   4.556   2.047 -0.2247  0.0839  0.1522
 7922TIP3    H145181   0.379   4.532   1.974 -0.9875  0.6986  0.5207
 7922TIP3    H245182   0.433   4.652   2.048  0.2882  0.0985  0.5964
 7923TIP3   OH245183   5.542   2.352   3.260  0.5299  0.5234  0.0972
 7923TIP3    H145184   5.590   2.301   3.195  1.1840  1.7454 -0.4116
 7923TIP3    H245185   5.579   2.325   3.344  0.8651  0.1666 -0.1630
 7924TIP3   OH245186   3.261   3.397   2.451 -0.5157 -0.1602  0.0359
 7924TIP3    H145187   3.182   3.441   2.420  0.5201  0.9149 -1.2171
 7924TIP3    H245188   3.230   3.313   2.486 -2.2168  0.3335 -0.1988
 7925TIP3   OH245189   6.236   2.660  14.667 -0.0542 -0.1867  0.1997
 7925TIP3    H145190   6.314   2.644  14.614 -0.2289 -0.8934  0.1404
 7925TIP3    H245191   6.202   2.573  14.686 -2.2095  0.1280 -1.8206
 7926TIP3   OH245192   6.401   3.628  12.184 -0.1494 -0.1767  0.0676
 7926TIP3    H145193   6.323   3.578  12.208  0.0893  0.3839  2.2975
 7926TIP3    H245194   6.378   3.673  12.103 -0.6645 -3.1828 -1.6218
 7927TIP3   OH245195   5.104   0.334  13.660 -0.4925 -0.3194 -0.2064
 7927TIP3    H145196   5.167   0.405  13.678 -0.3613 -0.6622  0.7257
 7927TIP3    H245197   5.156   0.254  13.668 -1.4491 -0.7538  2.7680
 7928TIP3   OH245198   0.140   1.305  12.829 -0.3171 -0.2579  0.2952
 7928TIP3    H145199   0.163   1.299  12.737 -0.1655  1.6291  0.1775
 7928TIP3    H245200   0.207   1.363  12.867 -0.5349 -0.7766  1.5400
 7929TIP3   OH245201   6.680   3.305   5.215 -0.0181 -0.1437  0.3555
 7929TIP3    H145202   6.771   3.285   5.193  0.3840  1.2686  0.6175
 7929TIP3    H245203   6.642   3.221   5.240  0.9722 -0.8940 -0.5865
 7930TIP3   OH245204   2.500   4.059  15.861 -0.0799 -0.2469  0.0477
 7930TIP3    H145205   2.494   4.077  15.767 -0.9392  0.6937  0.2639
 7930TIP3    H245206   2.409   4.045  15.888  0.3099 -2.2978  0.4195
 7931TIP3   OH245207   2.531   3.930  14.852 -0.2304  0.0111 -0.1994
 7931TIP3    H145208   2.492   4.014  14.828  0.5189  0.0975 -1.2075
 7931TIP3    H245209   2.477   3.865  14.807  0.3724  0.0954 -1.0869
 7932TIP3   OH245210   4.231   3.361  13.879  0.1555 -0.2762  0.3636
 7932TIP3    H145211   4.155   3.372  13.937 -1.0243  2.2319 -1.4473
 7932TIP3    H245212   4.231   3.268  13.856 -2.2941 -0.3897  0.5818
 7933TIP3   OH245213   5.457   6.197  12.745  0.4686  0.0019 -0.0728
 7933TIP3    H145214   5.510   6.204  12.666  0.6530 -0.8043 -0.0339
 7933TIP3    H245215   5.367   6.193  12.712  0.6238 -1.9665 -0.3815
 7934TIP3   OH245216   5.290   5.242   5.764 -0.0033 -0.4396 -0.5992
 7934TIP3    H145217   5.342   5.209   5.691 -0.0385  0.3987 -1.0158
 7934TIP3    H245218   5.269   5.332   5.739 -0.0727 -0.1682  0.4172
 7935TIP3   OH245219   5.288   4.597  11.889 -0.0956 -0.2027 -0.4146
 7935TIP3    H145220   5.195   4.618  11.886 -0.4717 -1.8547 -1.5865
 7935TIP3    H245221   5.297   4.536  11.962  0.5596  1.9010  1.3583
 7936TIP3   OH245222   5.308   0.692  11.837  0.1233  0.5107 -0.2733
 7936TIP3    H145223   5.400   0.670  11.825 -0.3501 -1.4357 -0.6424
 7936TIP3    H245224   5.309   0.784  11.862  2.1405  0.6167 -0.5551
 7937TIP3   OH245225   4.277   1.242   5.675  0.2522 -0.3456 -1.4396
 7937TIP3    H145226   4.274   1.174   5.608 -1.6755 -2.1949  0.3676
 7937TIP3    H245227   4.350   1.217   5.731  0.2930 -0.2307 -1.4412
 7938TIP3   OH245228   1.502   5.062  17.094  0.3748  0.3628  0.6140
 7938TIP3    H145229   1.453   4.979  17.096 -0.6347  0.9428  0.4657
 7938TIP3    H245230   1.593   5.035  17.083 -0.0810 -0.6951 -1.0066
 7939TIP3   OH245231   2.454   1.222   4.260  0.1252  0.0563 -0.0206
 7939TIP3    H145232   2.454   1.312   4.291  2.5676  0.7270 -1.6676
 7939TIP3    H245233   2.389   1.219   4.190 -0.4058  0.3699  0.4623
 7940TIP3   OH245234   6.205   4.288  16.557  0.6528 -0.4418  0.3746
 7940TIP3    H145235   6.186   4.350  16.627 -1.7517 -0.5367 -0.1027
 7940TIP3    H245236   6.199   4.340  16.477 -0.8829 -1.1254  0.0039
 7941TIP3   OH245237   4.550   4.693  11.581  0.3419 -0.0249 -0.2567
 7941TIP3    H145238   4.568   4.758  11.513 -3.3149  3.2449  1.5514
 7941TIP3    H245239   4.476   4.642  11.546 -0.6483  0.7628  0.6334
 7942TIP3   OH245240   4.491   5.160   1.321  0.4743  0.4607  0.2647
 7942TIP3    H145241   4.489   5.092   1.254 -1.7492 -0.0834  0.8112
 7942TIP3    H245242   4.584   5.171   1.342  1.1251 -0.1044 -2.1097
 7943TIP3   OH245243   4.402   6.125  11.145 -0.4242 -0.4435  0.2888
 7943TIP3    H145244   4.317   6.169  11.152 -0.9504 -1.4490  0.4493
 7943TIP3    H245245   4.442   6.162  11.066 -0.7098  0.5223  0.5742
 7944TIP3   OH245246   6.076   2.267   0.218 -0.5471 -0.1405  0.3914
 7944TIP3    H145247   6.019   2.343   0.208 -0.5817 -0.0503  1.2196
 7944TIP3    H245248   6.140   2.276   0.147 -1.2110  0.0583 -0.1985
 7945TIP3   OH245249   5.281   5.700  12.490 -0.1450 -0.3186 -0.3244
 7945TIP3    H145250   5.243   5.612  12.487  2.4400 -1.5036 -1.7556
 7945TIP3    H245251   5.289   5.720  12.583 -0.6962 -1.6296  0.0274
 7946TIP3   OH245252   3.266   0.304  16.497 -0.1634  0.1581 -0.3088
 7946TIP3    H145253   3.190   0.354  16.466  0.7582  1.0078 -1.2901
 7946TIP3    H245254   3.313   0.280  16.417  1.0702  0.4194  0.3135
 7947TIP3   OH245255   6.239   3.669  13.626  0.3301 -0.2705 -0.0755
 7947TIP3    H145256   6.270   3.614  13.698 -1.4876  0.6229  1.4844
 7947TIP3    H245257   6.297   3.746  13.629  1.8489 -1.3047 -1.2381
 7948TIP3   OH245258   3.180   5.717   0.479  0.0965  0.2722 -0.5779
 7948TIP3    H145259   3.094   5.675   0.482  0.8830 -1.3649  0.4333
 7948TIP3    H245260   3.220   5.696   0.564  1.2717  1.4969 -0.8013
 7949TIP3   OH245261   4.179   0.727  15.178  0.0661  0.4373 -0.0169
 7949TIP3    H145262   4.193   0.668  15.251 -0.1791  1.3347  0.7803
 7949TIP3    H245263   4.172   0.670  15.101  0.5339 -0.5028  0.6225
 7950TIP3   OH245264   3.688   5.128   2.262 -0.0726  0.5092 -0.9974
 7950TIP3    H145265   3.777   5.094   2.262  0.1660  0.9589  1.5408
 7950TIP3    H245266   3.639   5.070   2.320 -0.8052  1.6467 -0.4191
 7951TIP3   OH245267   3.142   0.582   1.682  0.0567 -0.1017 -0.0011
 7951TIP3    H145268   3.180   0.656   1.635 -0.7663 -1.0107 -2.2337
 7951TIP3    H245269   3.093   0.622   1.754  1.0446  1.3794 -0.1063
 7952TIP3   OH245270   5.477   6.416  16.045  0.2998  0.5650  0.1207
 7952TIP3    H145271   5.470   6.349  16.113 -0.2382  0.3046 -0.1895
 7952TIP3    H245272   5.482   6.498  16.094  0.1280  0.3672  0.4812
 7953TIP3   OH245273   0.106   6.132   0.698  0.0218 -0.3845 -0.1243
 7953TIP3    H145274   0.013   6.117   0.716  0.0953 -1.0871 -0.3045
 7953TIP3    H245275   0.128   6.069   0.630  1.1790 -1.8728  1.5337
 7954TIP3   OH245276   6.643   5.893  15.074 -0.0370  0.3588  0.1966
 7954TIP3    H145277   6.548   5.906  15.073 -0.1203 -0.1866  0.5070
 7954TIP3    H245278   6.654   5.800  15.056  0.3935  0.2209  1.1052
 7955TIP3   OH245279   0.355   6.421   2.369  0.1754  0.7096 -0.1593
 7955TIP3    H145280   0.408   6.446   2.293 -0.4527  0.3903 -0.7141
 7955TIP3    H245281   0.419   6.398   2.436  0.7525  1.6360 -0.3646
 7956TIP3   OH245282   2.479   4.044  13.822  0.3584 -0.2246 -0.0306
 7956TIP3    H145283   2.570   4.041  13.852  0.3170  0.3339  0.1632
 7956TIP3    H245284   2.485   4.032  13.727  0.7668  1.2419 -0.2144
 7957TIP3   OH245285   5.657   2.841  17.078  0.1525 -0.1193 -0.1559
 7957TIP3    H145286   5.573   2.806  17.048 -0.4677  0.1263  1.2166
 7957TIP3    H245287   5.656   2.829  17.173  1.5089  0.2486 -0.0723
 7958TIP3   OH245288   4.361   5.881  15.477  0.3211 -0.1906 -0.5141
 7958TIP3    H145289   4.337   5.791  15.459  0.1330 -0.2941  0.2242
 7958TIP3    H245290   4.323   5.900  15.563  3.0207 -0.4404  0.8335
 7959TIP3   OH245291   0.180   3.335  16.093  0.2268  0.2442 -0.2078
 7959TIP3    H145292   0.236   3.363  16.020  0.2967 -0.6107 -0.4867
 7959TIP3    H245293   0.205   3.393  16.165  0.5538  0.7276 -0.6966
 7960TIP3   OH245294   5.979   1.808   4.966 -0.2142 -0.3368  0.1131
 7960TIP3    H145295   5.892   1.845   4.949 -1.0608 -1.8384  0.8842
 7960TIP3    H245296   6.008   1.774   4.882  0.2117  1.2571 -0.4217
 7961TIP3   OH245297   5.811   0.104   1.524  0.3507  0.0927  0.8056
 7961TIP3    H145298   5.781   0.053   1.449  0.9530  0.4128  0.3394
 7961TIP3    H245299   5.861   0.042   1.576  1.9094  0.3984 -0.2529
 7962TIP3   OH245300   6.530   3.928   1.780  0.0528 -0.5955  0.6796
 7962TIP3    H145301   6.481   3.946   1.700  2.5197 -0.7522 -0.9778
 7962TIP3    H245302   6.563   4.014   1.807  1.3937 -0.8661 -0.0187
 7963TIP3   OH245303   4.804   3.028   0.542  0.4751 -0.0423  0.4895
 7963TIP3    H145304   4.829   2.939   0.520  1.0304 -0.1096  1.3460
 7963TIP3    H245305   4.716   3.021   0.579  0.9520 -0.3970  1.6007
 7964TIP3   OH245306   1.298   4.694   2.297  0.5963  0.1224  0.0211
 7964TIP3    H145307   1.328   4.784   2.288  1.5184 -0.1555  0.2340
 7964TIP3    H245308   1.225   4.699   2.358  0.4355  0.7656 -0.2200
 7965TIP3   OH245309   0.268   3.656   3.248 -0.6351  0.1411  0.4060
 7965TIP3    H145310   0.296   3.734   3.198  0.4563  0.8581  2.0423
 7965TIP3    H245311   0.263   3.587   3.182  1.4961  0.8542 -0.6246
 7966TIP3   OH245312   5.930   6.658  11.741 -0.2446 -0.1746  0.4306
 7966TIP3    H145313   5.845   6.619  11.722  0.4146 -1.3259 -0.2611
 7966TIP3    H245314   5.987   6.627  11.670  0.1984  2.5195 -0.5201
 7967TIP3   OH245315   6.268   1.022   1.934 -0.5378 -0.1316  0.1835
 7967TIP3    H145316   6.235   1.006   1.845 -0.1698 -1.1523  0.2130
 7967TIP3    H245317   6.358   0.990   1.932  0.0905  1.5113  0.4445
 7968TIP3   OH245318   0.427   3.890  14.353 -0.4966 -0.3165  0.2596
 7968TIP3    H145319   0.473   3.879  14.270 -1.2337 -0.7270 -0.1054
 7968TIP3    H245320   0.468   3.827  14.412  1.0377  0.9976  0.6684
 7969TIP3   OH245321   6.190   5.914  13.337  0.1760  0.2070 -0.7135
 7969TIP3    H145322   6.276   5.953  13.351  0.4895 -0.1583 -1.5153
 7969TIP3    H245323   6.130   5.988  13.331  0.4177  0.4583 -0.0288
 7970TIP3   OH245324   1.510   0.981   5.412 -1.0161 -0.7392 -0.0912
 7970TIP3    H145325   1.529   0.943   5.498 -0.8642 -1.5090 -0.4541
 7970TIP3    H245326   1.449   1.052   5.431  1.4282  1.2032  1.0031
 7971TIP3   OH245327   1.244   3.987  13.411  0.1536  0.3122 -0.1101
 7971TIP3    H145328   1.338   3.975  13.429  0.1232  0.4219  0.1296
 7971TIP3    H245329   1.238   3.989  13.316  0.3509 -0.0669 -0.1335
 7972TIP3   OH245330   1.832   5.398   6.029 -0.0170  0.0425  0.7602
 7972TIP3    H145331   1.815   5.382   6.122  0.8079  0.6154  1.0246
 7972TIP3    H245332   1.927   5.405   6.023  0.0276 -1.1277 -0.3301
 7973TIP3   OH245333   1.510   1.994  12.456 -0.3664 -0.0369  0.1743
 7973TIP3    H145334   1.541   1.905  12.445 -2.1837 -1.0318  2.3078
 7973TIP3    H245335   1.573   2.035  12.515  1.7214  0.9449 -2.4912
 7974TIP3   OH245336   2.580   0.435  10.634 -0.0506  0.0633 -0.4278
 7974TIP3    H145337   2.570   0.346  10.601 -0.9488  0.0063 -0.0209
 7974TIP3    H245338   2.595   0.424  10.728  2.7733  0.2088 -0.7567
 7975TIP3   OH245339   0.362   4.719  12.897  0.0673  0.1347 -0.1017
 7975TIP3    H145340   0.340   4.761  12.980  0.0938  2.0904 -1.0112
 7975TIP3    H245341   0.353   4.625  12.913 -0.1433  0.4829  2.0230
 7976TIP3   OH245342   6.415   4.917  17.055  0.2808  0.1647 -0.0109
 7976TIP3    H145343   6.324   4.888  17.044  0.2461  0.2514  0.0489
 7976TIP3    H245344   6.464   4.865  16.992  0.3272 -0.5543  0.6087
 7977TIP3   OH245345   2.005   1.573   1.748 -0.3975 -0.5219 -0.0886
 7977TIP3    H145346   2.091   1.539   1.722 -0.7614 -1.3629 -0.2096
 7977TIP3    H245347   2.025   1.656   1.792  0.3104  0.6634 -2.4332
 7978TIP3   OH245348   2.708   3.499   6.016  0.1610  0.4342 -0.2260
 7978TIP3    H145349   2.629   3.522   6.066  0.1349  0.2034 -0.1567
 7978TIP3    H245350   2.693   3.534   5.929 -0.8787 -1.2620 -0.7839
 7979TIP3   OH245351   3.164   5.368   5.452  0.1844  0.7247  0.2960
 7979TIP3    H145352   3.154   5.294   5.392 -1.4752 -0.8538  2.3608
 7979TIP3    H245353   3.150   5.446   5.397 -0.0813 -0.5689 -1.5501
 7980TIP3   OH245354   1.087   1.885  16.377 -0.0234 -0.2011  0.6402
 7980TIP3    H145355   1.098   1.816  16.311  0.1026  0.7593 -0.3738
 7980TIP3    H245356   1.001   1.867  16.416  1.1405 -2.5580  2.3965
 7981TIP3   OH245357   6.607   4.421   3.582  0.2548 -0.3447 -0.1381
 7981TIP3    H145358   6.672   4.476   3.539  3.7062 -3.7637  0.1899
 7981TIP3    H245359   6.633   4.420   3.674 -1.2824 -0.5206  0.3179
 7982TIP3   OH245360   1.407   0.627   5.853 -0.2159 -0.2068 -0.3896
 7982TIP3    H145361   1.370   0.568   5.919  0.4557  0.3593  0.5270
 7982TIP3    H245362   1.418   0.573   5.775  3.2469 -2.2509  1.2708
 7983TIP3   OH245363   4.854   6.080   0.191 -0.2321  0.0638  0.1542
 7983TIP3    H145364   4.949   6.090   0.185 -0.1885 -0.8631 -1.4094
 7983TIP3    H245365   4.841   6.009   0.253  0.1909 -0.6705 -0.5625
 7984TIP3   OH245366   2.331   6.181  17.078  0.1007  0.4040  0.7621
 7984TIP3    H145367   2.252   6.131  17.058  0.3822  0.1425  0.2838
 7984TIP3    H245368   2.401   6.137  17.029  0.6630  0.2549  1.6648
 7985TIP3   OH245369   4.220   6.736  16.870  0.6113 -0.2614 -0.2616
 7985TIP3    H145370   4.255   6.677  16.803  2.8792 -0.9334  1.3748
 7985TIP3    H245371   4.152   6.686  16.914  0.7100 -0.6803 -0.5871
 7986TIP3   OH245372   4.214   4.904   5.489 -0.5190 -0.3217  0.0057
 7986TIP3    H145373   4.218   4.951   5.572 -1.4911  1.3310 -0.8108
 7986TIP3    H245374   4.131   4.933   5.449  0.5503  0.0134 -2.1243
 7987TIP3   OH245375   5.952   3.429  14.838  0.2521  0.3649 -0.1224
 7987TIP3    H145376   5.998   3.438  14.922  1.7471 -1.6110 -0.6340
 7987TIP3    H245377   6.021   3.441  14.773 -0.1285 -1.5114 -0.9494
 7988TIP3   OH245378   4.841   1.835   1.922  0.2009 -0.7257  0.2222
 7988TIP3    H145379   4.927   1.846   1.881  0.2262 -0.5150  0.3281
 7988TIP3    H245380   4.782   1.818   1.848  0.3035 -0.6905  0.1309
 7989TIP3   OH245381   0.467   0.425  17.159  0.6528 -0.3849  0.0541
 7989TIP3    H145382   0.534   0.472  17.209  1.2375 -1.4880  0.3322
 7989TIP3    H245383   0.499   0.427  17.069  1.9275 -2.2744  0.4028
 7990TIP3   OH245384   3.204   4.637   6.243  0.1901  0.4792  0.0630
 7990TIP3    H145385   3.226   4.709   6.183  1.5260 -1.3508 -1.8079
 7990TIP3    H245386   3.123   4.600   6.207  1.4090 -1.1174 -1.2278
 7991TIP3   OH245387   5.207   0.987  13.558  0.2126  0.2697 -0.4559
 7991TIP3    H145388   5.233   0.899  13.586  1.9433 -0.0053 -2.6607
 7991TIP3    H245389   5.133   0.972  13.498  0.7325  0.2528 -1.1076
 7992TIP3   OH245390   6.251   2.407  15.822  0.0412 -0.2818  0.2459
 7992TIP3    H145391   6.313   2.427  15.892  0.7680  2.7753 -1.0725
 7992TIP3    H245392   6.307   2.391  15.745 -0.7663 -0.6903 -0.2669
 7993TIP3   OH245393   3.533   0.618  14.225  0.2194 -0.3890 -0.0480
 7993TIP3    H145394   3.582   0.683  14.275  0.6500 -0.1037 -0.8285
 7993TIP3    H245395   3.443   0.651  14.225  0.2038 -0.4146  0.5642
 7994TIP3   OH245396   2.012   1.581   5.690 -0.1910 -0.1154 -0.0263
 7994TIP3    H145397   2.102   1.580   5.656 -0.5707 -1.0684 -1.0472
 7994TIP3    H245398   2.017   1.635   5.769  1.0780  0.6580 -0.6110
 7995TIP3   OH245399   6.450   0.236   3.292 -0.5353  0.2816  0.2537
 7995TIP3    H145400   6.397   0.303   3.249  0.3433  1.3737  0.8476
 7995TIP3    H245401   6.386   0.175   3.329 -1.3304  0.4872 -0.7301
 7996TIP3   OH245402   0.339   5.356  17.146 -0.8852 -0.2839  0.2215
 7996TIP3    H145403   0.421   5.313  17.169 -1.8360 -2.2850  0.0627
 7996TIP3    H245404   0.340   5.363  17.050 -0.4741  0.6730  0.2765
 7997TIP3   OH245405   3.438   4.489  12.637  0.4773 -0.3375  0.1188
 7997TIP3    H145406   3.502   4.419  12.623  0.6120 -0.3922  0.9157
 7997TIP3    H245407   3.455   4.519  12.727  0.4636  0.7681 -0.2302
 7998TIP3   OH245408   1.984   1.780  15.097 -0.4486  0.0725  0.1937
 7998TIP3    H145409   1.910   1.721  15.109 -0.9599  0.6502 -0.0521
 7998TIP3    H245410   1.963   1.829  15.017 -0.0293  0.5765  0.3877
 7999TIP3   OH245411   4.686   5.620   5.326 -0.0078  0.3378  0.7295
 7999TIP3    H145412   4.660   5.635   5.417  0.6582  0.7153  0.8631
 7999TIP3    H245413   4.648   5.693   5.277  0.2505  0.5385  0.8250
 8000TIP3   OH245414   2.598   2.470   3.827 -0.0898 -0.4145  0.8077
 8000TIP3    H145415   2.685   2.459   3.866 -0.2507  0.6906  1.5363
 8000TIP3    H245416   2.605   2.551   3.776 -0.4858 -0.7210  0.2509
 8001TIP3   OH245417   6.613   4.118  13.677 -0.3366 -0.2986 -0.5532
 8001TIP3    H145418   6.685   4.117  13.614  1.0264 -2.2177  0.9173
 8001TIP3    H245419   6.621   4.202  13.722  0.5204 -0.1744 -0.9259
 8002TIP3   OH245420   2.881   4.253  11.752 -0.0623 -0.6452 -0.4474
 8002TIP3    H145421   2.935   4.286  11.823 -1.0000  1.0379 -0.4683
 8002TIP3    H245422   2.944   4.228  11.684  0.7512  0.2303 -0.0446
 8003TIP3   OH245423   1.262   4.798   3.466  0.7098 -0.0497 -0.3752
 8003TIP3    H145424   1.292   4.710   3.443  0.7153 -1.0461  2.9581
 8003TIP3    H245425   1.294   4.812   3.555 -2.5132  1.7887  0.6494
 8004TIP3   OH245426   4.082   1.688  14.933  0.2780 -0.0904 -0.0973
 8004TIP3    H145427   4.144   1.680  15.006  0.6377 -1.1253 -0.4965
 8004TIP3    H245428   4.133   1.663  14.856 -0.1925  0.6838 -0.6682
 8005TIP3   OH245429   3.943   5.460   3.133  0.1846 -0.0335 -0.1074
 8005TIP3    H145430   3.955   5.518   3.209  0.9751 -1.3992  0.8660
 8005TIP3    H245431   3.869   5.404   3.158 -0.5801  0.5420 -1.0383
 8006TIP3   OH245432   3.318   6.201   0.788 -0.2989  0.6376 -0.1093
 8006TIP3    H145433   3.355   6.282   0.825  1.2218  0.8757 -2.0017
 8006TIP3    H245434   3.308   6.143   0.864 -0.9076  2.3764  1.2147
 8007TIP3   OH245435   6.253   2.977   4.170  0.1684 -0.3302  0.0470
 8007TIP3    H145436   6.190   3.048   4.176  1.3158  0.6461  1.1175
 8007TIP3    H245437   6.339   3.019   4.176  0.8880 -1.7675  0.4504
 8008TIP3   OH245438   1.552   3.177  13.709  0.2619 -0.0765 -0.4676
 8008TIP3    H145439   1.601   3.118  13.765  0.8929  0.1854 -0.7400
 8008TIP3    H245440   1.505   3.234  13.770 -0.3423 -0.8398 -0.2041
 8009TIP3   OH245441   5.046   5.108  14.251 -0.2016  0.2725  0.5539
 8009TIP3    H145442   5.063   5.042  14.318  0.2167 -0.4901 -0.2867
 8009TIP3    H245443   5.003   5.179  14.298 -1.0004 -0.7484  1.4144
 8010TIP3   OH245444   0.215   3.369  15.669 -0.2758 -0.0711 -0.5887
 8010TIP3    H145445   0.259   3.382  15.753 -1.4969  1.0148 -0.0893
 8010TIP3    H245446   0.158   3.293  15.684  1.1727 -1.3150 -1.1581
 8011TIP3   OH245447   6.075   6.086   5.308 -0.0173  0.2802 -0.3416
 8011TIP3    H145448   6.051   6.025   5.378  0.8506  0.1769 -0.1321
 8011TIP3    H245449   6.016   6.062   5.235  0.2012 -0.7059 -0.2144
 8012TIP3   OH245450   3.765   0.023   1.583 -0.0190  0.4785  0.5471
 8012TIP3    H145451   3.829   0.039   1.513  0.7685  0.4961  1.2478
 8012TIP3    H245452   3.800   0.071   1.659 -0.1059 -0.6852  1.3479
 8013TIP3   OH245453   6.687   5.942   0.396  0.6195  0.8453  0.1236
 8013TIP3    H145454   6.776   5.934   0.431  0.4734  1.8511  0.7619
 8013TIP3    H245455   6.656   6.027   0.427 -1.1315 -0.1171  1.1905
 8014TIP3   OH245456   5.272   1.418  13.482 -0.0890 -0.2692 -0.2626
 8014TIP3    H145457   5.287   1.375  13.398 -2.7461  2.0620 -2.1258
 8014TIP3    H245458   5.195   1.374  13.519 -1.0151  0.8967 -0.7548
 8015TIP3   OH245459   2.912   6.449  11.943  0.0715 -0.5935  0.1130
 8015TIP3    H145460   2.867   6.530  11.966 -0.4810 -0.5856 -0.9346
 8015TIP3    H245461   2.842   6.385  11.931  0.4537 -1.0362  0.2090
 8016TIP3   OH245462   6.440   4.833  16.677 -0.3067 -0.0944 -0.3067
 8016TIP3    H145463   6.535   4.818  16.680 -0.2924  0.1583  0.4875
 8016TIP3    H245464   6.429   4.926  16.698 -0.6927  0.0410 -1.0603
 8017TIP3   OH245465   3.237   2.513  14.550 -0.4970  0.4242  0.6899
 8017TIP3    H145466   3.331   2.519  14.539 -0.3871 -1.0035  0.6512
 8017TIP3    H245467   3.220   2.551  14.636  0.4272 -1.2851  1.6951
 8018TIP3   OH245468   6.295   3.099  15.578  0.2773  0.0391 -0.1007
 8018TIP3    H145469   6.250   3.183  15.590 -0.2558 -0.0941 -1.0967
 8018TIP3    H245470   6.388   3.120  15.588  0.0287  0.2587  2.3072
 8019TIP3   OH245471   6.297   0.449   1.511 -0.2805  0.3926  0.3941
 8019TIP3    H145472   6.210   0.470   1.477  0.3654  0.8109 -1.1189
 8019TIP3    H245473   6.345   0.531   1.506  0.9011 -0.3321 -1.1397
 8020TIP3   OH245474   6.606   5.981  16.677 -0.5703  0.1435  0.0769
 8020TIP3    H145475   6.552   5.919  16.629 -1.8233  0.2103  1.3205
 8020TIP3    H245476   6.624   5.936  16.760 -0.7355  1.0803  0.6270
 8021TIP3   OH245477   2.305   2.621  12.208 -0.4647 -0.1479  0.0876
 8021TIP3    H145478   2.390   2.578  12.220 -0.3715  0.1154  0.3743
 8021TIP3    H245479   2.256   2.562  12.150 -0.2241 -0.4861  0.2277
 8022TIP3   OH245480   4.714   0.997   1.380 -0.3323 -0.0756 -0.1260
 8022TIP3    H145481   4.807   0.972   1.382 -0.7144 -1.7892 -1.4694
 8022TIP3    H245482   4.675   0.950   1.454 -0.0703  1.0235  0.7309
 8023TIP3   OH245483   6.109   1.537  15.788  0.7441  0.2841 -0.4371
 8023TIP3    H145484   6.107   1.459  15.843  0.1243 -1.2778 -2.5600
 8023TIP3    H245485   6.202   1.563  15.786  1.2440 -1.4314 -1.0297
 8024TIP3   OH245486   5.326   3.871  17.154 -0.9027  0.1977 -0.1597
 8024TIP3    H145487   5.296   3.904  17.069 -0.0032  0.0001 -0.5627
 8024TIP3    H245488   5.368   3.946  17.195 -1.8507  0.4500  0.3674
 8025TIP3   OH245489   2.809   2.004  14.598 -0.7371 -0.4557 -0.2876
 8025TIP3    H145490   2.731   2.059  14.606  0.0800  0.8479 -0.9944
 8025TIP3    H245491   2.834   2.011  14.506 -0.3815 -1.7198 -0.3107
 8026TIP3   OH245492   2.733   1.393  12.381  0.3719 -0.3096  0.2432
 8026TIP3    H145493   2.726   1.479  12.339  0.4018  0.0209  0.9094
 8026TIP3    H245494   2.818   1.396  12.426  1.2675 -1.3844 -1.2863
 8027TIP3   OH245495   5.460   1.070  16.306  0.2169 -0.1138 -0.4933
 8027TIP3    H145496   5.499   1.097  16.223  1.0020 -0.6745 -0.3202
 8027TIP3    H245497   5.366   1.085  16.295  0.4342  0.8757 -1.0679
 8028TIP3   OH245498   1.546   2.880  16.763  0.5834  0.0726  0.2923
 8028TIP3    H145499   1.593   2.930  16.830  0.2836 -1.1818  1.4773
 8028TIP3    H245500   1.612   2.824  16.724  0.5341 -0.0226  0.3453
 8029TIP3   OH245501   6.013   0.439  14.813  0.3449 -0.2097 -0.0927
 8029TIP3    H145502   6.022   0.527  14.778 -2.1278 -0.4861 -1.6915
 8029TIP3    H245503   5.964   0.391  14.745  0.4183 -2.4210  1.3094
 8030TIP3   OH245504   3.857   4.286  14.883  0.7891  0.3013  0.0999
 8030TIP3    H145505   3.893   4.325  14.803  1.4193 -1.6860 -0.6462
 8030TIP3    H245506   3.848   4.360  14.944  2.2479  1.5354 -1.0885
 8031TIP3   OH245507   3.005   3.537   2.699 -0.2902 -0.3879 -0.1885
 8031TIP3    H145508   3.043   3.572   2.618 -0.2550  0.5943  0.2348
 8031TIP3    H245509   3.056   3.577   2.769  0.3595 -2.0423  0.3284
 8032TIP3   OH245510   1.358   0.697  16.707 -0.0196 -0.1479 -0.2608
 8032TIP3    H145511   1.288   0.678  16.644 -1.2116 -4.7495  2.0292
 8032TIP3    H245512   1.438   0.671  16.662 -0.0542  1.8697 -1.6550
 8033TIP3   OH245513   1.458   0.228   4.691  0.0620  0.4406 -0.1085
 8033TIP3    H145514   1.541   0.274   4.704  0.1841  0.3224 -0.4561
 8033TIP3    H245515   1.458   0.205   4.598 -0.9008  1.4923 -0.3924
 8034TIP3   OH245516   6.443   0.423  12.361  0.5309 -0.2656 -0.7274
 8034TIP3    H145517   6.484   0.449  12.444  1.4248 -0.6708 -1.0304
 8034TIP3    H245518   6.423   0.506  12.318 -0.5409 -0.0348  0.1594
 8035TIP3   OH245519   2.588   6.643   0.016 -0.2169 -0.1328  0.0892
 8035TIP3    H145520   2.492   6.651   0.020 -0.1034  1.7814 -0.1502
 8035TIP3    H245521   2.603   6.552  -0.009 -1.8918 -1.3889  3.0682
 8036TIP3   OH245522   3.250   5.967   5.975 -0.9669 -0.4884 -0.2954
 8036TIP3    H145523   3.298   5.901   6.026  1.4886  0.9695 -0.5457
 8036TIP3    H245524   3.239   6.040   6.036  1.8529  1.2114 -1.6020
 8037TIP3   OH245525   0.963   3.451  12.294 -0.2804 -0.7307 -0.6127
 8037TIP3    H145526   0.870   3.429  12.298 -0.5287  0.1808 -1.1354
 8037TIP3    H245527   0.995   3.407  12.215 -0.6912  0.4292 -1.4476
 8038TIP3   OH245528   6.314   0.429   2.831  0.3946  0.1476 -0.6160
 8038TIP3    H145529   6.310   0.370   2.756 -0.4332 -0.3086 -0.2227
 8038TIP3    H245530   6.356   0.508   2.797  1.6467 -0.6980 -1.1241
 8039TIP3   OH245531   2.729   0.848  14.118 -0.0196  0.2242 -0.2336
 8039TIP3    H145532   2.649   0.824  14.165  0.2530  2.0079  1.2693
 8039TIP3    H245533   2.710   0.829  14.026 -1.7308 -0.4845  0.2341
 8040TIP3   OH245534   1.148   5.717   1.917  0.5202  0.5554  0.0245
 8040TIP3    H145535   1.241   5.720   1.896  0.6355  0.1878  0.4760
 8040TIP3    H245536   1.143   5.666   1.998 -0.1927 -0.5598 -0.6961
 8041TIP3   OH245537   5.101   1.279   2.770  0.4216 -0.2673  0.1969
 8041TIP3    H145538   5.106   1.332   2.691  0.6180 -1.0549 -0.3292
 8041TIP3    H245539   5.011   1.290   2.801  0.4314  0.2828  0.0380
 8042TIP3   OH245540   1.106   5.957   3.586 -0.3085 -0.4249  0.4925
 8042TIP3    H145541   1.198   5.963   3.610  0.4247  0.9385 -2.2846
 8042TIP3    H245542   1.071   6.044   3.606 -0.5184 -0.3534 -0.1757
 8043TIP3   OH245543   0.131   3.361   3.435 -0.1133  0.0706  0.4544
 8043TIP3    H145544   0.167   3.353   3.346  2.2267  0.8015  1.2597
 8043TIP3    H245545   0.157   3.280   3.478 -0.3956  0.1429  0.7616
 8044TIP3   OH245546   4.630   1.833   0.447 -0.2585  0.3334  0.1519
 8044TIP3    H145547   4.712   1.826   0.399 -0.9202  0.3705 -1.0031
 8044TIP3    H245548   4.641   1.773   0.521  0.3891 -0.4852 -0.5864
 8045TIP3   OH245549   3.155   2.476   2.176 -0.3702  0.5774  0.0769
 8045TIP3    H145550   3.106   2.402   2.211 -1.8455  2.1497  1.5189
 8045TIP3    H245551   3.159   2.460   2.081 -0.7060 -1.2654  0.3408
 8046TIP3   OH245552   6.731   0.034  14.391  0.1676  0.1688 -0.1028
 8046TIP3    H145553   6.716   0.127  14.406 -1.4853 -0.2932  1.3429
 8046TIP3    H245554   6.656  -0.010  14.430 -0.1067 -1.6956 -2.5017
 8047TIP3   OH245555   4.434   4.448  16.482  0.0651  0.4757  0.4869
 8047TIP3    H145556   4.513   4.484  16.522  0.4041 -0.3697  0.6048
 8047TIP3    H245557   4.415   4.507  16.410  0.9579  0.5597  0.3017
 8048TIP3   OH245558   1.186   1.143   4.617 -0.7149  0.2174 -0.1287
 8048TIP3    H145559   1.167   1.052   4.595 -3.4762  1.0370 -1.6499
 8048TIP3    H245560   1.262   1.166   4.564 -0.7645 -0.8262 -0.6724
 8049TIP3   OH245561   3.845   4.994   0.809 -0.3657 -0.4703 -0.1288
 8049TIP3    H145562   3.758   4.970   0.776 -1.0678  1.4210  0.1917
 8049TIP3    H245563   3.890   4.911   0.820 -1.9691 -1.4840 -0.7566
 8050TIP3   OH245564   4.467   0.920   3.367 -0.6248  0.7780  0.1854
 8050TIP3    H145565   4.380   0.887   3.387 -0.1936 -0.1924  0.5600
 8050TIP3    H245566   4.525   0.845   3.383 -0.0328  0.4254 -3.0166
 8051TIP3   OH245567   5.409   4.958   3.161 -0.0844  0.3702  0.5054
 8051TIP3    H145568   5.369   4.883   3.118  0.1504 -0.1786  1.2253
 8051TIP3    H245569   5.419   5.023   3.092  1.9310 -1.1299 -0.6883
 8052TIP3   OH245570   2.247   3.098   4.763 -0.1048  0.2603  0.1044
 8052TIP3    H145571   2.260   3.072   4.854  0.3539 -2.7516 -0.7288
 8052TIP3    H245572   2.175   3.044   4.732  1.7263 -1.0889 -2.1353
 8053TIP3   OH245573   5.321   4.540   5.987 -0.7016 -0.3516 -0.0648
 8053TIP3    H145574   5.309   4.630   6.018  0.7627 -0.9320  2.4317
 8053TIP3    H245575   5.292   4.543   5.896 -1.1218  2.5414  0.0510
 8054TIP3   OH245576   3.061   0.943   1.299  0.7547 -0.0343  0.3324
 8054TIP3    H145577   3.144   0.945   1.346  0.4095 -2.0003  1.0904
 8054TIP3    H245578   3.054   0.854   1.265 -1.1328  0.0130  0.4758
 8055TIP3   OH245579   4.743   2.899   5.057 -0.1483  0.1381  0.6613
 8055TIP3    H145580   4.675   2.849   5.011 -0.8058 -0.8348  2.5914
 8055TIP3    H245581   4.696   2.966   5.105  0.6407  1.9396 -0.9468
 8056TIP3   OH245582   5.056   0.285  14.253 -0.0782  0.2146  0.3258
 8056TIP3    H145583   5.141   0.320  14.279  0.2735 -0.7155  0.4619
 8056TIP3    H245584   5.078   0.211  14.196 -0.8127  0.7218 -0.6455
 8057TIP3   OH245585   6.720   2.662   3.352 -0.1028  0.3493 -0.5212
 8057TIP3    H145586   6.649   2.659   3.288 -1.2922  0.8162  0.7250
 8057TIP3    H245587   6.707   2.744   3.399  0.8654  0.1187  0.1840
 8058TIP3   OH245588   6.420   3.930   2.615 -0.5034 -0.1579  0.7201
 8058TIP3    H145589   6.350   3.994   2.601  0.1147  0.2066 -0.9007
 8058TIP3    H245590   6.431   3.927   2.710 -1.8817  0.6725  0.9354
 8059TIP3   OH245591   1.452   3.795  11.202  0.4647  0.0215  0.2717
 8059TIP3    H145592   1.447   3.712  11.249 -2.0021  0.5796  1.1443
 8059TIP3    H245593   1.487   3.857  11.266 -0.8365  0.3128  0.7402
 8060TIP3   OH245594   5.492   6.051  13.229 -0.5757  0.0978  0.1014
 8060TIP3    H145595   5.521   6.103  13.154 -1.3833 -0.1644 -0.4113
 8060TIP3    H245596   5.485   5.962  13.195  0.2312 -0.2645  0.8201
 8061TIP3   OH245597   1.953   4.115  16.016  0.3861  0.3285 -0.2930
 8061TIP3    H145598   1.873   4.069  16.040 -0.7457  1.7947 -1.0636
 8061TIP3    H245599   1.926   4.206  16.002  2.1659  0.8524 -0.6973
 8062TIP3   OH245600   4.740   2.973   2.400  0.3709  0.1716  0.1005
 8062TIP3    H145601   4.760   3.009   2.486  1.0252  2.6858 -1.0177
 8062TIP3    H245602   4.684   3.040   2.359 -1.7779 -1.9490 -0.6845
 8063TIP3   OH245603   4.604   0.837   5.466 -0.1793 -0.8365 -0.4742
 8063TIP3    H145604   4.600   0.919   5.417  2.1388 -0.1964  0.2683
 8063TIP3    H245605   4.536   0.782   5.427 -0.9341  0.9790 -1.8387
 8064TIP3   OH245606   0.116   3.304   4.727  0.5385  0.0949  0.3239
 8064TIP3    H145607   0.141   3.221   4.686 -0.7098 -0.6870  1.0584
 8064TIP3    H245608   0.021   3.310   4.714  0.1917  0.1256  2.4703
 8065TIP3   OH245609   2.299   2.588  11.523  0.4972  0.3180 -0.2896
 8065TIP3    H145610   2.352   2.541  11.459  0.1715 -0.0826 -0.2732
 8065TIP3    H245611   2.354   2.661  11.551  0.8051  0.2547 -0.7130
 8066TIP3   OH245612   5.185   1.841   6.031  0.5964  0.5387 -0.5011
 8066TIP3    H145613   5.204   1.912   6.092  1.3192 -2.1606  2.7711
 8066TIP3    H245614   5.090   1.837   6.027  0.4987  0.5025  0.9836
 8067TIP3   OH245615   0.929   4.734  12.428  0.2078  0.7047  0.0791
 8067TIP3    H145616   0.949   4.790  12.503  0.5154  1.0522 -0.2630
 8067TIP3    H245617   0.840   4.703  12.445  1.1372 -1.2851  1.8879
 8068TIP3   OH245618   1.303   6.210  14.608 -0.3462  0.6258 -0.2200
 8068TIP3    H145619   1.375   6.261  14.645  0.5899 -0.2259 -0.8055
 8068TIP3    H245620   1.249   6.186  14.683 -0.2055  1.5446  0.1849
 8069TIP3   OH245621   1.298   0.743   4.128 -0.4142 -0.1085 -0.1231
 8069TIP3    H145622   1.231   0.684   4.163 -1.7085  1.3269 -0.0855
 8069TIP3    H245623   1.284   0.741   4.033  0.6751 -1.1468 -0.2886
 8070TIP3   OH245624   2.972   6.013  16.903  0.1224 -0.3038  0.2851
 8070TIP3    H145625   3.058   6.045  16.874 -0.6207  2.4026  0.7452
 8070TIP3    H245626   2.976   5.918  16.890  2.4738 -0.0645 -1.5457
 8071TIP3   OH245627   0.056   1.142   2.127 -0.2112  0.0574 -0.0078
 8071TIP3    H145628   0.048   1.124   2.033 -1.9381 -2.6437  0.5137
 8071TIP3    H245629   0.117   1.076   2.159 -0.0954  0.5707  0.8568
 8072TIP3   OH245630   1.842   0.281   3.046  0.6409  0.4982  0.3057
 8072TIP3    H145631   1.871   0.355   3.098  1.1447 -0.1194  0.9304
 8072TIP3    H245632   1.917   0.261   2.989 -0.2097  1.7071 -1.3003
 8073TIP3   OH245633   3.726   0.558  15.344  0.5089 -0.3428 -0.6260
 8073TIP3    H145634   3.783   0.597  15.410 -0.3439  2.2805 -1.3157
 8073TIP3    H245635   3.785   0.509  15.287  1.5144 -0.9502  0.8765
 8074TIP3   OH245636   5.127   0.188  16.406 -0.2000 -0.4349 -0.2764
 8074TIP3    H145637   5.100   0.264  16.456 -2.8449 -2.0948  1.0301
 8074TIP3    H245638   5.116   0.114  16.466  0.8801 -2.0287 -1.9151
 8075TIP3   OH245639   1.346   1.287  13.737  0.6427  0.0670 -0.2548
 8075TIP3    H145640   1.305   1.297  13.823  2.0805  1.7122  0.3083
 8075TIP3    H245641   1.437   1.315  13.751  1.4234 -1.4692 -1.8924
 8076TIP3   OH245642   5.406   4.796   6.006 -0.2797 -0.1970  0.0086
 8076TIP3    H145643   5.406   4.884   5.970 -1.9894 -0.7937 -1.6025
 8076TIP3    H245644   5.351   4.802   6.084 -2.5934 -0.2785 -1.5187
 8077TIP3   OH245645   0.259   3.153   5.296 -0.2269 -0.3051  0.1743
 8077TIP3    H145646   0.332   3.179   5.239  0.0625 -0.8566  0.2846
 8077TIP3    H245647   0.197   3.111   5.237 -1.2492  1.6356 -0.2165
 8078TIP3   OH245648   1.468   6.615   0.221  0.3538 -0.3317  0.8668
 8078TIP3    H145649   1.423   6.563   0.287  0.2547 -0.2607  0.8548
 8078TIP3    H245650   1.545   6.650   0.265  0.6801 -0.8807  0.7469
 8079TIP3   OH245651   5.441   6.256   0.455  0.4442  0.4097  0.1653
 8079TIP3    H145652   5.354   6.220   0.467 -0.2034  2.0347  0.6104
 8079TIP3    H245653   5.466   6.229   0.366  0.0011 -1.0334  0.4491
 8080TIP3   OH245654   4.372   5.561   1.851  0.2839 -0.0238  0.4541
 8080TIP3    H145655   4.315   5.495   1.889 -0.5353  0.4185  0.0266
 8080TIP3    H245656   4.327   5.588   1.771 -0.0234  1.9190  1.2338
 8081TIP3   OH245657   3.816   0.289   3.229  0.2810  0.3376 -0.1204
 8081TIP3    H145658   3.879   0.341   3.178 -0.0503  1.5713  0.6723
 8081TIP3    H245659   3.761   0.247   3.164  1.1818  0.1873 -0.8074
 8082TIP3   OH245660   1.550   3.366  14.537  0.6285 -0.2955 -0.2297
 8082TIP3    H145661   1.599   3.313  14.600  0.5444 -0.0821  0.0159
 8082TIP3    H245662   1.609   3.439  14.517 -0.0814  0.6697  1.0508
 8083TIP3   OH245663   0.481   6.498  12.775 -0.1608 -0.0141  0.2499
 8083TIP3    H145664   0.507   6.410  12.750 -1.1809 -0.7701  1.7137
 8083TIP3    H245665   0.407   6.486  12.834  0.3573  1.7685  1.3535
 8084TIP3   OH245666   2.696   2.699   3.693 -0.0402  0.0389 -0.0524
 8084TIP3    H145667   2.775   2.714   3.640  1.0241 -2.8806  0.5080
 8084TIP3    H245668   2.721   2.727   3.781 -1.2038  3.1893 -0.6039
 8085TIP3   OH245669   3.367   5.554   2.531 -0.2627 -0.1597  0.0496
 8085TIP3    H145670   3.296   5.543   2.595  0.4027 -1.9467  0.5291
 8085TIP3    H245671   3.431   5.610   2.577  0.2648 -1.5230  1.0525
 8086TIP3   OH245672   6.279   1.076  15.521  0.2202  0.1243 -0.5384
 8086TIP3    H145673   6.343   1.082  15.451  1.2758 -0.1747  0.3641
 8086TIP3    H245674   6.318   1.124  15.594 -1.2236  1.1585 -0.3967
 8087TIP3   OH245675   0.194   3.923  11.683 -0.1692  0.2010 -0.0865
 8087TIP3    H145676   0.203   3.994  11.747  1.0009 -1.0436  1.1968
 8087TIP3    H245677   0.279   3.920  11.638 -0.0042 -0.7341  0.2671
 8088TIP3   OH245678   4.614   0.781   1.210 -0.1371 -0.0397 -0.7021
 8088TIP3    H145679   4.625   0.874   1.234 -1.8033 -0.1692  0.8118
 8088TIP3    H245680   4.668   0.734   1.273 -1.6036 -0.1961  0.5015
 8089TIP3   OH245681   1.332   4.119  11.728  0.5320 -0.0594 -0.7745
 8089TIP3    H145682   1.286   4.090  11.650  0.4193  0.2060 -0.8091
 8089TIP3    H245683   1.309   4.212  11.736  0.1999 -0.1883 -0.1908
 8090TIP3   OH245684   3.195   1.177  15.000  0.0686 -0.8585 -0.5429
 8090TIP3    H145685   3.197   1.084  14.977  2.1702 -1.4471  1.6102
 8090TIP3    H245686   3.230   1.181  15.089 -0.8649  1.9240 -0.1917
 8091TIP3   OH245687   2.980   6.325   6.695  0.1223 -0.4149  0.0683
 8091TIP3    H145688   2.952   6.279   6.615 -1.0343  0.6416 -0.1627
 8091TIP3    H245689   2.926   6.287   6.764 -0.9554  0.6637 -0.1500
 8092TIP3   OH245690   5.725   3.355  12.723 -0.3785  0.0925 -0.6625
 8092TIP3    H145691   5.793   3.423  12.721 -1.3693  1.1852  0.7913
 8092TIP3    H245692   5.752   3.297  12.794 -2.2917  2.1114  1.9152
 8093TIP3   OH245693   4.072   1.286   0.001  1.4269  0.2106  0.0622
 8093TIP3    H145694   4.004   1.310  -0.062 -1.4784 -2.7494  1.7152
 8093TIP3    H245695   4.149   1.267  -0.052 -0.5944 -1.3142 -2.5664
 8094TIP3   OH245696   0.898   5.720   1.187 -0.3558  0.0124 -0.1435
 8094TIP3    H145697   0.824   5.750   1.240 -0.4308 -1.3791  0.5726
 8094TIP3    H245698   0.903   5.783   1.115 -2.7242 -0.3051 -0.6633
 8095TIP3   OH245699   5.038   3.546  14.571  0.0619 -0.3671 -0.3019
 8095TIP3    H145700   5.070   3.524  14.658 -0.1990  1.6133  0.3518
 8095TIP3    H245701   4.992   3.468  14.541 -0.2180 -0.9339  1.5048
 8096TIP3   OH245702   4.994   1.183  11.214  0.2510  0.0766  0.1255
 8096TIP3    H145703   4.927   1.192  11.282  0.4248  0.4770  0.2485
 8096TIP3    H245704   5.057   1.120  11.251 -0.4943 -0.9767 -0.3539
 8097TIP3   OH245705   6.238   2.653  13.300  0.2166  0.2867 -0.2240
 8097TIP3    H145706   6.250   2.734  13.351 -2.1745  0.0494  0.8373
 8097TIP3    H245707   6.169   2.674  13.237 -0.7881 -1.0365  0.3971
 8098TIP3   OH245708   2.711   4.562  15.778  0.0479  0.4115  0.1149
 8098TIP3    H145709   2.772   4.563  15.704  0.1981 -0.6117  0.2101
 8098TIP3    H245710   2.755   4.611  15.847  0.4823  0.2269 -0.0318
 8099TIP3   OH245711   4.574   2.643   5.979  0.4086  0.0271 -0.2078
 8099TIP3    H145712   4.619   2.573   6.028  1.3252  1.7604  1.5862
 8099TIP3    H245713   4.645   2.699   5.948 -0.3396  0.6860 -0.7597
 8100TIP3   OH245714   1.804   0.546  10.908 -0.1807  0.6129 -0.2870
 8100TIP3    H145715   1.846   0.530  10.823 -2.0064  0.5243 -1.2013
 8100TIP3    H245716   1.725   0.492  10.907 -0.3698  0.8087  1.3815
 8101TIP3   OH245717   2.966   3.623  11.091  0.2130 -0.6378 -0.0033
 8101TIP3    H145718   2.903   3.604  11.160 -0.2640 -0.4562 -0.3808
 8101TIP3    H245719   3.051   3.599  11.128 -0.3288 -3.8688 -0.5566
 8102TIP3   OH245720   0.016   1.305   2.837  0.1656  0.5383  0.4321
 8102TIP3    H145721   0.050   1.389   2.806 -2.3875  1.1625 -0.9804
 8102TIP3    H245722  -0.077   1.322   2.857 -1.6165 -2.6511 -3.6335
 8103TIP3   OH245723   4.626   5.593   3.860  0.2094 -0.5025 -0.5454
 8103TIP3    H145724   4.597   5.630   3.943 -2.1095 -0.1124 -1.4595
 8103TIP3    H245725   4.682   5.519   3.885  2.7361  1.8319  1.3012
 8104TIP3   OH245726   5.843   2.234  17.099 -0.0176 -0.1119 -0.0187
 8104TIP3    H145727   5.832   2.230  17.004 -0.7506 -1.5062  0.1010
 8104TIP3    H245728   5.889   2.153  17.122 -0.6544 -0.2303  0.9040
 8105TIP3   OH245729   2.281   4.297   0.209  0.5859 -0.2016  0.1014
 8105TIP3    H145730   2.211   4.306   0.274  0.5017 -0.0264 -0.0116
 8105TIP3    H245731   2.239   4.256   0.133  0.7114 -0.5156  0.2004
 8106TIP3   OH245732   2.336   2.931  11.220  0.1039  0.0878  0.2602
 8106TIP3    H145733   2.426   2.938  11.252  0.6859  1.2043 -1.4600
 8106TIP3    H245734   2.305   2.846  11.252  1.2394  0.3111  2.1043
 8107TIP3   OH245735   1.289   1.873  15.176 -0.2113 -0.5685 -0.0865
 8107TIP3    H145736   1.315   1.963  15.196 -1.5996 -0.0048 -0.6667
 8107TIP3    H245737   1.199   1.866  15.206 -0.2152 -1.6921 -0.2903
 8108TIP3   OH245738   6.485   5.462  14.560  0.3969 -0.4714  0.0163
 8108TIP3    H145739   6.509   5.435  14.472  0.8195  0.2917 -0.1162
 8108TIP3    H245740   6.544   5.535  14.580 -0.9515  0.6327  0.1701
 8109TIP3   OH245741   4.878   6.524   3.551 -0.3681 -0.1527  0.2755
 8109TIP3    H145742   4.785   6.545   3.561 -0.5156 -0.3180 -0.7215
 8109TIP3    H245743   4.880   6.451   3.489  0.4575  0.2103 -0.1347
 8110TIP3   OH245744   5.688   3.293  14.851 -0.0891  0.2197  0.0625
 8110TIP3    H145745   5.659   3.363  14.792  0.6684 -0.6874 -1.4434
 8110TIP3    H245746   5.782   3.308  14.861 -0.0263 -0.2592  0.1937
 8111TIP3   OH245747   0.110   2.009  15.701  0.1277 -0.1617  0.3473
 8111TIP3    H145748   0.172   1.986  15.633 -0.4102 -0.3434 -0.0920
 8111TIP3    H245749   0.145   2.088  15.742  0.7949 -0.4377  0.3090
 8112TIP3   OH245750   5.151   6.589  16.155 -0.0998  0.3663 -0.6935
 8112TIP3    H145751   5.197   6.521  16.205  0.0773 -0.5340 -2.0366
 8112TIP3    H245752   5.221   6.640  16.114 -0.2585  0.4485 -0.8617
 8113TIP3   OH245753   0.212   1.786   0.692  0.3820  0.5438  0.5163
 8113TIP3    H145754   0.160   1.820   0.765  0.4862 -1.1505  1.4344
 8113TIP3    H245755   0.147   1.761   0.626  0.1624  0.4636  0.7605
 8114TIP3   OH245756   2.859   3.800   5.433  0.3803 -0.9476  0.0813
 8114TIP3    H145757   2.846   3.706   5.445 -1.0843 -0.9744 -1.3988
 8114TIP3    H245758   2.772   3.838   5.447  0.1939 -0.1977 -2.5522
 8115TIP3   OH245759   0.380   0.031   0.170 -0.1151  0.2014  0.0050
 8115TIP3    H145760   0.417   0.002   0.254 -0.3517  0.6826  0.2795
 8115TIP3    H245761   0.431  -0.017   0.104  0.0410 -0.2192  0.4213
 8116TIP3   OH245762   6.478   1.144   2.460 -0.7502  0.2744 -0.2742
 8116TIP3    H145763   6.514   1.138   2.371 -0.5789 -0.6305 -0.1595
 8116TIP3    H245764   6.554   1.130   2.517 -1.0545 -0.3286 -0.0117
 8117TIP3   OH245765   3.394   5.250  12.667 -0.2780 -0.3146  0.1510
 8117TIP3    H145766   3.409   5.226  12.576 -0.0089  0.0631  0.0922
 8117TIP3    H245767   3.423   5.173  12.717  0.8021 -0.0359 -0.0234
 8118TIP3   OH245768   2.180   4.354  16.166  0.4475  0.1271  0.0087
 8118TIP3    H145769   2.179   4.431  16.108  0.3709  0.1301  0.0139
 8118TIP3    H245770   2.183   4.391  16.254 -1.1420  0.1458  0.0746
 8119TIP3   OH245771   1.459   1.076  12.431  0.4155 -0.0915 -0.1688
 8119TIP3    H145772   1.429   1.039  12.514  0.8227 -0.9869 -0.4095
 8119TIP3    H245773   1.525   1.140  12.455  0.7886 -0.6010  0.1886
 8120TIP3   OH245774   6.730   1.269  13.013 -0.1267  0.4492  0.5162
 8120TIP3    H145775   6.809   1.307  12.975  0.7305 -0.9123  0.8900
 8120TIP3    H245776   6.692   1.339  13.066 -0.4990  1.8944 -1.5471
 8121TIP3   OH245777   3.849   4.607   2.010 -0.1318 -0.0577 -0.2721
 8121TIP3    H145778   3.760   4.640   2.021 -0.4694 -1.2421  0.8159
 8121TIP3    H245779   3.906   4.680   2.034 -0.8167  0.5221 -0.4124
 8122TIP3   OH245780   1.085   6.498  17.015 -0.0020  0.1166 -0.1528
 8122TIP3    H145781   1.014   6.556  17.040  0.7652  1.2179 -0.4001
 8122TIP3    H245782   1.119   6.463  17.097  0.8371  1.6579  0.1939
 8123TIP3   OH245783   1.249   3.078   4.424 -0.2665  0.0734  0.0304
 8123TIP3    H145784   1.296   3.149   4.381  1.6430 -0.6433  0.8063
 8123TIP3    H245785   1.308   3.002   4.418 -1.1232 -0.7708  1.4289
 8124TIP3   OH245786   1.484   4.961  11.084  0.0011  0.0824 -1.0507
 8124TIP3    H145787   1.493   4.959  11.179 -0.3386  2.9585 -0.8649
 8124TIP3    H245788   1.390   4.958  11.068  0.0702 -0.7522 -1.3253
 8125TIP3   OH245789   1.284   4.466  12.750 -0.0687  0.6903 -0.5068
 8125TIP3    H145790   1.306   4.379  12.718 -0.1574  0.5739 -0.2622
 8125TIP3    H245791   1.326   4.471  12.836 -1.2723  0.3196  0.1349
 8126TIP3   OH245792   4.984   3.714   6.166 -0.0383  0.4757 -0.4168
 8126TIP3    H145793   5.015   3.672   6.246  0.8563  0.6182 -0.6844
 8126TIP3    H245794   4.989   3.808   6.184  1.1985  0.5335 -1.0163
 8127TIP3   OH245795   5.708   1.526  11.151  0.2187  0.2028 -0.0085
 8127TIP3    H145796   5.665   1.465  11.091  0.4687 -1.6694  1.6136
 8127TIP3    H245797   5.756   1.587  11.094 -0.2455 -0.9612 -1.6988
 8128TIP3   OH245798   1.044   2.537  17.019 -0.0563 -0.2318 -0.0229
 8128TIP3    H145799   1.117   2.594  17.042  0.0104 -0.5680  0.6241
 8128TIP3    H245800   1.022   2.492  17.101 -2.4126  1.4499  0.3380
 8129TIP3   OH245801   5.696   5.242  11.384 -0.2819 -0.1202 -0.1259
 8129TIP3    H145802   5.662   5.285  11.306 -2.5763 -0.1920  0.7750
 8129TIP3    H245803   5.708   5.151  11.358 -0.3618  0.0019 -0.5935
 8130TIP3   OH245804   4.495   3.056  15.569 -0.3571  0.3256  0.1651
 8130TIP3    H145805   4.427   3.098  15.515 -0.0029  1.6758  0.7266
 8130TIP3    H245806   4.447   2.996  15.626 -1.1807  1.7026  0.9781
 8131TIP3   OH245807   6.784   4.736   0.527 -0.7313  0.6482  0.2341
 8131TIP3    H145808   6.854   4.697   0.475 -1.6067 -0.2688 -0.2982
 8131TIP3    H245809   6.740   4.661   0.568 -1.7673  1.1473  0.0693
 8132TIP3   OH245810   2.205   1.923  17.194 -0.0807  0.3675  0.8128
 8132TIP3    H145811   2.240   1.928  17.283  1.6377 -0.4042  0.2042
 8132TIP3    H245812   2.122   1.876  17.204  1.5325 -2.4846  1.6463
 8133TIP3   OH245813   2.687   5.846   0.845  0.3089 -0.1492  0.5787
 8133TIP3    H145814   2.737   5.906   0.901  0.0268 -0.3097  1.0095
 8133TIP3    H245815   2.625   5.902   0.799  1.0317  0.0815 -0.1298
 8134TIP3   OH245816   0.094   5.189  14.662  0.1673  0.1606  0.6402
 8134TIP3    H145817   0.060   5.262  14.713 -0.0123 -1.1430  2.4958
 8134TIP3    H245818   0.172   5.160  14.710  1.3683  0.3180 -1.1225
 8135TIP3   OH245819   3.691   5.217  16.664  0.1046 -0.1660  0.0423
 8135TIP3    H145820   3.664   5.166  16.741  2.0895 -1.7865 -0.2627
 8135TIP3    H245821   3.746   5.158  16.614  1.8004  2.0105 -0.8118
 8136TIP3   OH245822   2.603   5.325  14.067 -0.1209 -0.3245  0.0721
 8136TIP3    H145823   2.641   5.383  14.001 -0.8876 -1.2487 -1.2277
 8136TIP3    H245824   2.517   5.302  14.032 -1.4685  0.7653  2.3654
 8137TIP3   OH245825   2.895   3.215   4.007  0.0430 -0.1068 -0.0478
 8137TIP3    H145826   2.957   3.168   4.064 -1.8495 -1.7279  0.8116
 8137TIP3    H245827   2.853   3.278   4.065 -0.1532 -0.0610 -0.2409
 8138TIP3   OH245828   4.133   2.756   3.417  0.1422 -0.2313 -0.5901
 8138TIP3    H145829   4.124   2.665   3.388 -0.4348  0.1648 -1.7158
 8138TIP3    H245830   4.138   2.750   3.512 -1.3980 -1.3501 -0.5294
 8139TIP3   OH245831   0.300   2.073   0.315 -0.7798 -0.4714  0.2183
 8139TIP3    H145832   0.270   1.997   0.365  1.7718 -0.5487  1.8144
 8139TIP3    H245833   0.395   2.064   0.311 -0.5878  1.4900 -1.5082
 8140TIP3   OH245834   0.123   4.466  16.598 -0.1056 -0.1627  0.1069
 8140TIP3    H145835   0.093   4.515  16.675 -1.0920  2.5430 -1.8265
 8140TIP3    H245836   0.043   4.434  16.557  0.3467 -0.8649 -0.2536
 8141TIP3   OH245837   5.464   6.082  16.989 -0.5329  0.2225  0.2375
 8141TIP3    H145838   5.375   6.072  16.953 -0.6020 -0.0659  0.4839
 8141TIP3    H245839   5.520   6.034  16.928 -0.3914  1.3349 -0.5366
 8142TIP3   OH245840   5.852   6.013   4.004  0.3983  0.2670  0.4652
 8142TIP3    H145841   5.928   6.013   3.946  0.8049  1.3733  0.9662
 8142TIP3    H245842   5.800   6.089   3.976 -1.8738 -1.8393 -1.5201
 8143TIP3   OH245843   5.762   0.772   1.862 -0.2370  0.2393  0.2783
 8143TIP3    H145844   5.779   0.679   1.852 -2.4185 -0.1214 -0.6311
 8143TIP3    H245845   5.689   0.790   1.803  0.5110  2.6744 -0.0374
 8144TIP3   OH245846   3.580   4.569   1.814  0.7248  0.0899  0.2922
 8144TIP3    H145847   3.549   4.639   1.873 -2.6939  0.7621 -2.0113
 8144TIP3    H245848   3.655   4.608   1.769 -0.8035  2.2365 -0.5915
 8145TIP3   OH245849   1.355   1.081   5.808  0.2078  0.4788 -0.2007
 8145TIP3    H145850   1.341   1.014   5.875 -1.1491  1.3746  0.4793
 8145TIP3    H245851   1.447   1.073   5.785  0.5390 -0.3620  1.2414
 8146TIP3   OH245852   6.430   2.497  10.944  0.3666  0.3522  0.6700
 8146TIP3    H145853   6.414   2.592  10.939 -1.7554  0.1105  1.7765
 8146TIP3    H245854   6.452   2.473  10.854 -1.1036  1.6041 -0.0794
 8147TIP3   OH245855   4.699   3.686  15.945  0.3828 -0.2770  0.1600
 8147TIP3    H145856   4.690   3.777  15.974 -1.2116  0.2234 -1.6527
 8147TIP3    H245857   4.775   3.687  15.887  0.1043  0.0073 -0.2039
 8148TIP3   OH245858   5.148   4.416   5.427  0.1782  0.6461  0.3606
 8148TIP3    H145859   5.123   4.377   5.512  0.7309  0.0561  0.2586
 8148TIP3    H245860   5.072   4.401   5.371  0.4850 -0.5763  0.2401
 8149TIP3   OH245861   0.745   2.866   6.008 -0.6280  0.1373 -1.2307
 8149TIP3    H145862   0.773   2.793   6.063 -0.4655  0.2774 -1.1288
 8149TIP3    H245863   0.780   2.944   6.051 -0.8609  0.2826 -1.3010
 8150TIP3   OH245864   1.472   2.249   2.073  0.1738  0.2393  0.8559
 8150TIP3    H145865   1.473   2.163   2.115 -0.0860 -0.0547  0.2726
 8150TIP3    H245866   1.547   2.246   2.013 -1.1928 -0.4655 -0.8850
 8151TIP3   OH245867   1.508   3.267  11.826  0.1460 -0.0104  0.4336
 8151TIP3    H145868   1.537   3.227  11.743  0.3492  2.4071 -0.7587
 8151TIP3    H245869   1.571   3.338  11.841 -0.4135  0.1498  2.2193
 8152TIP3   OH245870   3.503   1.978   5.941  0.6149  0.2078 -0.0953
 8152TIP3    H145871   3.569   2.047   5.932  0.9003 -0.0125  0.2867
 8152TIP3    H245872   3.465   1.993   6.028  0.8694 -0.2856  0.1030
 8153TIP3   OH245873   3.225   0.798  12.996 -0.3178  0.3435 -0.1053
 8153TIP3    H145874   3.237   0.759  12.909 -2.9190 -0.3191 -0.2497
 8153TIP3    H245875   3.247   0.890  12.984  0.1777  0.0904 -1.2627
 8154TIP3   OH245876   4.815   1.532  14.694 -0.3655 -0.0855 -0.0843
 8154TIP3    H145877   4.816   1.627  14.693 -1.9796 -0.0481 -0.4485
 8154TIP3    H245878   4.786   1.507  14.606 -0.3247 -0.9099  0.1246
 8155TIP3   OH245879   6.051   0.349  13.198  0.1342 -0.1665 -0.0730
 8155TIP3    H145880   6.001   0.338  13.117 -2.6256 -1.0985  1.6081
 8155TIP3    H245881   6.038   0.267  13.246  2.6058 -0.0728  0.8926
 8156TIP3   OH245882   2.985   3.459   2.002 -0.0192 -0.6187 -0.1218
 8156TIP3    H145883   3.017   3.500   2.083  0.6576  0.3312 -0.8534
 8156TIP3    H245884   2.973   3.367   2.026  0.0282 -0.3321  1.1018
 8157TIP3   OH245885   6.570   1.809  15.208  0.6471 -0.2287 -0.4668
 8157TIP3    H145886   6.513   1.769  15.142 -0.3779 -0.0230  0.2776
 8157TIP3    H245887   6.547   1.901  15.207  0.7767 -0.1917  0.0447
 8158TIP3   OH245888   3.332   0.749   5.525 -0.5333  0.7404 -0.3285
 8158TIP3    H145889   3.275   0.780   5.595 -0.1241  1.0772 -0.1434
 8158TIP3    H245890   3.386   0.681   5.566 -1.0545  0.1452 -0.5982
 8159TIP3   OH245891   2.397   4.979   1.992 -0.2452  0.3979  0.0129
 8159TIP3    H145892   2.421   4.887   1.983  0.9475  0.5866  1.0176
 8159TIP3    H245893   2.432   5.021   1.914 -0.8964  0.0005 -0.5074
 8160TIP3   OH245894   1.051   5.348   3.657 -0.3016  0.2120 -0.5672
 8160TIP3    H145895   1.107   5.276   3.628 -0.1423  0.3861 -0.6896
 8160TIP3    H245896   1.111   5.414   3.691 -0.4930 -0.0495  0.3118
 8161TIP3   OH245897   3.704   1.893  13.890  0.3977 -0.8076  0.0539
 8161TIP3    H145898   3.685   1.817  13.835  1.3133 -0.1676 -1.1999
 8161TIP3    H245899   3.790   1.923  13.860  0.1880  0.5307  0.7370
 8162TIP3   OH245900   6.455   0.148  14.296 -0.1002  0.4992  0.1077
 8162TIP3    H145901   6.457   0.224  14.354 -0.3846 -1.2422  2.5633
 8162TIP3    H245902   6.366   0.147  14.261 -0.7822  0.1677  1.7499
 8163TIP3   OH245903   0.355   0.873  14.414 -0.5169  0.1457 -0.6961
 8163TIP3    H145904   0.425   0.813  14.441  0.1327  1.0980 -0.2003
 8163TIP3    H245905   0.300   0.821  14.357 -0.8940 -1.4172  0.9945
 8164TIP3   OH245906   1.722   0.114  13.199  0.4094 -0.1515  0.0507
 8164TIP3    H145907   1.713   0.019  13.186 -0.3223 -0.7728  3.8180
 8164TIP3    H245908   1.632   0.145  13.210  0.5425  1.3022 -2.2105
 8165TIP3   OH245909   1.790   0.628  14.455  0.0178  0.5215 -0.6922
 8165TIP3    H145910   1.805   0.588  14.369  0.6797 -0.5145 -0.1211
 8165TIP3    H245911   1.852   0.583  14.513 -1.9143 -0.3934  0.7848
 8166TIP3   OH245912   5.320   0.949  15.654 -0.1944 -0.0126 -0.6210
 8166TIP3    H145913   5.380   0.879  15.631  0.5790 -0.0091  1.1857
 8166TIP3    H245914   5.374   1.029  15.651 -0.4246  0.1613 -0.2522
 8167TIP3   OH245915   6.327   2.130  13.819  0.0884 -0.8337  0.0894
 8167TIP3    H145916   6.418   2.137  13.846  0.3348 -0.6814 -0.7524
 8167TIP3    H245917   6.314   2.204  13.759 -0.5535 -0.9235  0.1103
 8168TIP3   OH245918   3.112   1.729  14.041  0.0627  0.7061 -0.5868
 8168TIP3    H145919   3.024   1.710  14.074  0.3205 -0.2061 -0.3978
 8168TIP3    H245920   3.098   1.779  13.961 -0.5856  3.1148  0.9284
 8169TIP3   OH245921   1.742   1.813   1.311 -0.4045 -0.0059 -0.0824
 8169TIP3    H145922   1.692   1.820   1.392 -0.4559 -0.6499 -0.0543
 8169TIP3    H245923   1.814   1.875   1.321 -0.3561 -0.1581  0.4907
 8170TIP3   OH245924   3.074   1.540  15.953  0.6187  0.4926 -0.3625
 8170TIP3    H145925   3.118   1.457  15.974 -0.8501 -0.2676 -0.0769
 8170TIP3    H245926   2.982   1.515  15.943  0.1215  2.1409 -0.1029
 8171TIP3   OH245927   5.651   2.358   4.751  0.1295  0.3474 -0.4422
 8171TIP3    H145928   5.667   2.450   4.733  1.2833  0.0731 -0.9056
 8171TIP3    H245929   5.691   2.312   4.677  1.5476 -0.6244  0.8625
 8172TIP3   OH245930   6.704   4.188   5.991  0.0459 -0.4627 -0.4052
 8172TIP3    H145931   6.744   4.101   5.989 -0.7114 -0.8281 -0.3911
 8172TIP3    H245932   6.744   4.231   6.067 -1.2750 -1.6867  1.0768
 8173TIP3   OH245933   3.412   1.280  14.185 -0.0998  0.0487  0.8354
 8173TIP3    H145934   3.435   1.372  14.196 -0.2609  0.5244 -1.9897
 8173TIP3    H245935   3.471   1.248  14.117 -1.3880 -1.3435  0.3005
 8174TIP3   OH245936   5.790   1.987  14.060 -0.0192  0.7201  0.0724
 8174TIP3    H145937   5.833   1.927  13.998 -0.9371 -1.8163  1.7009
 8174TIP3    H245938   5.735   2.042  14.006  1.6974  0.8703 -1.6255
 8175TIP3   OH245939   4.013   4.398   2.088 -0.0066 -0.5205 -0.1675
 8175TIP3    H145940   4.096   4.431   2.054 -0.0154 -1.0224 -0.7050
 8175TIP3    H245941   3.949   4.465   2.065 -0.3385 -1.5999 -2.8231
 8176TIP3   OH245942   4.843   1.941  12.673  0.1518 -0.2975  0.4912
 8176TIP3    H145943   4.807   1.970  12.757  0.6019 -0.1748  0.6468
 8176TIP3    H245944   4.812   2.006  12.609  0.3283 -0.0322  0.6713
 8177TIP3   OH245945   3.278   5.407  15.536 -0.5105  0.0205  0.1015
 8177TIP3    H145946   3.259   5.314  15.521 -2.2013  0.4650 -0.6604
 8177TIP3    H245947   3.323   5.435  15.456  0.9071 -0.3440  0.7367
 8178TIP3   OH245948   0.977   1.966   2.240 -0.4889 -0.5918  0.3201
 8178TIP3    H145949   0.897   1.935   2.280 -1.4175 -0.3317 -1.2431
 8178TIP3    H245950   0.976   1.929   2.152  0.9733 -0.3576  0.1729
 8179TIP3   OH245951   2.147   4.777   6.292  0.1737 -0.0708 -0.5549
 8179TIP3    H145952   2.097   4.855   6.317  1.1778 -0.2344  2.3042
 8179TIP3    H245953   2.093   4.704   6.320  1.0698 -0.2807  0.6958
 8180TIP3   OH245954   6.206   4.745  13.188  0.4076  0.4189 -0.1244
 8180TIP3    H145955   6.154   4.669  13.215 -1.5465  1.9142  0.5789
 8180TIP3    H245956   6.290   4.734  13.232  0.7933 -2.0764 -1.2820
 8181TIP3   OH245957   6.251   4.915  11.463 -0.1334 -0.2520  0.5165
 8181TIP3    H145958   6.192   4.988  11.446  0.0439  0.0559  1.2059
 8181TIP3    H245959   6.194   4.846  11.498 -0.3142 -0.4894 -0.2114
 8182TIP3   OH245960   3.651   0.661  11.227  0.1624  0.0284 -0.5421
 8182TIP3    H145961   3.671   0.608  11.150  0.4087 -1.4858  0.5266
 8182TIP3    H245962   3.569   0.624  11.261  2.1636 -2.2685  2.3207
 8183TIP3   OH245963   1.994   3.687   1.381  0.1908  0.4182  0.7388
 8183TIP3    H145964   2.028   3.607   1.419 -3.8392 -0.7629  2.4263
 8183TIP3    H245965   1.927   3.658   1.318  0.4554  2.4752 -0.6127
 8184TIP3   OH245966   5.545   1.158   0.901 -0.1014  0.0409 -0.6041
 8184TIP3    H145967   5.505   1.093   0.843  0.0886 -0.3686 -0.2852
 8184TIP3    H245968   5.638   1.155   0.880 -0.0105 -0.2289 -0.1625
 8185TIP3   OH245969   4.330   2.378  14.355  0.2958 -0.0915  0.0575
 8185TIP3    H145970   4.401   2.424  14.402 -1.3980  1.7140  1.0128
 8185TIP3    H245971   4.301   2.311  14.417  0.8828 -0.5707 -0.1755
 8186TIP3   OH245972   1.879   4.265   4.255  0.6054 -0.1717 -0.0317
 8186TIP3    H145973   1.932   4.324   4.309  0.1128 -0.8364  1.1973
 8186TIP3    H245974   1.800   4.248   4.306  1.1905 -2.7473  0.1658
 8187TIP3   OH245975   6.215   5.915   3.180  0.2085  0.0290  0.8009
 8187TIP3    H145976   6.214   5.984   3.246  0.0211  0.3580  0.4569
 8187TIP3    H245977   6.306   5.913   3.150  0.0010  0.8735  0.0472
 8188TIP3   OH245978   4.850   4.861  17.162  0.4269 -0.5191 -0.4248
 8188TIP3    H145979   4.881   4.805  17.090 -3.0552 -3.6524  0.2349
 8188TIP3    H245980   4.861   4.808  17.240  0.9862  1.5107  0.9556
 8189TIP3   OH245981   3.472   4.199  14.317 -0.2771 -0.0727 -0.0899
 8189TIP3    H145982   3.452   4.290  14.294 -0.9543 -0.4704 -1.2104
 8189TIP3    H245983   3.408   4.177  14.385 -0.0227  0.3250  0.2819
 8190TIP3   OH245984   2.248   1.370  15.982 -0.1674 -0.3601 -0.3206
 8190TIP3    H145985   2.264   1.399  15.892  1.5033 -0.9234 -0.2531
 8190TIP3    H245986   2.255   1.275  15.978 -0.8181 -0.4408  0.2787
 8191TIP3   OH245987   5.538   1.335   1.741 -0.1598  0.1710  0.4352
 8191TIP3    H145988   5.585   1.379   1.811  1.4654  1.0990 -1.1560
 8191TIP3    H245989   5.501   1.407   1.689 -0.6738 -0.4782 -0.1169
 8192TIP3   OH245990   1.200   3.242   2.013 -0.0602 -0.0773  0.1158
 8192TIP3    H145991   1.261   3.169   2.004 -0.2184 -0.2485  0.4046
 8192TIP3    H245992   1.214   3.275   2.102 -1.3344 -0.9990  0.6888
 8193TIP3   OH245993   6.496   5.845  14.749  0.9323 -0.1668  0.0103
 8193TIP3    H145994   6.485   5.939  14.762 -2.3377 -0.4940  0.4363
 8193TIP3    H245995   6.554   5.818  14.820  2.2270  1.5495 -0.3395
 8194TIP3   OH245996   6.287   5.359  17.214  0.0229 -0.4825  0.0759
 8194TIP3    H145997   6.335   5.365  17.296 -1.4903 -1.1297  1.0633
 8194TIP3    H245998   6.262   5.449  17.194  0.5114 -0.3068  0.2544
 8195TIP3   OH245999   0.520   6.593   3.886 -0.2082 -0.2673 -0.1605
 8195TIP3    H146000   0.454   6.524   3.891  0.6129 -1.5044 -3.5202
 8195TIP3    H246001   0.599   6.553   3.924 -0.4546 -0.0977  0.5443
 8196TIP3   OH246002   1.797   3.958  15.639 -0.0379 -0.2285 -0.2021
 8196TIP3    H146003   1.708   3.976  15.610  0.1175 -0.4689 -0.8488
 8196TIP3    H246004   1.797   3.865  15.660  0.4191 -0.5825 -1.6169
 8197TIP3   OH246005   1.684   2.836   0.819 -0.3467 -0.0081 -0.1711
 8197TIP3    H146006   1.721   2.913   0.863 -1.8190  0.7577 -0.2205
 8197TIP3    H246007   1.731   2.831   0.735 -0.9380  1.4631 -0.6121
 8198TIP3   OH246008   4.457   1.127   0.171  0.6946  0.3280  0.4613
 8198TIP3    H146009   4.473   1.085   0.087 -1.7737  0.8383 -0.3484
 8198TIP3    H246010   4.475   1.220   0.156  2.2758  0.1617  1.1308
 8199TIP3   OH246011   4.594   3.720   2.729 -0.2978 -0.2080 -0.3256
 8199TIP3    H146012   4.649   3.643   2.711 -1.1794 -1.2163  1.0553
 8199TIP3    H246013   4.605   3.735   2.823 -1.4882  0.2873 -0.2508
 8200TIP3   OH246014   3.659   2.437   2.810  0.0218  0.7375  0.3500
 8200TIP3    H146015   3.597   2.392   2.752  1.0756 -0.7193  0.3046
 8200TIP3    H246016   3.721   2.369   2.837 -0.2334  1.4281  2.9607
 8201TIP3   OH246017   1.539   5.934  14.784  0.1151 -0.0442 -0.2801
 8201TIP3    H146018   1.580   6.013  14.747 -0.3238  1.2822  1.8723
 8201TIP3    H246019   1.504   5.888  14.708  3.0067  0.2341 -1.9273
 8202TIP3   OH246020   1.932   6.582  14.960 -0.0095 -0.3777 -0.3820
 8202TIP3    H146021   1.954   6.519  15.029  0.5758  0.7841  0.5132
 8202TIP3    H246022   1.998   6.650  14.967 -0.2929  0.0644 -1.7229
 8203TIP3   OH246023   5.977   4.722   2.688 -0.1323 -0.3659 -0.3768
 8203TIP3    H146024   6.002   4.686   2.603 -2.3256 -0.1892 -1.1721
 8203TIP3    H246025   6.007   4.813   2.685  2.6039 -1.1401  0.3776
 8204TIP3   OH246026   3.871   0.058   3.988  0.2255  0.0156  0.4014
 8204TIP3    H146027   3.793   0.081   3.938  0.7987  0.5205 -0.2760
 8204TIP3    H246028   3.854   0.091   4.076 -0.3401  0.0803  0.2716
 8205TIP3   OH246029   2.308   1.430   4.418 -0.0545  0.1031 -0.1079
 8205TIP3    H146030   2.342   1.504   4.366 -0.1368  0.8304  0.8425
 8205TIP3    H246031   2.366   1.426   4.494 -0.1197 -0.7593 -0.0989
 8206TIP3   OH246032   4.346   6.665  14.175  0.2012  0.2051  0.5179
 8206TIP3    H146033   4.316   6.729  14.240  0.3262 -1.2713  2.0799
 8206TIP3    H246034   4.382   6.593  14.226  0.2739 -1.0439 -1.1965
 8207TIP3   OH246035   5.881   6.269  16.126  0.5207  0.4788  0.1594
 8207TIP3    H146036   5.932   6.220  16.061 -1.1572 -1.8545  0.4758
 8207TIP3    H246037   5.838   6.338  16.076  2.3761  1.2589 -0.4441
 8208TIP3   OH246038   2.643   3.729  16.059 -0.9621 -0.0836 -0.4085
 8208TIP3    H146039   2.643   3.677  15.978 -0.4791  0.0188 -0.4754
 8208TIP3    H246040   2.553   3.725  16.090 -1.2512  0.2145 -1.1763
 8209TIP3   OH246041   2.731   2.677   1.680  0.3413 -0.1945  0.1536
 8209TIP3    H146042   2.802   2.675   1.616  0.3848 -1.6071  0.2013
 8209TIP3    H246043   2.762   2.736   1.749  0.4483  1.0568 -0.9381
 8210TIP3   OH246044   3.624   4.855   0.756  0.1742  0.2580  0.4665
 8210TIP3    H146045   3.615   4.816   0.669 -0.1514 -0.0639  0.6425
 8210TIP3    H246046   3.534   4.861   0.788  0.1753  1.4957  0.2950
 8211TIP3   OH246047   4.145   6.141   2.738 -0.2004  0.4728 -0.5238
 8211TIP3    H146048   4.138   6.130   2.644 -1.7447  1.7744 -0.5981
 8211TIP3    H246049   4.121   6.055   2.774  0.2339  0.0185 -1.3007
 8212TIP3   OH246050   3.348   2.729   2.909  0.1275 -0.7916 -0.1090
 8212TIP3    H146051   3.309   2.642   2.920  0.5976 -1.2192 -1.5913
 8212TIP3    H246052   3.285   2.777   2.856 -0.1865 -0.1650  0.8066
 8213TIP3   OH246053   5.826   6.143   3.584 -0.3485  0.1349  0.2477
 8213TIP3    H146054   5.859   6.113   3.500 -3.1810 -2.3654 -0.1159
 8213TIP3    H246055   5.868   6.229   3.597  0.8040  0.2400 -3.2666
 8214TIP3   OH246056   5.711   5.988  11.541 -0.0060  0.1506 -0.6016
 8214TIP3    H146057   5.633   6.001  11.594  0.6873 -0.0150  0.5058
 8214TIP3    H246058   5.685   6.013  11.452 -1.1693  0.5440 -0.1673
 8215TIP3   OH246059   4.674   6.706  11.856  0.0383  0.1892  0.2903
 8215TIP3    H146060   4.717   6.688  11.773 -0.2234  1.3879 -0.1165
 8215TIP3    H246061   4.728   6.774  11.897 -1.8508  2.3405 -0.6019
 8216TIP3   OH246062   2.254   0.487   4.451 -0.8117  0.2212  0.2269
 8216TIP3    H146063   2.322   0.445   4.398 -0.4764  2.0555 -0.8789
 8216TIP3    H246064   2.172   0.460   4.410 -0.7261 -1.0540  0.8520
 8217TIP3   OH246065   5.253   0.089  16.173 -0.0343 -0.3068 -0.0498
 8217TIP3    H146066   5.201   0.127  16.243 -0.4805 -0.9180 -0.0387
 8217TIP3    H246067   5.257   0.156  16.105 -1.7254 -0.6137 -0.4960
 8218TIP3   OH246068   0.096   2.625  16.670  0.0295  0.4036 -0.2934
 8218TIP3    H146069   0.072   2.693  16.608 -1.2973 -1.1699 -1.5961
 8218TIP3    H246070   0.064   2.658  16.755 -0.5029  1.4332 -0.8696
 8219TIP3   OH246071   5.746   6.290   1.155 -0.2597 -0.0989  0.0981
 8219TIP3    H146072   5.830   6.258   1.122  0.0885  0.5716  0.3233
 8219TIP3    H246073   5.696   6.211   1.175  0.7687 -0.5164  1.1173
 8220TIP3   OH246074   6.465   1.174   1.531  0.4640  0.0542 -0.1937
 8220TIP3    H146075   6.397   1.111   1.556  0.8021 -0.0899  0.3711
 8220TIP3    H246076   6.492   1.146   1.443 -0.6673  0.5098 -0.7088
 8221TIP3   OH246077   6.245   3.539   4.283 -0.4364  0.0134 -0.4289
 8221TIP3    H146078   6.327   3.557   4.330 -0.0719  1.9624 -1.6822
 8221TIP3    H246079   6.187   3.502   4.350  1.4991 -1.6892  0.4361
 8222TIP3   OH246080   4.615   2.812   1.737 -0.4536 -0.2407  0.4952
 8222TIP3    H146081   4.641   2.883   1.796  0.1539  2.8490 -3.0490
 8222TIP3    H246082   4.687   2.749   1.742  0.8256  1.2026  1.2278
 8223TIP3   OH246083   2.936   6.193  12.663  0.0690  0.9292  0.2217
 8223TIP3    H146084   2.844   6.170  12.651 -0.0931  1.0486  1.1250
 8223TIP3    H246085   2.954   6.171  12.755  0.6190  1.9508  0.3735
 8224TIP3   OH246086   3.774   1.516   0.195 -0.0486  0.4330  0.1931
 8224TIP3    H146087   3.830   1.534   0.271 -0.6339  1.2966  0.4238
 8224TIP3    H246088   3.724   1.438   0.221  0.8563 -0.2090  0.0768
 8225TIP3   OH246089   1.178   1.565   1.052 -0.3886 -0.8338 -0.2730
 8225TIP3    H146090   1.256   1.517   1.076 -0.3449 -0.7682 -0.2820
 8225TIP3    H246091   1.122   1.501   1.009 -1.3785 -1.4642  1.8604
 8226TIP3   OH246092   6.476   4.076  15.403 -0.3449 -0.5917  0.2534
 8226TIP3    H146093   6.444   4.040  15.486 -0.2405 -1.0759  0.0894
 8226TIP3    H246094   6.501   3.999  15.351  1.4578 -0.2435  0.5148
 8227TIP3   OH246095   0.550   1.065   1.175 -0.2772  0.5834 -0.3885
 8227TIP3    H146096   0.501   1.147   1.187 -2.0240  0.0273 -2.9516
 8227TIP3    H246097   0.630   1.092   1.131  0.8097  1.2404  1.8486
 8228TIP3   OH246098   1.211   0.977  13.058  0.1831  0.8497 -0.1585
 8228TIP3    H146099   1.253   0.892  13.049  0.6346  1.0467  0.0383
 8228TIP3    H246100   1.152   0.968  13.132  1.2527  1.0948  0.7637
 8229TIP3   OH246101   6.544   4.868   2.142  0.2784  0.6359  0.1995
 8229TIP3    H146102   6.604   4.822   2.082 -0.0478  0.8201 -0.2789
 8229TIP3    H246103   6.460   4.823   2.130 -0.1988  1.7345 -0.7336
 8230TIP3   OH246104   1.917   1.145  16.543 -0.1046  0.0552  0.1374
 8230TIP3    H146105   1.822   1.133  16.541 -0.1894  0.5174  1.0067
 8230TIP3    H246106   1.947   1.084  16.611  0.0858  0.7504  0.6808
 8231TIP3   OH246107   1.547   5.469   4.684 -0.1097 -0.0182 -0.3622
 8231TIP3    H146108   1.522   5.533   4.618 -1.4389 -1.4607 -1.3152
 8231TIP3    H246109   1.582   5.395   4.635 -0.9937 -1.0717  0.5464
 8232TIP3   OH246110   0.843   3.903   0.110  0.0498  0.0415  0.5335
 8232TIP3    H146111   0.868   3.845   0.038 -0.0824 -0.5665  0.9754
 8232TIP3    H246112   0.828   3.988   0.067  2.3458  0.3395  0.1661
 8233TIP3   OH246113   4.022   2.676  14.358 -0.0450  0.2778  0.3980
 8233TIP3    H146114   4.024   2.756  14.304 -1.1691  1.0687  1.4765
 8233TIP3    H246115   4.097   2.687  14.418  0.5733 -0.1020 -0.2943
 8234TIP3   OH246116   3.202   2.348  14.863  0.4697  0.4816  0.3376
 8234TIP3    H146117   3.283   2.312  14.828  0.9437  2.0236 -0.2368
 8234TIP3    H246118   3.225   2.437  14.890 -1.0443  0.9962  0.0511
 8235TIP3   OH246119   4.318   4.957  13.595 -0.2953 -0.5583  0.2250
 8235TIP3    H146120   4.317   4.880  13.652 -1.9777  0.2675  1.4014
 8235TIP3    H246121   4.229   4.991  13.599  0.9584  3.0582  2.0263
 8236TIP3   OH246122   2.962   3.046  15.680 -0.5926 -0.1835 -0.0690
 8236TIP3    H146123   2.935   3.118  15.622 -1.3837  0.2083  0.7582
 8236TIP3    H246124   2.956   3.083  15.768  0.7450 -0.7181  0.2709
 8237TIP3   OH246125   5.533   1.907  13.726  0.2268 -0.1930  0.2005
 8237TIP3    H146126   5.477   1.901  13.648 -0.4291  0.9000  0.5515
 8237TIP3    H246127   5.493   1.848  13.790 -1.2846  1.4334  0.8530
 8238TIP3   OH246128   1.354   6.437   0.997  0.6966 -0.1920  0.1581
 8238TIP3    H146129   1.295   6.513   0.995 -1.7964 -1.9910 -0.7935
 8238TIP3    H246130   1.376   6.423   0.905 -2.6247 -3.1542 -0.3941
 8239TIP3   OH246131   6.083   1.695  16.060  0.1389  0.3358 -0.3757
 8239TIP3    H146132   6.070   1.616  16.113  1.6102 -0.2629 -0.8517
 8239TIP3    H246133   6.159   1.674  16.006  0.6721  2.1567 -0.3771
 8240TIP3   OH246134   0.233   0.431   5.658  0.3727 -0.1518  0.0324
 8240TIP3    H146135   0.227   0.358   5.719 -0.4983 -1.1995 -1.2572
 8240TIP3    H246136   0.204   0.395   5.574  1.3163  1.3006 -0.9677
 8241TIP3   OH246137   0.439   0.536  15.816  0.1356 -0.2736 -1.0158
 8241TIP3    H146138   0.420   0.546  15.723  1.0750  0.3878 -1.1532
 8241TIP3    H246139   0.524   0.578  15.828  0.0204 -0.3243  0.1496
 8242TIP3   OH246140   0.475   2.128  14.879 -0.3207 -0.4981 -0.3570
 8242TIP3    H146141   0.451   2.142  14.970  1.7542  0.8310  0.0672
 8242TIP3    H246142   0.439   2.205  14.833 -1.8724 -1.4560 -0.8071
 8243TIP3   OH246143   5.277   3.103   3.929  0.1180 -0.0526 -0.1166
 8243TIP3    H146144   5.322   3.140   3.853 -0.1801 -0.1031 -0.3197
 8243TIP3    H246145   5.289   3.168   3.998 -0.5281  0.5089 -0.5131
 8244TIP3   OH246146   2.968   0.695   6.062 -0.5449  0.5599 -0.1756
 8244TIP3    H146147   2.896   0.641   6.030  0.5006 -0.3467 -1.1093
 8244TIP3    H246148   2.931   0.782   6.075 -1.9517 -0.0550  0.0284
 8245TIP3   OH246149   3.674   1.916  11.612  0.7170  0.4151  0.8447
 8245TIP3    H146150   3.651   2.004  11.583 -1.6750 -0.3009  0.3336
 8245TIP3    H246151   3.741   1.887  11.551 -0.7217  0.7515 -0.9761
 8246TIP3   OH246152   1.831   3.336  15.398 -0.5357  0.3676 -0.4174
 8246TIP3    H146153   1.798   3.422  15.372 -1.0338  1.4662  3.2345
 8246TIP3    H246154   1.920   3.333  15.362 -0.8028  2.0228 -1.3398
 8247TIP3   OH246155   6.268   1.675  14.807  0.1957 -0.1597 -0.3935
 8247TIP3    H146156   6.358   1.670  14.776 -0.0184  2.2934 -1.6143
 8247TIP3    H246157   6.216   1.638  14.736  0.1432 -0.5237 -0.1690
 8248TIP3   OH246158   0.647   3.922  15.974 -0.5505  0.2355 -0.0513
 8248TIP3    H146159   0.686   3.993  15.923  0.0953  1.3317  1.8743
 8248TIP3    H246160   0.695   3.844  15.947 -0.8529  0.6037 -1.7560
 8249TIP3   OH246161   0.080   4.981   0.596  0.5463 -0.0599  0.2901
 8249TIP3    H146162   0.155   5.011   0.545  1.0897 -0.8000  0.6448
 8249TIP3    H246163   0.064   4.892   0.565  1.0283 -0.6112  1.5553
 8250TIP3   OH246164   0.734   1.160  15.595 -0.0501  0.7568 -0.1707
 8250TIP3    H146165   0.720   1.169  15.689  2.3542  1.5053  0.1951
 8250TIP3    H246166   0.777   1.075  15.585  0.3733  0.9971 -0.4690
 8251TIP3   OH246167   5.143   0.121  10.932 -0.5503 -0.1429  0.3044
 8251TIP3    H146168   5.119   0.030  10.950 -0.7949 -0.4159 -1.2127
 8251TIP3    H246169   5.236   0.117  10.909 -0.1933  0.2222  1.6010
 8252TIP3   OH246170   4.488   1.587  14.633  0.4840 -0.0777  0.0942
 8252TIP3    H146171   4.551   1.587  14.562  0.9346 -0.1204  0.4923
 8252TIP3    H246172   4.499   1.671  14.676 -0.3891  0.3088 -0.4061
 8253TIP3   OH246173   0.440   0.525   1.596 -0.2323  0.2868 -0.2096
 8253TIP3    H146174   0.511   0.514   1.660 -1.2893 -2.4051  0.6183
 8253TIP3    H246175   0.458   0.610   1.556  1.7293  1.0746  2.0901
 8254TIP3   OH246176   5.976   3.554   6.227  0.1847 -0.2383  0.5886
 8254TIP3    H146177   6.067   3.525   6.231 -0.5747 -2.9184  0.5970
 8254TIP3    H246178   5.939   3.527   6.311 -0.6440  0.7926  0.5684
 8255TIP3   OH246179   3.075   0.710   1.929  0.1348 -0.0064 -0.0525
 8255TIP3    H146180   3.007   0.765   1.889  0.9546  1.6995  0.7657
 8255TIP3    H246181   3.030   0.662   1.998 -0.3366  0.7865  0.2015
 8256TIP3   OH246182   5.805   0.395   4.083 -0.5308 -0.3913 -0.2273
 8256TIP3    H146183   5.743   0.462   4.054 -0.9969 -0.3908  0.7517
 8256TIP3    H246184   5.867   0.443   4.139  1.5205  0.0068 -2.6277
 8257TIP3   OH246185   1.952   5.393   3.200  1.0791  0.3423  0.2569
 8257TIP3    H146186   1.902   5.379   3.120  0.7493  0.5445  0.4262
 8257TIP3    H246187   2.005   5.314   3.209  0.1133 -0.2875  0.5668
 8258TIP3   OH246188   1.832   3.353   1.227  0.3789  0.2771 -0.3286
 8258TIP3    H146189   1.868   3.331   1.313  1.5406 -0.5522 -0.9966
 8258TIP3    H246190   1.816   3.269   1.185  0.9535  0.6705 -1.3730
 8259TIP3   OH246191   0.006   1.833  12.158  0.2224  0.3244 -0.1802
 8259TIP3    H146192  -0.033   1.841  12.245  0.8735  0.7010  0.0793
 8259TIP3    H246193   0.079   1.773  12.170 -0.5390 -0.7555 -0.7629
 8260TIP3   OH246194   4.857   3.236   3.015  0.2106 -0.1219  0.2707
 8260TIP3    H146195   4.906   3.256   2.935  0.4656 -1.4014  0.0905
 8260TIP3    H246196   4.880   3.306   3.076  0.7040  0.3795 -0.4822
 8261TIP3   OH246197   0.153   1.806   0.960 -0.6126 -0.2564 -0.4717
 8261TIP3    H146198   0.174   1.713   0.969  0.9474  0.0835 -0.3314
 8261TIP3    H246199   0.062   1.812   0.987 -0.6057 -1.6708 -0.0106
 8262TIP3   OH246200   3.992   2.944  13.714 -0.2325 -0.4499  0.1639
 8262TIP3    H146201   3.913   2.986  13.679 -1.2209 -0.0168  2.7293
 8262TIP3    H246202   3.965   2.853  13.728 -0.0081 -0.4931  0.3024
 8263TIP3   OH246203   3.018   2.868  13.836  0.0914  0.1079 -0.1206
 8263TIP3    H146204   3.099   2.878  13.785  0.5458  0.2517  0.6116
 8263TIP3    H246205   3.045   2.822  13.916 -0.1532  1.8512  1.0321
 8264TIP3   OH246206   2.356   4.829  15.435 -0.1156 -0.2185  0.0833
 8264TIP3    H146207   2.308   4.746  15.447 -1.4453  0.4804 -0.2098
 8264TIP3    H246208   2.396   4.846  15.520 -2.3500  0.3481  1.0918
 8265TIP3   OH246209   5.756   5.700  13.208 -0.1668  0.2819 -0.3527
 8265TIP3    H146210   5.770   5.623  13.153 -1.6406 -0.8955  0.8080
 8265TIP3    H246211   5.843   5.721  13.242  0.2493 -1.0241 -0.5252
 8266TIP3   OH246212   2.116   6.227   5.812  0.2777 -0.6604  0.5356
 8266TIP3    H146213   2.124   6.193   5.901 -0.2540 -3.3460 -0.3432
 8266TIP3    H246214   2.188   6.185   5.764  0.3185  0.4309 -0.4021
 8267TIP3   OH246215   2.692   1.341   3.879  1.2996 -0.5056 -0.4088
 8267TIP3    H146216   2.738   1.412   3.922 -0.1852  1.0756 -1.3171
 8267TIP3    H246217   2.648   1.382   3.804  0.0361 -2.2807 -0.7220
 8268TIP3   OH246218   2.525   1.906  14.721  0.0305 -0.2803 -0.6548
 8268TIP3    H146219   2.605   1.909  14.774  0.2803  2.2715 -1.0483
 8268TIP3    H246220   2.552   1.866  14.639  0.9187  0.4897 -0.7555
 8269TIP3   OH246221   6.381   1.413   4.553 -0.2463 -0.3506 -0.6206
 8269TIP3    H146222   6.408   1.329   4.589 -1.2164 -0.3160  0.2188
 8269TIP3    H246223   6.285   1.409   4.551 -0.3573  1.1544  0.4797
 8270TIP3   OH246224   0.998   0.175   4.273  0.2358  0.1034 -0.1714
 8270TIP3    H146225   0.972   0.093   4.315  0.1383 -0.0314 -0.4926
 8270TIP3    H246226   0.950   0.243   4.321 -0.0382 -0.0671 -0.2049
 8271TIP3   OH246227   2.234   0.971  16.401 -0.1861  0.2427  0.4301
 8271TIP3    H146228   2.162   1.033  16.404 -1.2107 -0.6637 -2.3469
 8271TIP3    H246229   2.226   0.929  16.315  1.8527 -2.0595  1.2535
 8272TIP3   OH246230   0.438   5.312   5.967  0.0829  0.3354  0.1545
 8272TIP3    H146231   0.457   5.258   5.890 -0.9908  0.5243 -0.2603
 8272TIP3    H246232   0.394   5.390   5.931 -1.3232 -0.0213  1.0273
 8273TIP3   OH246233   5.780   0.392  11.988  0.5612 -0.4816  0.4041
 8273TIP3    H146234   5.784   0.401  12.084  0.3136 -2.1288  0.6074
 8273TIP3    H246235   5.711   0.327  11.973  0.5061 -0.1484 -0.9154
 8274TIP3   OH246236   1.122   6.261   3.950 -0.1386  0.2979 -0.3542
 8274TIP3    H146237   1.058   6.332   3.948 -1.2017 -0.3405  3.3035
 8274TIP3    H246238   1.081   6.190   3.900 -1.4791  0.5626  0.3123
 8275TIP3   OH246239   0.830   6.430   0.144  0.2740 -0.1387 -0.0475
 8275TIP3    H146240   0.860   6.359   0.201 -1.2454  0.5046  1.6651
 8275TIP3    H246241   0.905   6.449   0.088  2.1900 -0.2591  2.2971
 8276TIP3   OH246242   5.831   6.726   2.182  0.0007 -0.7503  0.0448
 8276TIP3    H146243   5.846   6.785   2.108  1.4557 -2.2583 -0.9566
 8276TIP3    H246244   5.803   6.782   2.253  2.0048  1.2630 -0.6331
 8277TIP3   OH246245   4.761   1.010  16.384 -0.2742 -0.5087 -0.0635
 8277TIP3    H146246   4.810   0.985  16.306 -1.1640 -0.2613 -0.7148
 8277TIP3    H246247   4.781   1.103  16.396 -1.6490 -0.0520 -1.1438
 8278TIP3   OH246248   6.610   2.093   2.667  0.4726 -0.0559 -0.0187
 8278TIP3    H146249   6.648   2.181   2.657  0.0490  0.0681 -0.5520
 8278TIP3    H246250   6.557   2.099   2.746  3.4199 -0.8995  2.2030
 8279TIP3   OH246251   4.114   2.858  16.900 -0.4372  0.5998  0.0906
 8279TIP3    H146252   4.019   2.852  16.911 -0.4978  1.0577 -0.1673
 8279TIP3    H246253   4.139   2.773  16.864 -0.8209  0.6625 -0.3291
 8280TIP3   OH246254   5.836   2.974   5.434  0.0692 -0.0493  0.3047
 8280TIP3    H146255   5.867   2.978   5.344  0.9885  1.4722  0.6503
 8280TIP3    H246256   5.839   3.065   5.465  0.9873 -0.6759  2.2384
 8281TIP3   OH246257   2.304   3.749  12.559 -0.2494  0.4158 -0.3921
 8281TIP3    H146258   2.234   3.797  12.604  0.2265 -0.4542  1.3596
 8281TIP3    H246259   2.383   3.768  12.609 -0.0900 -2.3725  0.6239
 8282TIP3   OH246260   6.543   3.040  14.408  0.2635 -0.4203 -0.0636
 8282TIP3    H146261   6.516   3.093  14.483 -1.1998  1.0320 -1.5360
 8282TIP3    H246262   6.639   3.044  14.410  0.2304  0.6095  1.0104
 8283TIP3   OH246263   4.787   6.593   6.030  0.1803  0.6406  0.3666
 8283TIP3    H146264   4.755   6.531   6.096 -1.5014  1.2906  0.1910
 8283TIP3    H246265   4.775   6.679   6.070  0.0196  0.9898 -0.4340
 8284TIP3   OH246266   0.614   0.354   3.370  0.0707  0.5568 -0.0283
 8284TIP3    H146267   0.697   0.385   3.334  0.7513 -1.1816 -0.0435
 8284TIP3    H246268   0.547   0.405   3.324  1.0658  1.0681 -0.9527
 8285TIP3   OH246269   5.074   0.803  16.738  0.0917 -0.8418 -0.1160
 8285TIP3    H146270   5.115   0.877  16.784 -0.5794 -0.7729  0.3926
 8285TIP3    H246271   4.987   0.836  16.713 -0.7760 -1.8948  1.3710
 8286TIP3   OH246272   4.307   3.583  12.342 -0.2490 -0.1164  0.5408
 8286TIP3    H146273   4.351   3.660  12.376  0.8946 -0.3055 -0.4399
 8286TIP3    H246274   4.273   3.610  12.257 -0.5852 -0.4517  0.5652
 8287TIP3   OH246275   5.030   3.767  11.191  0.4628  0.0405 -0.0257
 8287TIP3    H146276   5.001   3.795  11.104  0.3724  0.7327  0.2214
 8287TIP3    H246277   5.067   3.680  11.177  0.8808  0.3385 -0.8443
 8288TIP3   OH246278   0.211   3.681   3.515 -0.1932 -0.0924 -0.1840
 8288TIP3    H146279   0.268   3.710   3.444 -0.6838  2.0999  0.2487
 8288TIP3    H246280   0.172   3.599   3.483  1.9464 -0.8009 -1.1238
 8289TIP3   OH246281   3.326   0.794   0.390  0.3838  0.5119  0.0552
 8289TIP3    H146282   3.340   0.842   0.471  1.4864  0.9084 -0.3570
 8289TIP3    H246283   3.413   0.788   0.350 -0.3436  1.5748 -1.7926
 8290TIP3   OH246284   2.771   5.201   0.851  0.6227  0.0736 -0.5584
 8290TIP3    H146285   2.798   5.233   0.765  0.4597  0.4083 -0.4878
 8290TIP3    H246286   2.697   5.143   0.833 -0.9363  1.9315 -0.4833
 8291TIP3   OH246287   0.478   5.324   4.212  0.1836 -0.2232 -0.2636
 8291TIP3    H146288   0.539   5.371   4.268 -0.0715  0.3551 -0.4585
 8291TIP3    H246289   0.527   5.307   4.132  0.8781 -1.9344  0.4747
 8292TIP3   OH246290   3.593   3.971  12.975 -0.1816  0.0579 -0.1786
 8292TIP3    H146291   3.569   4.058  12.945 -0.3232  0.5944  1.4077
 8292TIP3    H246292   3.618   3.983  13.067  0.5434 -1.4425 -0.1538
 8293TIP3   OH246293   3.365   5.266  13.586 -0.3714  0.3565 -0.6882
 8293TIP3    H146294   3.278   5.244  13.554  0.1001 -0.2543 -1.6041
 8293TIP3    H246295   3.422   5.259  13.509  0.5822  0.1806  0.0057
 8294TIP3   OH246296   1.200   3.279  11.803  0.6546  0.2450  0.3051
 8294TIP3    H146297   1.159   3.245  11.724  0.0996 -0.6470  0.9478
 8294TIP3    H246298   1.290   3.246  11.800 -0.0309 -1.9049  1.2115
 8295TIP3   OH246299   0.817   2.769  13.281 -0.2962 -0.5904  0.7431
 8295TIP3    H146300   0.725   2.746  13.292 -0.4991 -0.2385 -0.1240
 8295TIP3    H246301   0.841   2.812  13.362 -1.1142 -0.0121  0.6867
 8296TIP3   OH246302   3.676   4.662  10.601 -0.5555  0.2060 -0.3669
 8296TIP3    H146303   3.723   4.599  10.547 -0.6173 -0.3334  0.1966
 8296TIP3    H246304   3.649   4.612  10.678 -1.8965  0.5538 -0.5977
 8297TIP3   OH246305   1.068   1.453  12.494  0.2180 -0.1325  0.3193
 8297TIP3    H146306   1.003   1.508  12.538 -1.3241 -1.1427 -0.6098
 8297TIP3    H246307   1.145   1.509  12.486 -0.4532  1.0406  1.6246
 8298TIP3   OH246308   3.381   3.753   1.853  0.3948  0.1969 -0.0048
 8298TIP3    H146309   3.366   3.777   1.944  0.0096  2.1847 -0.5249
 8298TIP3    H246310   3.446   3.817   1.822  1.7356 -1.4264 -0.7269
 8299TIP3   OH246311   6.616   3.885  16.007  0.5209  0.5535  0.1379
 8299TIP3    H146312   6.686   3.842  16.055 -0.7191 -1.9738 -0.1838
 8299TIP3    H246313   6.625   3.854  15.917  0.4933  2.2388 -0.4973
 8300TIP3   OH246314   5.465   0.242   1.973 -0.3214 -0.0306  0.5112
 8300TIP3    H146315   5.516   0.229   1.893 -1.4848  1.8232 -0.6047
 8300TIP3    H246316   5.516   0.305   2.024  0.2984 -1.0268  1.1640
 8301TIP3   OH246317   1.078   1.342   2.210  0.0607  0.7970 -0.0539
 8301TIP3    H146318   1.019   1.397   2.159 -1.1938 -0.3136  0.1318
 8301TIP3    H246319   1.029   1.260   2.224  2.1188 -0.6700 -0.9343
 8302TIP3   OH246320   0.944   5.260  13.517  0.6045  0.7280  0.1626
 8302TIP3    H146321   0.987   5.201  13.578 -1.1184 -0.6507  0.1341
 8302TIP3    H246322   0.930   5.340  13.566  1.5170  0.5541  0.7323
 8303TIP3   OH246323   3.162   4.719  12.446 -1.1223  0.0156  0.5140
 8303TIP3    H146324   3.193   4.802  12.412  0.7254 -0.4748  0.9162
 8303TIP3    H246325   3.083   4.741  12.495 -0.6942  1.5170  0.5556
 8304TIP3   OH246326   6.471   4.793   4.009 -0.0313 -0.0967  0.2767
 8304TIP3    H146327   6.521   4.859   3.960  0.2591 -0.2211  0.3983
 8304TIP3    H246328   6.495   4.710   3.968  1.2485 -0.3449  1.4586
 8305TIP3   OH246329   0.272   6.533  14.983  0.1345  0.4789 -0.3632
 8305TIP3    H146330   0.285   6.626  14.964 -1.3133  1.0059  1.0100
 8305TIP3    H246331   0.180   6.518  14.962  0.6552 -0.9824 -1.7614
 8306TIP3   OH246332   2.894   5.247  13.681 -0.1520 -0.0603  0.7585
 8306TIP3    H146333   2.902   5.206  13.767 -1.8246 -2.5897 -0.1665
 8306TIP3    H246334   2.801   5.238  13.659  0.3396 -0.0669 -1.5613
 8307TIP3   OH246335   2.636   4.328   5.770  0.1664 -0.0094 -0.3527
 8307TIP3    H146336   2.655   4.282   5.852 -0.6814  0.4844  0.1348
 8307TIP3    H246337   2.556   4.377   5.789 -0.0101  0.1408 -1.4690
 8308TIP3   OH246338   4.707   2.819  14.220 -0.3540 -0.2458 -0.4207
 8308TIP3    H146339   4.631   2.784  14.172 -2.4001  0.9036  1.7623
 8308TIP3    H246340   4.721   2.906  14.182 -0.3283 -0.3400 -0.6285
 8309TIP3   OH246341   1.044   6.728   0.286  0.6094 -0.1124 -0.5305
 8309TIP3    H146342   1.121   6.777   0.259  1.5786 -0.8810  0.6955
 8309TIP3    H246343   1.037   6.744   0.380 -0.5117 -0.3615 -0.5550
 8310TIP3   OH246344   3.359   5.568   0.694  0.3626 -0.6790  0.8441
 8310TIP3    H146345   3.351   5.499   0.628  1.0414  0.5169 -0.5496
 8310TIP3    H246346   3.330   5.527   0.776 -1.7333 -1.8595 -0.4110
 8311TIP3   OH246347   2.902   1.689  17.075 -0.4118 -0.3913 -0.7942
 8311TIP3    H146348   2.948   1.647  17.002  0.0357 -0.5627 -0.4149
 8311TIP3    H246349   2.833   1.741  17.032 -0.5882 -1.0242 -1.2996
 8312TIP3   OH246350   0.839   4.800   1.392  0.2705 -0.2107  0.6332
 8312TIP3    H146351   0.932   4.809   1.373 -0.1084  1.1030 -0.8141
 8312TIP3    H246352   0.818   4.709   1.370  0.8118  0.0326 -0.9775
 8313TIP3   OH246353   0.052   2.433   4.431  0.5873  0.1566  0.4767
 8313TIP3    H146354   0.031   2.451   4.523 -3.7976  1.2574 -0.5024
 8313TIP3    H246355   0.010   2.349   4.413 -0.6515  1.0321 -0.9870
 8314TIP3   OH246356   2.472   6.311  12.977 -0.1184 -0.0807  0.2703
 8314TIP3    H146357   2.433   6.388  12.936 -0.3396 -1.7527 -3.0199
 8314TIP3    H246358   2.402   6.246  12.977  0.4918 -0.7685  1.5333
 8315TIP3   OH246359   4.398   2.075   5.009  0.4111  0.1905 -0.5512
 8315TIP3    H146360   4.325   2.028   4.970 -1.7675  1.1183  2.0972
 8315TIP3    H246361   4.424   2.139   4.943 -0.3917 -0.8610 -1.9570
 8316TIP3   OH246362   5.691   4.412  16.422  0.1409 -0.0192 -0.5293
 8316TIP3    H146363   5.614   4.356  16.407 -0.6587  0.6274  0.9905
 8316TIP3    H246364   5.702   4.413  16.517  1.8244  0.2124 -0.7030
 8317TIP3   OH246365   4.977   3.758   4.107 -0.1753  0.1223 -0.0683
 8317TIP3    H146366   4.911   3.736   4.172  1.0719 -0.3235  1.0722
 8317TIP3    H246367   5.025   3.677   4.092  0.8324  0.7011 -0.0435
 8318TIP3   OH246368   5.533   4.684  12.663 -0.5597 -0.2409 -0.7693
 8318TIP3    H146369   5.507   4.606  12.615 -0.9354  0.1758 -1.2567
 8318TIP3    H246370   5.453   4.713  12.708  0.1133 -1.4558  1.3372
 8319TIP3   OH246371   0.464   4.453   3.483 -0.3195  0.5218  0.5037
 8319TIP3    H146372   0.460   4.379   3.544 -1.0596  0.7197  0.7145
 8319TIP3    H246373   0.557   4.464   3.464 -0.2660 -1.1582 -0.3950
 8320TIP3   OH246374   5.237   3.161  14.184  0.4747  0.1825  0.6492
 8320TIP3    H146375   5.290   3.140  14.261  0.4068  0.3423  0.7399
 8320TIP3    H246376   5.182   3.084  14.171 -0.8241  0.8632  1.8558
 8321TIP3   OH246377   0.597   0.008  14.191  0.1827 -0.1612 -0.0673
 8321TIP3    H146378   0.552  -0.008  14.274  0.1716  2.0781  0.4335
 8321TIP3    H246379   0.527   0.009  14.125 -0.0715 -0.0229  0.2026
 8322TIP3   OH246380   1.481   2.469   3.602  0.6304  0.1724  0.4601
 8322TIP3    H146381   1.574   2.475   3.580  0.5067  0.8843  0.1182
 8322TIP3    H246382   1.437   2.522   3.536  0.0775  0.7809  1.3085
 8323TIP3   OH246383   0.970   3.282  12.517  0.0833  0.2337  0.3162
 8323TIP3    H146384   0.996   3.309  12.429  2.3495 -0.4767  0.7069
 8323TIP3    H246385   1.014   3.198  12.530 -0.7826 -0.0148  1.8791
 8324TIP3   OH246386   0.273   6.464   3.989 -0.2218  0.1714 -0.0240
 8324TIP3    H146387   0.278   6.463   4.084  0.9694  1.7266 -0.0376
 8324TIP3    H246388   0.196   6.519   3.970 -1.4214 -1.4299  0.0138
 8325TIP3   OH246389   4.260   2.170   0.624  0.2715  0.2184  0.2909
 8325TIP3    H146390   4.318   2.099   0.598  0.4693  0.3603  0.3386
 8325TIP3    H246391   4.193   2.129   0.679 -0.3364 -0.1404 -0.6966
 8326TIP3   OH246392   4.914   3.821  17.111 -0.0403  0.3807  0.4095
 8326TIP3    H146393   4.968   3.776  17.046 -0.8419 -1.0096  0.6619
 8326TIP3    H246394   4.824   3.812  17.078 -0.5222 -0.8063  1.9225
 8327TIP3   OH246395   3.853   6.593   5.280  0.2520 -0.3869  0.0883
 8327TIP3    H146396   3.766   6.614   5.246  0.6181  2.9313  0.8943
 8327TIP3    H246397   3.853   6.626   5.369  2.4413  0.0876 -0.0278
 8328TIP3   OH246398   0.571   3.973  13.224 -0.3457 -0.0526 -0.4679
 8328TIP3    H146399   0.613   4.057  13.243 -1.1172  0.0499  0.8853
 8328TIP3    H246400   0.627   3.933  13.157  0.6633  1.0446 -0.3142
 8329TIP3   OH246401   5.813   4.942   0.612  0.6460 -0.0298  0.3264
 8329TIP3    H146402   5.883   4.933   0.547  1.4975 -0.8096  1.3160
 8329TIP3    H246403   5.735   4.961   0.560  1.5558  0.7414 -0.8179
 8330TIP3   OH246404   2.432   1.617   3.109  0.3352 -0.2630 -0.3301
 8330TIP3    H146405   2.401   1.627   3.200  0.4886  2.1339 -0.4621
 8330TIP3    H246406   2.450   1.524   3.100 -0.3107 -0.6798  1.8980
 8331TIP3   OH246407   6.674   3.367  13.701 -0.1047  0.0885 -0.1943
 8331TIP3    H146408   6.730   3.344  13.775 -0.8180 -0.4923  0.1726
 8331TIP3    H246409   6.692   3.460  13.686  2.8545 -0.6044 -1.7484
 8332TIP3   OH246410   0.729   6.079  14.924  0.4363  0.4407  0.7083
 8332TIP3    H146411   0.638   6.093  14.950  0.2923  0.9783 -0.0478
 8332TIP3    H246412   0.749   5.990  14.954 -1.1471 -0.6862 -1.3052
 8333TIP3   OH246413   1.892   6.162   3.540  0.4704 -0.7649 -0.0423
 8333TIP3    H146414   1.962   6.103   3.568  1.4788 -0.2776 -1.4298
 8333TIP3    H246415   1.847   6.114   3.470 -0.2957 -0.8718  0.5055
 8334TIP3   OH246416   5.531   3.188  13.185 -0.3680  0.4140 -0.0395
 8334TIP3    H146417   5.574   3.124  13.243  0.9221  1.0753 -0.2369
 8334TIP3    H246418   5.547   3.272  13.227 -2.1592  0.6409  0.2781
 8335TIP3   OH246419   1.348   2.940  16.411 -0.0900  0.7141 -0.8182
 8335TIP3    H146420   1.422   2.880  16.423  0.3048  1.0489 -1.5447
 8335TIP3    H246421   1.381   3.009  16.354 -0.5415  1.6333 -0.0044
 8336TIP3   OH246422   2.629   4.208   6.040 -0.2888  0.5904  0.6557
 8336TIP3    H146423   2.664   4.270   6.103  0.2954 -1.2801  2.2929
 8336TIP3    H246424   2.534   4.214   6.049 -0.2121  0.4640  1.6409
 8337TIP3   OH246425   2.350   6.254   1.282  0.0477 -0.3172 -0.0166
 8337TIP3    H146426   2.373   6.205   1.203 -1.2926 -0.3880 -0.3834
 8337TIP3    H246427   2.428   6.247   1.338  0.9599 -0.3975 -1.2521
 8338TIP3   OH246428   3.634   0.354   3.853 -0.1589  0.2437  0.1110
 8338TIP3    H146429   3.655   0.264   3.826  1.5500  0.2787  1.1128
 8338TIP3    H246430   3.719   0.399   3.852 -0.7319  1.4126  1.1341
 8339TIP3   OH246431   1.185   1.041   1.384 -0.2391  0.2941  0.6733
 8339TIP3    H146432   1.167   1.130   1.415 -0.5550  0.7945 -0.8948
 8339TIP3    H246433   1.110   0.990   1.415  1.1074 -0.0586  3.7871
 8340TIP3   OH246434   6.500   0.555   4.522 -0.1134  0.3993 -0.4032
 8340TIP3    H146435   6.488   0.645   4.489  2.0749  0.7740 -0.3153
 8340TIP3    H246436   6.552   0.512   4.455  1.4195  0.1259  0.9138
 8341TIP3   OH246437   2.733   3.384   1.615  0.2076  0.3923 -0.4121
 8341TIP3    H146438   2.756   3.476   1.627 -1.1571  0.7455 -0.3484
 8341TIP3    H246439   2.645   3.386   1.578  0.2178 -0.8868 -0.5385
 8342TIP3   OH246440   5.045   2.921  16.796 -0.1326 -0.3502  0.3029
 8342TIP3    H146441   5.044   3.004  16.845 -1.8993 -0.9784  1.4206
 8342TIP3    H246442   4.957   2.886  16.806  0.3343 -1.9786 -0.8704
 8343TIP3   OH246443   1.948   0.133   6.304 -0.1857  0.0098  0.1087
 8343TIP3    H146444   1.970   0.221   6.275 -2.3996  0.1966 -1.2250
 8343TIP3    H246445   1.913   0.144   6.393  0.8677  0.2627  0.4989
 8344TIP3   OH246446   1.124   6.287  12.438  0.0386  0.7710  0.0720
 8344TIP3    H146447   1.066   6.257  12.368  2.5297 -0.6599 -1.5287
 8344TIP3    H246448   1.086   6.251  12.518  0.1493 -2.6098 -1.2451
 8345TIP3   OH246449   4.071   0.966  13.167  0.0435  0.2561  0.0346
 8345TIP3    H146450   4.142   0.907  13.144  1.2551  1.7124 -0.0756
 8345TIP3    H246451   4.067   0.963  13.263 -1.6687 -1.9493 -0.0119
 8346TIP3   OH246452   3.532   6.416  11.338 -0.2634  0.8389  0.5418
 8346TIP3    H146453   3.624   6.396  11.354  0.3193  1.5523 -1.5749
 8346TIP3    H246454   3.532   6.463  11.254 -2.7158 -0.6750 -0.4213
 8347TIP3   OH246455   0.709   5.098  15.195 -0.1273  0.3232  0.2002
 8347TIP3    H146456   0.789   5.057  15.162  1.3434  2.0275  1.4653
 8347TIP3    H246457   0.668   5.136  15.117  0.3498 -0.4816 -0.4583
 8348TIP3   OH246458   0.103   0.053   0.090  0.3078  0.1479 -0.2359
 8348TIP3    H146459   0.194   0.035   0.115  0.2525 -0.1121 -0.2217
 8348TIP3    H246460   0.057  -0.030   0.103 -0.4088  0.8201  1.8309
 8349TIP3   OH246461   6.070   5.423   5.548 -0.0411 -0.4651  0.2659
 8349TIP3    H146462   6.009   5.354   5.520  0.3656 -1.0734  0.8556
 8349TIP3    H246463   6.066   5.421   5.644  0.8594 -0.4681  0.3069
 8350TIP3   OH246464   6.307   0.924   1.539 -0.3703  0.2197  0.5077
 8350TIP3    H146465   6.366   0.874   1.595  0.5934  0.1630 -0.5131
 8350TIP3    H246466   6.254   0.857   1.495  1.4734 -0.0588 -1.4773
 8351TIP3   OH246467   5.666   3.034  13.362  0.0144  0.3120 -0.2502
 8351TIP3    H146468   5.730   3.089  13.407  1.1865 -0.8950 -0.3544
 8351TIP3    H246469   5.646   2.965  13.425 -0.3324  0.0555 -0.6382
 8352TIP3   OH246470   0.721   4.183   1.272  0.1134  0.0631  0.2055
 8352TIP3    H146471   0.673   4.234   1.206  1.9243  0.3347 -0.9690
 8352TIP3    H246472   0.812   4.188   1.244  0.3363 -4.9612 -0.8486
 8353TIP3   OH246473   5.592   4.908  12.100  0.0167  0.7203  0.0098
 8353TIP3    H146474   5.608   5.002  12.090 -0.8931  0.7385 -1.8801
 8353TIP3    H246475   5.497   4.899  12.094  0.1300 -0.3726 -0.4679
 8354TIP3   OH246476   1.996   5.179  14.221  0.6850  0.3361  0.4768
 8354TIP3    H146477   2.048   5.259  14.227  0.1212  0.8943 -1.3693
 8354TIP3    H246478   1.906   5.210  14.205  0.5568 -0.6310 -0.8907
 8355TIP3   OH246479   5.951   4.051  11.970  0.0526  0.0759  0.1459
 8355TIP3    H146480   5.984   3.991  11.904  0.7841  0.8081 -0.1583
 8355TIP3    H246481   5.855   4.045  11.962  0.0941 -1.4476  0.4997
 8356TIP3   OH246482   4.473   4.833  13.025  0.2060 -0.0227 -0.0712
 8356TIP3    H146483   4.531   4.759  13.010  1.1904  0.7701 -0.2652
 8356TIP3    H246484   4.523   4.910  12.997 -0.6987  0.7484  0.3465
 8357TIP3   OH246485   2.243   5.913   0.246  0.1797 -0.6584 -0.1446
 8357TIP3    H146486   2.324   5.894   0.198  0.5345 -1.5091  0.7826
 8357TIP3    H246487   2.210   5.992   0.204  1.4880 -0.2942 -0.5551
 8358TIP3   OH246488   1.629   5.710   0.871 -0.0154 -0.3017 -0.8567
 8358TIP3    H146489   1.677   5.756   0.803 -1.0871 -0.0149 -1.4415
 8358TIP3    H246490   1.560   5.663   0.825 -0.8023 -0.0590  0.0346
 8359TIP3   OH246491   4.669   4.187   4.577 -0.0990 -0.4125 -0.1288
 8359TIP3    H146492   4.738   4.130   4.612  1.7794  2.2457  0.8086
 8359TIP3    H246493   4.588   4.137   4.589  1.3360 -2.5934  1.1918
 8360TIP3   OH246494   0.781   3.617  13.891 -0.0359 -0.8461 -0.8532
 8360TIP3    H146495   0.768   3.680  13.962 -0.2571  0.2990 -1.8831
 8360TIP3    H246496   0.865   3.642  13.852 -0.1396 -1.1674 -1.2899
 8361TIP3   OH246497   4.655   2.462   4.874 -0.0685 -0.1660  1.0245
 8361TIP3    H146498   4.568   2.423   4.884 -0.5840  0.3140 -1.1224
 8361TIP3    H246499   4.716   2.390   4.891 -0.9557 -1.1388  0.2163
 8362TIP3   OH246500   2.539   5.299  11.179 -0.2085  0.6202 -0.3028
 8362TIP3    H146501   2.580   5.383  11.202  1.2368  1.2276 -4.2077
 8362TIP3    H246502   2.446   5.320  11.170 -0.0583  1.4956  0.0413
 8363TIP3   OH246503   3.536   2.019   4.782 -0.6363 -0.0597 -0.0179
 8363TIP3    H146504   3.512   2.108   4.809 -1.3977 -0.4769  0.7112
 8363TIP3    H246505   3.625   2.007   4.815 -1.0381 -0.0526  1.1027
 8364TIP3   OH246506   4.879   4.092   1.462 -0.0732 -0.3400 -0.7497
 8364TIP3    H146507   4.933   4.030   1.512 -0.6797 -0.0182  0.3162
 8364TIP3    H246508   4.931   4.173   1.461  0.4876 -0.6831 -1.7120
 8365TIP3   OH246509   6.474   3.296   2.676  0.1919  0.2908 -0.4851
 8365TIP3    H146510   6.406   3.358   2.650 -0.5057 -0.0620  0.4409
 8365TIP3    H246511   6.436   3.210   2.659  0.6377  0.0976 -0.5207
 8366TIP3   OH246512   6.309   6.327   5.863  0.0293 -0.1824 -0.0902
 8366TIP3    H146513   6.215   6.341   5.870  0.1466  0.7753 -0.2338
 8366TIP3    H246514   6.345   6.415   5.846  0.9739 -0.4761  0.3090
 8367TIP3   OH246515   2.563   1.870   5.407 -0.1466  0.0443  0.0263
 8367TIP3    H146516   2.472   1.892   5.389 -0.1732  0.9952  1.2079
 8367TIP3    H246517   2.605   1.954   5.427  1.3540 -0.1704 -1.8715
 8368TIP3   OH246518   3.414   3.320   5.379 -0.0965  0.7147 -0.1543
 8368TIP3    H146519   3.382   3.245   5.429 -0.5972  2.3710  2.2032
 8368TIP3    H246520   3.378   3.308   5.291 -3.6908  0.2239  1.2182
 8369TIP3   OH246521   3.182   3.900   2.908 -0.4072  0.3605  0.6283
 8369TIP3    H146522   3.183   3.942   2.822 -1.6303  0.5932  0.7054
 8369TIP3    H246523   3.261   3.932   2.951 -0.8061  1.8756  0.3250
 8370TIP3   OH246524   3.028   5.853  15.859  0.4118 -0.2829 -0.5334
 8370TIP3    H146525   2.986   5.811  15.935  1.8114 -0.2454  0.2959
 8370TIP3    H246526   3.002   5.799  15.785  0.0497 -1.0805  0.1536
 8371TIP3   OH246527   5.691   1.458   4.571 -0.1498 -0.8724  0.3088
 8371TIP3    H146528   5.736   1.375   4.590  0.5966 -0.0924  2.0889
 8371TIP3    H246529   5.640   1.476   4.649 -0.2014  0.4135 -0.0073
 8372TIP3   OH246530   2.358   1.084   2.379 -0.2294 -0.4562  0.8337
 8372TIP3    H146531   2.287   1.095   2.316  0.4606 -0.5971  0.0092
 8372TIP3    H246532   2.314   1.081   2.464 -1.3054 -1.5530  0.2801
 8373TIP3   OH246533   2.258   4.231  16.919  0.6736 -0.0009  0.5668
 8373TIP3    H146534   2.283   4.304  16.975 -1.0128 -0.0555  1.4534
 8373TIP3    H246535   2.174   4.256  16.882  1.0547 -0.6173 -0.7833
 8374TIP3   OH246536   1.005   0.228   4.009  0.2993 -0.1907  0.0528
 8374TIP3    H146537   0.995   0.197   4.099  1.1243 -2.0129 -0.4255
 8374TIP3    H246538   1.026   0.149   3.959  2.1015  1.1009 -1.3683
 8375TIP3   OH246539   6.734   3.878   0.360 -0.6013  0.0273 -0.2136
 8375TIP3    H146540   6.638   3.882   0.354 -0.6763  0.4638  1.1034
 8375TIP3    H246541   6.751   3.798   0.410 -0.3905  1.1729  1.5970
 8376TIP3   OH246542   0.506   1.388   4.608  0.3954 -0.5982 -0.2232
 8376TIP3    H146543   0.577   1.348   4.659  0.1609 -0.7985 -0.0508
 8376TIP3    H246544   0.440   1.319   4.600  0.4660 -0.5925 -0.8766
 8377TIP3   OH246545   0.138   0.865   1.018 -0.1085 -0.1250  0.1582
 8377TIP3    H146546   0.043   0.874   1.014 -0.1577 -0.9667 -0.6810
 8377TIP3    H246547   0.156   0.777   0.985  1.1407  0.9119 -2.1367
 8378TIP3   OH246548   0.455   2.827  16.114 -0.2122  0.1568 -0.0551
 8378TIP3    H146549   0.379   2.845  16.058 -1.3250 -0.4133  1.1970
 8378TIP3    H246550   0.417   2.791  16.194  1.4089 -0.2052  0.5871
 8379TIP3   OH246551   0.156   0.540   2.049 -0.2969  0.0466  0.0117
 8379TIP3    H146552   0.231   0.591   2.019 -0.4879  0.5770  0.4313
 8379TIP3    H246553   0.194   0.470   2.102 -0.0245 -0.3415 -0.6803
 8380TIP3   OH246554   6.190   4.754  16.049  0.3625 -0.2287 -0.2950
 8380TIP3    H146555   6.184   4.682  16.112 -1.1747  0.1500  0.0439
 8380TIP3    H246556   6.099   4.781  16.035  0.8575  1.2052 -0.9376
 8381TIP3   OH246557   6.384   3.012  11.664 -0.0942 -0.1628 -0.2879
 8381TIP3    H146558   6.307   3.066  11.679  0.3484  0.7427 -1.1653
 8381TIP3    H246559   6.375   2.940  11.726 -0.3756  1.2352  1.3777
 8382TIP3   OH246560   3.455   4.487   4.539 -1.0474 -0.0657  0.2726
 8382TIP3    H146561   3.536   4.438   4.531 -0.4359  0.4203  2.6324
 8382TIP3    H246562   3.438   4.521   4.451  1.4716  0.1055 -0.2247
 8383TIP3   OH246563   3.293   6.219   4.300  0.1214 -0.1501  0.4633
 8383TIP3    H146564   3.376   6.196   4.344  0.8241  0.4404 -0.5146
 8383TIP3    H246565   3.276   6.309   4.328  1.6054  0.9570 -1.9010
 8384TIP3   OH246566   0.924   6.255  17.159  0.2214  0.5851  0.5479
 8384TIP3    H146567   0.880   6.220  17.236  0.0077 -0.8187 -0.1885
 8384TIP3    H246568   0.862   6.244  17.087  1.3707 -0.5769 -0.3269
 8385TIP3   OH246569   2.041   2.861   4.737  0.3442 -0.0824 -0.7681
 8385TIP3    H146570   2.005   2.778   4.767 -0.5269 -0.3240 -2.3592
 8385TIP3    H246571   1.965   2.909   4.703  1.3184 -0.1718 -3.2695
 8386TIP3   OH246572   0.360   0.946   6.724  0.0962 -0.0372 -0.2129
 8386TIP3    H146573   0.455   0.950   6.733  0.1643  2.9960 -1.2162
 8386TIP3    H246574   0.327   0.984   6.805 -0.3751 -1.9794  0.5661
 8387TIP3   OH246575   5.032   4.891   3.698  0.4339 -0.6614 -0.2773
 8387TIP3    H146576   5.099   4.958   3.711 -2.3958  2.3337  0.1910
 8387TIP3    H246577   5.022   4.850   3.784  0.3867  0.2274  0.1532
 8388TIP3   OH246578   5.331   0.828  12.115  0.0416  1.2033  0.2175
 8388TIP3    H146579   5.319   0.908  12.165 -0.1964 -0.0675  2.3308
 8388TIP3    H246580   5.248   0.781  12.124  0.4433  0.3673 -0.2888
 8389TIP3   OH246581   4.592   3.251  10.732  0.0571  0.6980  0.0594
 8389TIP3    H146582   4.669   3.201  10.708 -0.6272 -0.3807  0.0347
 8389TIP3    H246583   4.526   3.228  10.666 -1.1280 -0.5449  1.5848
 8390TIP3   OH246584   3.895   1.876  13.699 -0.3858  0.2424  0.3711
 8390TIP3    H146585   3.828   1.893  13.633 -2.0574  0.4270  2.0203
 8390TIP3    H246586   3.953   1.811  13.659 -0.2057  1.7683 -1.9576
 8391TIP3   OH246587   1.397   1.841   1.729  0.2814  0.2276  0.3982
 8391TIP3    H146588   1.441   1.875   1.807 -0.7837  3.3436 -0.1962
 8391TIP3    H246589   1.457   1.860   1.657 -0.5356  1.4694 -0.0033
 8392TIP3   OH246590   6.406   1.954   5.461  0.1406 -0.0365 -0.4242
 8392TIP3    H146591   6.378   1.929   5.549 -2.6573  0.5285 -1.0550
 8392TIP3    H246592   6.404   2.050   5.462 -1.2923 -0.0288 -1.4423
 8393TIP3   OH246593   1.721   3.842  17.139 -0.5481  0.1382  0.5430
 8393TIP3    H146594   1.743   3.813  17.051 -1.9666 -1.1949  0.5855
 8393TIP3    H246595   1.635   3.883  17.131 -0.6895  0.0190  1.3046
 8394TIP3   OH246596   1.239   5.836   0.929 -0.1553  0.4093 -0.0675
 8394TIP3    H146597   1.157   5.852   0.881 -1.2877 -0.1507  1.5737
 8394TIP3    H246598   1.294   5.788   0.868 -1.5176 -0.2308 -0.8304
 8395TIP3   OH246599   1.837   1.134   5.799 -0.3826  0.3165 -0.0691
 8395TIP3    H146600   1.850   1.098   5.887 -0.5834 -2.5899 -1.1147
 8395TIP3    H246601   1.923   1.163   5.772 -0.1984  0.6561  0.8447
 8396TIP3   OH246602   1.217   6.723   6.016  0.0546  0.5679  0.4071
 8396TIP3    H146603   1.224   6.628   6.014 -0.0056  0.5692  0.1002
 8396TIP3    H246604   1.156   6.741   6.087  0.0885  0.3799  0.4849
 8397TIP3   OH246605   4.950   5.278   0.692  0.0151  0.1637 -0.5459
 8397TIP3    H146606   4.899   5.287   0.611 -0.4682  1.1602 -0.1410
 8397TIP3    H246607   4.886   5.287   0.762  0.8191  2.1597 -0.0154
 8398TIP3   OH246608   2.545   2.315   0.300 -0.4174  0.5053 -0.0877
 8398TIP3    H146609   2.630   2.323   0.346 -0.3809  0.2971 -0.1195
 8398TIP3    H246610   2.482   2.298   0.370 -0.0276 -2.2584 -0.2989
 8399TIP3   OH246611   1.208   5.167  13.623 -0.5742  0.2316  0.1718
 8399TIP3    H146612   1.199   5.236  13.557 -1.5350  0.7792  0.8467
 8399TIP3    H246613   1.301   5.166  13.644 -0.4676  0.9905 -0.2052
 8400TIP3   OH246614   1.164   1.219  12.345  0.3006  0.2730  0.4697
 8400TIP3    H146615   1.150   1.312  12.359  0.6227  0.4387 -0.2671
 8400TIP3    H246616   1.236   1.196  12.404  0.8483  0.6969 -0.0294
 8401TIP3   OH246617   3.146   6.693  16.743 -0.5279 -0.5801 -0.3428
 8401TIP3    H146618   3.131   6.756  16.812  1.6529  1.8143 -1.8733
 8401TIP3    H246619   3.119   6.737  16.663  0.0130 -2.0011 -1.3649
 8402TIP3   OH246620   1.481   1.504   5.555 -0.3454 -0.4349 -0.1416
 8402TIP3    H146621   1.489   1.598   5.539 -1.1078  0.1129  2.1953
 8402TIP3    H246622   1.558   1.482   5.609 -0.9758 -0.7790  0.6418
 8403TIP3   OH246623   5.207   5.519  14.289  0.0472  0.0034 -0.0370
 8403TIP3    H146624   5.297   5.501  14.317 -0.2262  0.5383  1.2663
 8403TIP3    H246625   5.183   5.443  14.235  0.6812 -1.0048  1.0424
 8404TIP3   OH246626   6.465   0.452  14.096  0.1685  1.0051  0.0811
 8404TIP3    H146627   6.556   0.445  14.126  0.1999 -2.5468 -0.4592
 8404TIP3    H246628   6.472   0.500  14.013  1.3556  1.9342  0.6820
 8405TIP3   OH246629   3.729   5.257  13.525 -0.0344  0.1268  0.3021
 8405TIP3    H146630   3.809   5.282  13.479  1.2458  0.4286  2.5510
 8405TIP3    H246631   3.736   5.162  13.535  0.8586  0.3248  1.8373
 8406TIP3   OH246632   6.578   6.772  13.777  0.4280 -0.0102  0.3395
 8406TIP3    H146633   6.586   6.844  13.840  0.2299  0.3190 -0.0023
 8406TIP3    H246634   6.518   6.710  13.817  1.0597 -0.2777  0.9019
 8407TIP3   OH246635   4.906   5.228  12.998 -1.0020  0.5001  0.1437
 8407TIP3    H146636   4.968   5.277  12.944 -0.0339  0.4906  1.1762
 8407TIP3    H246637   4.871   5.293  13.059 -1.5966  0.3944 -0.0862
 8408TIP3   OH246638   6.780   4.740  12.414 -0.5043 -0.3733 -0.1763
 8408TIP3    H146639   6.754   4.763  12.503 -2.2052  1.6211 -1.0891
 8408TIP3    H246640   6.787   4.824  12.369  1.4448 -1.2609 -1.6812
 8409TIP3   OH246641   3.897   1.152   0.184 -0.0273 -0.6173 -0.2436
 8409TIP3    H146642   3.892   1.079   0.123  0.2326 -0.8032 -0.0416
 8409TIP3    H246643   3.981   1.194   0.165 -1.2164  1.1615 -2.0964
 8410TIP3   OH246644   0.317   3.807  14.720 -0.6352 -0.3533 -0.4537
 8410TIP3    H146645   0.384   3.769  14.663 -0.0891 -0.2540  0.1059
 8410TIP3    H246646   0.365   3.834  14.798 -1.2257  0.3274 -0.3177
 8411TIP3   OH246647   1.364   1.401   4.038  0.4001 -0.1514  0.3495
 8411TIP3    H146648   1.386   1.461   4.110 -1.3591 -0.3118  1.0968
 8411TIP3    H246649   1.316   1.330   4.081 -0.0304 -0.6381 -0.8923
 8412TIP3   OH246650   2.986   6.147   4.519  0.3578 -0.3599 -0.1734
 8412TIP3    H146651   2.911   6.124   4.573 -1.2163  1.1536 -1.5925
 8412TIP3    H246652   2.954   6.140   4.429  2.0732 -0.1253 -0.8448
 8413TIP3   OH246653   0.898   6.129   0.463  0.7437 -0.1988  0.0501
 8413TIP3    H146654   0.833   6.196   0.444  1.9902  0.7187 -1.2150
 8413TIP3    H246655   0.928   6.149   0.552 -1.0409 -0.9767  0.8708
 8414TIP3   OH246656   1.537   5.614  11.206  0.1404 -0.3280 -0.6619
 8414TIP3    H146657   1.548   5.526  11.171  2.3693 -0.4871  0.2699
 8414TIP3    H246658   1.548   5.671  11.130 -2.4258 -0.7868 -1.4909
 8415TIP3   OH246659   6.613   2.015  12.452  0.8326  0.2618 -1.0633
 8415TIP3    H146660   6.634   2.034  12.544 -1.5226 -1.6046 -0.0167
 8415TIP3    H246661   6.535   2.067  12.435  0.6998 -0.1348 -1.6761
 8416TIP3   OH246662   2.152   2.174   4.929 -0.3050  0.1665 -0.1306
 8416TIP3    H146663   2.176   2.239   4.863 -0.6911  1.1015  0.6217
 8416TIP3    H246664   2.099   2.110   4.881 -0.1521  0.5505 -0.8305
 8417TIP3   OH246665   2.377   0.748   1.880  0.5596  0.6091 -0.1129
 8417TIP3    H146666   2.336   0.661   1.875 -0.1427  0.9590 -0.6308
 8417TIP3    H246667   2.460   0.732   1.925  0.5633 -0.3792 -0.4274
 8418TIP3   OH246668   6.217   1.957  16.931 -0.0585 -0.4094  0.3635
 8418TIP3    H146669   6.269   2.034  16.908  1.0268 -0.9842  0.8095
 8418TIP3    H246670   6.268   1.883  16.899 -1.3301 -0.9430 -0.5137
 8419TIP3   OH246671   2.773   5.486   4.447 -0.1837  0.3392  0.2524
 8419TIP3    H146672   2.763   5.436   4.366 -0.3750  1.3951 -0.3931
 8419TIP3    H246673   2.807   5.423   4.510  0.0330 -0.4858 -0.6672
 8420TIP3   OH246674   3.878   0.439  12.015 -0.1615  0.0511 -0.2755
 8420TIP3    H146675   3.891   0.448  12.109  3.7208  0.8762 -0.7206
 8420TIP3    H246676   3.923   0.358  11.991  0.9561  1.0262 -1.6710
 8421TIP3   OH246677   3.173   4.965  15.081 -0.6005  0.0309  0.3967
 8421TIP3    H146678   3.108   5.001  15.020  0.7957  0.9444 -0.6129
 8421TIP3    H246679   3.122   4.911  15.141 -2.5676  2.3153  0.9352
 8422TIP3   OH246680   5.060   1.451  10.818 -0.0848 -0.3623 -0.3150
 8422TIP3    H146681   5.084   1.375  10.766  1.0877  0.2612 -0.7173
 8422TIP3    H246682   5.063   1.525  10.756 -1.3266  0.0196  0.0330
 8423TIP3   OH246683   5.088   1.372   3.173 -0.4271  0.4167  0.6630
 8423TIP3    H146684   5.013   1.431   3.161 -0.4571  0.2955  0.2240
 8423TIP3    H246685   5.048   1.285   3.178 -0.3732  0.4183  1.1847
 8424TIP3   OH246686   3.292   1.542   0.590  0.1142 -0.1708 -0.3010
 8424TIP3    H146687   3.222   1.607   0.575 -0.8170 -0.9808  0.4081
 8424TIP3    H246688   3.358   1.590   0.641 -1.8584 -0.4710  2.7695
 8425TIP3   OH246689   0.197   0.881   2.618 -0.4484  0.6346  0.5790
 8425TIP3    H146690   0.265   0.866   2.552 -0.0006  2.1636  0.6397
 8425TIP3    H246691   0.144   0.802   2.617  1.6732 -0.8589  0.9455
 8426TIP3   OH246692   5.610   6.693   0.838  0.2738 -0.5107  0.1891
 8426TIP3    H146693   5.603   6.671   0.930 -2.6907 -0.7437  0.0175
 8426TIP3    H246694   5.700   6.669   0.814  0.2025 -3.4242  2.2539
 8427TIP3   OH246695   3.707   3.219   2.847 -0.5184  0.6502  0.1169
 8427TIP3    H146696   3.656   3.243   2.770 -0.0424  1.2184 -0.0239
 8427TIP3    H246697   3.644   3.174   2.904 -0.5714 -0.9754 -1.1531
 8428TIP3   OH246698   6.218   6.389  13.077 -0.0091 -0.0929 -0.2468
 8428TIP3    H146699   6.189   6.424  13.161  0.0744 -0.7865  0.0759
 8428TIP3    H246700   6.138   6.358  13.035  0.0889 -0.7322  0.0411
 8429TIP3   OH246701   2.778   4.380   3.425  0.2202 -0.3321 -0.5964
 8429TIP3    H146702   2.741   4.302   3.467  0.6636  0.9016  2.3152
 8429TIP3    H246703   2.713   4.449   3.442  2.0791  1.0510  1.4579
 8430TIP3   OH246704   3.003   1.295  16.180  0.0572 -0.0439 -0.0585
 8430TIP3    H146705   2.948   1.371  16.200 -0.8000 -0.8929  0.9612
 8430TIP3    H246706   2.948   1.240  16.124  0.6426  0.0356 -0.7191
 8431TIP3   OH246707   6.550   5.851  13.766 -0.0380 -0.2526 -0.0242
 8431TIP3    H146708   6.512   5.938  13.773  0.9775  0.1966  0.1905
 8431TIP3    H246709   6.481   5.797  13.729 -0.3836  0.8518 -1.0571
 8432TIP3   OH246710   4.915   4.491  16.886 -0.4778  0.1089 -0.3452
 8432TIP3    H146711   4.931   4.425  16.819  0.2921  0.1182 -0.1776
 8432TIP3    H246712   4.955   4.456  16.965 -1.3416  0.1170  0.1174
 8433TIP3   OH246713   1.452   4.235  11.267  0.4514 -0.1358 -0.1876
 8433TIP3    H146714   1.396   4.273  11.200  1.5206  0.1325 -0.9576
 8433TIP3    H246715   1.443   4.293  11.342 -2.0032 -1.3100  0.5404
 8434TIP3   OH246716   5.577   3.054   6.027 -0.0542  0.6631 -0.7095
 8434TIP3    H146717   5.577   3.098   6.112  0.4940  2.1039 -1.4224
 8434TIP3    H246718   5.497   3.085   5.985 -1.6409 -1.9521  0.1645
 8435TIP3   OH246719   2.823   6.668  16.511 -0.0327 -0.4087 -0.5921
 8435TIP3    H146720   2.858   6.742  16.560  1.2109 -1.2066 -0.2161
 8435TIP3    H246721   2.774   6.618  16.575  2.4166 -1.9915  0.2192
 8436TIP3   OH246722   6.720   4.630  15.899  0.4300  0.3639  0.1297
 8436TIP3    H146723   6.661   4.594  15.965  0.0779  1.3090  0.3408
 8436TIP3    H246724   6.763   4.553  15.861  0.2456 -0.2221  1.0849
 8437TIP3   OH246725   1.645   1.337   1.388 -0.3686 -0.0246  0.4096
 8437TIP3    H146726   1.725   1.295   1.418  0.6225 -0.0159 -2.0153
 8437TIP3    H246727   1.583   1.326   1.461  1.0583 -2.1580  1.3888
 8438TIP3   OH246728   4.174   4.392   5.290 -0.7482  0.3585 -0.0724
 8438TIP3    H146729   4.118   4.333   5.341 -0.5547  0.6009  0.4231
 8438TIP3    H246730   4.175   4.474   5.340 -0.9925  0.7814 -0.7372
 8439TIP3   OH246731   4.861   2.030  14.345 -0.0800  0.0221 -0.0608
 8439TIP3    H146732   4.849   1.941  14.377 -2.3067  0.4737  0.5359
 8439TIP3    H246733   4.789   2.079  14.384  1.2154  2.1541 -0.1929
 8440TIP3   OH246734   0.099   0.214  16.928 -0.4256  0.2766 -0.0022
 8440TIP3    H146735   0.187   0.236  16.898 -1.5677  1.0830 -3.2191
 8440TIP3    H246736   0.042   0.242  16.856 -3.4335  0.7614  2.3715
 8441TIP3   OH246737   4.081   0.945  11.543 -0.4110 -0.2169 -0.4823
 8441TIP3    H146738   4.086   0.880  11.613  1.0939 -0.4242 -0.7542
 8441TIP3    H246739   4.000   0.924  11.497  0.3874 -2.3977 -1.0180
 8442TIP3   OH246740   1.942   0.072  15.708 -0.3591  0.0037  0.1944
 8442TIP3    H146741   1.960  -0.015  15.672  0.1969  0.3764 -0.4707
 8442TIP3    H246742   1.880   0.057  15.778  0.0794 -0.9833  0.3876
 8443TIP3   OH246743   0.416   2.497   4.098 -0.1053  0.2720  0.0187
 8443TIP3    H146744   0.372   2.551   4.164  0.3582  0.6974 -0.0172
 8443TIP3    H246745   0.346   2.444   4.061 -0.8345  1.7914 -0.8884
 8444TIP3   OH246746   5.821   5.281  12.601 -0.0144 -0.4910  0.5849
 8444TIP3    H146747   5.801   5.368  12.566 -0.7378 -0.2411  1.5859
 8444TIP3    H246748   5.855   5.297  12.689  2.0062 -1.1051 -0.0444
 8445TIP3   OH246749   2.578   6.268   5.810 -0.6612 -0.3547  0.5851
 8445TIP3    H146750   2.546   6.332   5.747  1.5504  0.3244  0.0807
 8445TIP3    H246751   2.634   6.210   5.758  0.3192 -0.4433  1.7113
 8446TIP3   OH246752   0.949   2.587  16.601  0.2246  0.0751  0.3030
 8446TIP3    H146753   1.039   2.620  16.599 -0.5775  2.6555 -2.6282
 8446TIP3    H246754   0.944   2.527  16.527 -0.2501 -0.8145  1.0445
 8447TIP3   OH246755   0.893   4.470  15.597 -0.2731 -0.0337  0.2011
 8447TIP3    H146756   0.865   4.493  15.508  0.4347  0.7873  0.1849
 8447TIP3    H246757   0.969   4.526  15.614  0.0245 -0.6834  1.0660
 8448TIP3   OH246758   0.823   3.198  13.446 -0.4820  0.5030 -0.2251
 8448TIP3    H146759   0.826   3.205  13.542 -1.2580 -1.1441 -0.0502
 8448TIP3    H246760   0.867   3.278  13.415  2.3111 -0.2239  1.5195
 8449TIP3   OH246761   0.139   5.882  12.637 -0.5487  0.2057 -0.0652
 8449TIP3    H146762   0.162   5.849  12.550 -2.6707 -1.7436  0.0279
 8449TIP3    H246763   0.168   5.813  12.697 -1.0283  0.5507  0.5679
 8450TIP3   OH246764   4.628   1.828  15.734 -0.3285 -0.3191  0.2948
 8450TIP3    H146765   4.547   1.777  15.728 -1.5519  1.6400 -1.1030
 8450TIP3    H246766   4.688   1.785  15.673 -0.6546 -1.1873  0.5686
 8451TIP3   OH246767   6.686   3.565   3.092  1.1421 -0.4319  0.0318
 8451TIP3    H146768   6.627   3.499   3.056  1.7004 -1.8414  1.5890
 8451TIP3    H246769   6.771   3.522   3.099  1.7281  0.7131  0.3415
 8452TIP3   OH246770   3.020   1.869   3.110 -0.2642 -0.5882 -0.4837
 8452TIP3    H146771   3.009   1.919   3.191  2.2720  0.0562 -0.4349
 8452TIP3    H246772   2.969   1.917   3.045 -1.9351 -0.8388  0.5828
 8453TIP3   OH246773   1.822   4.246  13.695 -0.4064 -0.7559  0.3309
 8453TIP3    H146774   1.746   4.214  13.646 -0.4069  0.2719 -0.3722
 8453TIP3    H246775   1.815   4.342  13.690 -0.2904 -0.6025  2.1766
 8454TIP3   OH246776   1.069   2.112   4.111 -0.0713  0.0220 -0.1212
 8454TIP3    H146777   1.112   2.046   4.164  1.9743  1.5358  0.2348
 8454TIP3    H246778   1.049   2.183   4.173 -1.2218  0.2169 -0.6865
 8455TIP3   OH246779   4.156   2.456   0.654 -0.3441  0.2021  0.0859
 8455TIP3    H146780   4.074   2.504   0.667 -1.0988 -0.7790 -0.8668
 8455TIP3    H246781   4.167   2.404   0.734 -0.7760  0.1582  0.1164
 8456TIP3   OH246782   5.539   6.711   2.438  0.2446 -0.1403  0.1207
 8456TIP3    H146783   5.558   6.784   2.497  0.2514  0.0035 -0.0549
 8456TIP3    H246784   5.444   6.712   2.427  0.2680  0.0002 -0.0786
 8457TIP3   OH246785   0.098   4.350  15.755 -0.1862  0.4678  0.8087
 8457TIP3    H146786   0.052   4.268  15.775  1.0222 -0.7579 -1.0553
 8457TIP3    H246787   0.045   4.392  15.688  0.3312  0.0654  0.1342
 8458TIP3   OH246788   6.345   4.216  11.466  0.0640  0.1781 -0.0730
 8458TIP3    H146789   6.413   4.277  11.437 -0.5432  1.6960  1.4893
 8458TIP3    H246790   6.263   4.259  11.445 -0.3963 -0.3782  0.5275
 8459TIP3   OH246791   1.771   1.988   4.827  0.2383  0.3071  0.4297
 8459TIP3    H146792   1.751   1.957   4.739  0.8356  1.4558 -0.1235
 8459TIP3    H246793   1.687   2.018   4.861 -0.8005 -3.4607  1.7062
 8460TIP3   OH246794   1.963   6.766   3.245 -0.4652 -0.3398  0.2076
 8460TIP3    H146795   1.920   6.739   3.327  1.1495 -2.6338  0.3763
 8460TIP3    H246796   2.044   6.716   3.243  1.3389  2.4022 -1.0402
 8461TIP3   OH246797   1.219   5.185  12.995 -0.4854  0.4707  0.1672
 8461TIP3    H146798   1.245   5.114  13.054 -1.5137 -1.3965 -1.4864
 8461TIP3    H246799   1.294   5.197  12.937 -0.4029  0.5765  0.2944
 8462TIP3   OH246800   2.849   3.127   5.530 -0.2921 -0.2110 -0.0078
 8462TIP3    H146801   2.923   3.161   5.480  0.2362 -2.7104 -1.0603
 8462TIP3    H246802   2.772   3.163   5.488  0.2434  1.2308  0.1794
 8463TIP3   OH246803   2.963   2.910  11.408  0.1654 -0.0674 -0.4269
 8463TIP3    H146804   2.967   2.855  11.486  0.6501 -0.1525 -0.5098
 8463TIP3    H246805   2.898   2.977  11.429 -1.7968 -1.6898 -0.9702
 8464TIP3   OH246806   5.044   6.180   2.284 -0.3749 -0.0528  0.3232
 8464TIP3    H146807   5.132   6.168   2.248 -0.3792  0.6311  0.0572
 8464TIP3    H246808   5.015   6.264   2.248 -1.7208 -0.9336 -0.7811
 8465TIP3   OH246809   1.863   1.931   2.512  0.0803 -0.2562  0.4317
 8465TIP3    H146810   1.771   1.949   2.531 -0.0395  0.0578 -0.4353
 8465TIP3    H246811   1.866   1.910   2.419  1.1138  1.3776  0.0391
 8466TIP3   OH246812   3.649   1.324   2.752 -0.1103  0.5603 -0.4117
 8466TIP3    H146813   3.664   1.406   2.706  0.9250  0.3039 -0.5480
 8466TIP3    H246814   3.719   1.266   2.723 -0.0648  0.0424  0.6541
 8467TIP3   OH246815   5.154   2.934  15.057  0.7861  0.0457 -0.0779
 8467TIP3    H146816   5.076   2.951  15.110  0.2755  2.2328 -1.4321
 8467TIP3    H246817   5.192   2.855  15.096 -1.8492 -0.8541  0.8909
 8468TIP3   OH246818   0.447   5.366  14.088 -0.0280 -0.1333  0.5800
 8468TIP3    H146819   0.494   5.361  14.171  0.6899  0.7914  0.2489
 8468TIP3    H246820   0.472   5.451  14.051  0.5485 -0.9837 -1.1083
 8469TIP3   OH246821   0.124   1.428  15.923 -0.0518 -0.3028  1.3364
 8469TIP3    H146822   0.071   1.348  15.925  0.0805 -0.3775  2.1799
 8469TIP3    H246823   0.145   1.441  15.830  0.9926 -1.9656  1.3035
 8470TIP3   OH246824   1.373   2.929  11.949  0.1866 -0.1267 -0.3089
 8470TIP3    H146825   1.337   2.936  12.037  0.3601  0.1928 -0.2612
 8470TIP3    H246826   1.309   2.878  11.900  0.5556 -1.1472  0.2573
 8471TIP3   OH246827   6.667   0.029   0.249 -0.5012  0.7836  0.4721
 8471TIP3    H146828   6.718   0.100   0.211 -1.2120  0.5584 -1.0280
 8471TIP3    H246829   6.618   0.069   0.320 -0.2139  1.5890  0.2228
 8472TIP3   OH246830   2.758   4.170  11.417  0.5412 -0.4929 -0.4882
 8472TIP3    H146831   2.795   4.084  11.397  0.6341 -0.0242 -2.4843
 8472TIP3    H246832   2.833   4.230  11.416  0.1780 -0.0472 -1.3207
 8473TIP3   OH246833   2.126   4.618  12.509  0.1425  0.2875  0.0240
 8473TIP3    H146834   2.152   4.640  12.599  0.9765  0.9342 -0.3593
 8473TIP3    H246835   2.191   4.554  12.481  0.3620  0.6798 -0.3796
 8474TIP3   OH246836   3.866   2.192   0.632 -0.6121  0.1747  0.1986
 8474TIP3    H146837   3.913   2.140   0.566 -3.2001 -2.0557 -0.0587
 8474TIP3    H246838   3.933   2.213   0.697  1.1816 -1.0495 -1.1273
 8475TIP3   OH246839   0.258   6.281   5.603  0.0074 -0.2161  0.0909
 8475TIP3    H146840   0.176   6.323   5.578  1.8143  3.4502 -0.3998
 8475TIP3    H246841   0.310   6.278   5.523  0.5259 -2.2234  0.4343
 8476TIP3   OH246842   0.106   6.692   1.692  0.2605 -0.0730  0.0557
 8476TIP3    H146843   0.051   6.770   1.702 -0.9236 -0.9014  0.3023
 8476TIP3    H246844   0.174   6.717   1.630 -0.7417  0.8149 -0.7068
 8477TIP3   OH246845   6.009   5.169   6.143 -0.2761 -0.0570  0.4278
 8477TIP3    H146846   6.040   5.162   6.053  0.2147  1.0694  0.4951
 8477TIP3    H246847   5.914   5.174   6.136 -0.3178 -1.0609  0.0631
 8478TIP3   OH246848   4.105   5.116   0.746 -0.1416 -0.1526 -0.1989
 8478TIP3    H146849   4.169   5.150   0.809 -0.1333  1.1814 -0.8786
 8478TIP3    H246850   4.036   5.079   0.800 -0.5461  1.7202  0.6679
 8479TIP3   OH246851   1.265   1.161   3.283  0.0986  0.1949  0.5098
 8479TIP3    H146852   1.237   1.251   3.269 -2.3887 -0.6987 -0.8857
 8479TIP3    H246853   1.307   1.136   3.201 -1.2401 -0.5788  0.0445
 8480TIP3   OH246854   6.269   4.428   1.340 -0.4297 -0.0074 -0.0640
 8480TIP3    H146855   6.300   4.488   1.407  0.3520 -0.1487 -0.2901
 8480TIP3    H246856   6.291   4.470   1.257 -0.8448 -0.1128 -0.2325
 8481TIP3   OH246857   3.883   0.044  13.987  0.2765 -0.0225  0.0900
 8481TIP3    H146858   3.815   0.111  13.998  0.7473  0.2383  1.5591
 8481TIP3    H246859   3.854  -0.006  13.910 -1.9650 -0.3637  1.0740
 8482TIP3   OH246860   1.909   5.125  15.418 -0.9032  0.1810 -0.3480
 8482TIP3    H146861   1.874   5.099  15.333  0.1839  0.4762 -0.9030
 8482TIP3    H246862   1.938   5.043  15.457  0.1607  0.2302 -1.0022
 8483TIP3   OH246863   4.258   0.680   3.163 -0.1030  1.0302 -0.4514
 8483TIP3    H146864   4.286   0.609   3.106 -1.2552 -0.5504  0.8549
 8483TIP3    H246865   4.242   0.754   3.104 -0.4484 -0.2707 -2.0608
 8484TIP3   OH246866   3.790   1.443  13.078 -0.0310 -0.5999  0.4117
 8484TIP3    H146867   3.696   1.464  13.079 -0.1218 -0.9762  1.8568
 8484TIP3    H246868   3.792   1.347  13.081  0.4161 -0.6630 -1.0753
 8485TIP3   OH246869   1.339   3.139  11.234 -0.0676 -0.0944  0.0690
 8485TIP3    H146870   1.332   3.116  11.142  0.1881 -0.7712  0.2108
 8485TIP3    H246871   1.273   3.207  11.247 -1.2363 -1.1383 -0.2452
 8486TIP3   OH246872   6.409   2.238  16.207  0.4649 -0.6029  0.4660
 8486TIP3    H146873   6.441   2.266  16.122  0.5173 -0.0311  0.6633
 8486TIP3    H246874   6.338   2.299  16.227  1.6364  0.4533  1.6331
 8487TIP3   OH246875   1.120   4.325   2.374  0.2171 -0.3640  0.5711
 8487TIP3    H146876   1.040   4.377   2.365  0.3127 -0.1779  0.7923
 8487TIP3    H246877   1.152   4.345   2.461  0.8275  0.0242  0.2632
 8488TIP3   OH246878   6.365   4.511  14.693 -0.3089 -0.0891 -0.1979
 8488TIP3    H146879   6.382   4.574  14.623 -0.5414 -3.0246 -3.1980
 8488TIP3    H246880   6.445   4.459  14.699 -1.6636 -2.5771 -1.5236
 8489TIP3   OH246881   6.281   3.977  15.204 -0.1526  0.1121  0.3152
 8489TIP3    H146882   6.203   3.936  15.243 -0.5298  0.2615 -0.2601
 8489TIP3    H246883   6.319   4.028  15.275 -0.6115  0.0788  0.5918
 8490TIP3   OH246884   4.668   4.610  16.875  0.4675  0.8526 -0.4269
 8490TIP3    H146885   4.756   4.573  16.882  0.1564  0.0865 -0.5377
 8490TIP3    H246886   4.682   4.705  16.877  1.2295  0.7344  0.3378
 8491TIP3   OH246887   1.549   4.675  12.195 -0.0199 -0.1984  0.2637
 8491TIP3    H146888   1.618   4.621  12.155 -0.1736 -1.4755  1.6445
 8491TIP3    H246889   1.468   4.645  12.154 -0.1196 -1.1463  1.1213
 8492TIP3   OH246890   4.541   2.273   3.191  0.9712  0.4087 -0.3814
 8492TIP3    H146891   4.605   2.301   3.125  0.3437 -2.7633 -2.6136
 8492TIP3    H246892   4.457   2.304   3.157  0.8362  0.5375  0.0626
 8493TIP3   OH246893   0.089   3.039  11.980 -0.2063  0.3193  0.3645
 8493TIP3    H146894   0.160   3.085  11.934 -0.2686  0.2663  0.2175
 8493TIP3    H246895   0.084   3.084  12.065 -0.1028  0.4264  0.3160
 8494TIP3   OH246896   1.907   6.047  12.381  0.0329  0.0597  0.0492
 8494TIP3    H146897   1.984   5.991  12.372 -0.6757 -1.0096  0.4646
 8494TIP3    H246898   1.931   6.108  12.451  0.0669 -1.0860  1.0933
 8495TIP3   OH246899   6.365   6.176  12.384 -0.1933  0.7056 -0.3645
 8495TIP3    H146900   6.406   6.208  12.465 -0.1485 -0.7551  0.2244
 8495TIP3    H246901   6.421   6.103  12.357 -0.4517  0.9134 -1.4970
 8496TIP3   OH246902   4.994   5.231  11.703  0.0880  0.3581 -0.0453
 8496TIP3    H146903   4.978   5.299  11.637 -1.6167  0.2459  0.2205
 8496TIP3    H246904   5.005   5.279  11.785 -0.2454  0.3606 -0.0022
 8497TIP3   OH246905   2.734   1.017   0.519 -0.4487 -0.4270 -0.3549
 8497TIP3    H146906   2.693   1.091   0.565 -0.2710 -0.3106 -0.3821
 8497TIP3    H246907   2.765   1.055   0.437  0.1697 -0.3977 -0.1167
 8498TIP3   OH246908   5.291   1.918   5.791 -0.5546  0.3715  0.0942
 8498TIP3    H146909   5.331   1.832   5.780  0.0113  0.4997  1.0081
 8498TIP3    H246910   5.236   1.909   5.868  1.0451  1.3255  1.4280
 8499TIP3   OH246911   1.403   0.950   4.347 -0.5251  0.0545  1.0295
 8499TIP3    H146912   1.416   0.940   4.253 -0.2059 -0.7449  1.1473
 8499TIP3    H246913   1.380   0.862   4.378 -1.3002  0.4435  1.5978
 8500TIP3   OH246914   4.232   4.773  12.027  0.9676  0.1756 -0.0737
 8500TIP3    H146915   4.172   4.827  11.976  0.1458 -0.6339  0.0184
 8500TIP3    H246916   4.218   4.801  12.118 -0.1119 -0.7867  0.0747
 8501TIP3   OH246917   2.724   0.143  10.890 -0.2782  0.7636 -0.6636
 8501TIP3    H146918   2.653   0.178  10.837 -0.9315  1.4965  0.6668
 8501TIP3    H246919   2.683   0.075  10.943 -0.3469  2.1601  1.1596
 8502TIP3   OH246920   2.850   3.905  16.462  0.2383 -0.0927 -0.4732
 8502TIP3    H146921   2.890   3.980  16.504  0.5205 -0.7272  0.4212
 8502TIP3    H246922   2.919   3.838  16.459 -0.2362 -0.5931 -0.5109
 8503TIP3   OH246923   2.950   6.160  13.665  0.1047 -0.8682  0.0863
 8503TIP3    H146924   3.029   6.154  13.611 -1.2962  1.4142 -2.4942
 8503TIP3    H246925   2.889   6.100  13.623 -0.7994  0.4656 -0.5839
 8504TIP3   OH246926   5.275   1.610   5.215  0.1092  0.5295  0.4053
 8504TIP3    H146927   5.263   1.661   5.135 -0.6287 -0.3556 -0.0792
 8504TIP3    H246928   5.368   1.587   5.216  0.1961  0.8576 -0.0040
 8505TIP3   OH246929   1.140   2.298   5.194 -0.0917  0.0855  1.3026
 8505TIP3    H146930   1.056   2.259   5.171  0.6470 -1.7043  1.4691
 8505TIP3    H246931   1.165   2.255   5.275  1.5201 -0.2892  0.6505
 8506TIP3   OH246932   0.505   3.713  16.121 -0.0388  0.0446 -0.4341
 8506TIP3    H146933   0.562   3.643  16.154 -1.1300  0.8291  3.7428
 8506TIP3    H246934   0.564   3.786  16.104  0.6276 -0.3985 -0.0678
 8507TIP3   OH246935   0.636   1.333  14.574 -0.6725  0.0672  0.2319
 8507TIP3    H146936   0.574   1.308  14.506 -1.3652  2.5756 -0.1304
 8507TIP3    H246937   0.594   1.305  14.656 -1.7189  0.6533 -0.0950
 8508TIP3   OH246938   1.727   5.307   0.227 -0.0469 -0.6164 -0.0195
 8508TIP3    H146939   1.727   5.230   0.171 -0.4107 -0.9570  0.4320
 8508TIP3    H246940   1.675   5.372   0.179  0.1113 -0.7159 -0.3228
 8509TIP3   OH246941   2.732   3.841   4.772  0.2232  0.8192  0.1805
 8509TIP3    H146942   2.660   3.893   4.808 -0.8666 -1.3469  1.2595
 8509TIP3    H246943   2.775   3.804   4.848  0.0243 -1.0632 -0.5838
 8510TIP3   OH246944   6.755   1.793   3.793  0.1015 -0.6395 -0.2131
 8510TIP3    H146945   6.787   1.881   3.812  2.2782 -1.2545 -0.7254
 8510TIP3    H246946   6.759   1.786   3.698  0.5362 -1.4764 -0.1431
 8511TIP3   OH246947   6.738   4.144  16.684  0.3268 -0.0376  0.0397
 8511TIP3    H146948   6.809   4.122  16.743  0.9343 -1.7330 -1.2274
 8511TIP3    H246949   6.661   4.152  16.740  1.5447  2.5238  1.5272
 8512TIP3   OH246950   3.168   1.832   0.385 -0.4736  0.3602 -0.4262
 8512TIP3    H146951   3.205   1.856   0.470 -0.4723 -0.3955 -0.2068
 8512TIP3    H246952   3.232   1.864   0.322  0.3184 -0.4666 -0.0725
 8513TIP3   OH246953   4.467   6.011  12.352  0.2464  0.1217  0.2119
 8513TIP3    H146954   4.551   6.056  12.347  1.1768 -1.4988  0.7844
 8513TIP3    H246955   4.414   6.054  12.284  1.6532  0.9031 -0.4485
 8514TIP3   OH246956   2.292   5.970  16.562 -0.1512  0.3266  0.2968
 8514TIP3    H146957   2.297   6.062  16.536 -1.7106  0.0596 -1.1363
 8514TIP3    H246958   2.382   5.938  16.556  0.4076  1.7084  0.7604
 8515TIP3   OH246959   3.108   0.132  16.881  0.3494 -0.0207 -0.3099
 8515TIP3    H146960   3.151   0.183  16.950  0.3401 -0.0998 -0.2459
 8515TIP3    H246961   3.087   0.195  16.813  0.0760  0.1111 -0.1040
 8516TIP3   OH246962   6.730   1.586   3.305 -0.3251 -1.0143  0.3251
 8516TIP3    H146963   6.641   1.591   3.271 -0.0521  0.3598 -0.2770
 8516TIP3    H246964   6.781   1.551   3.232 -0.0157  0.3924 -0.1812
 8517TIP3   OH246965   2.235   4.622  11.759 -0.4805  0.1264  0.5524
 8517TIP3    H146966   2.267   4.531  11.764 -2.9492 -1.0017 -1.6136
 8517TIP3    H246967   2.279   4.658  11.682 -0.6493  0.2573  0.5165
 8518TIP3   OH246968   1.181   1.340  14.394 -0.1425  0.1068  0.0592
 8518TIP3    H146969   1.179   1.250  14.361  1.4142 -0.0028  0.1788
 8518TIP3    H246970   1.092   1.372  14.381 -1.5225 -2.2906  2.4643
 8519TIP3   OH246971   2.415   2.676  17.023 -0.3499 -0.0293  0.3945
 8519TIP3    H146972   2.413   2.580  17.025  0.3624 -0.0412  0.7519
 8519TIP3    H246973   2.508   2.698  17.031 -0.4639  0.6847 -0.1206
 8520TIP3   OH246974   4.680   6.162  11.972 -0.1293  0.1381  0.1377
 8520TIP3    H146975   4.636   6.244  11.949 -3.6525 -1.7696 -0.4902
 8520TIP3    H246976   4.673   6.157  12.067 -1.2048 -0.0541  0.0616
 8521TIP3   OH246977   4.499   0.925  13.545 -0.1650  0.1273  0.1557
 8521TIP3    H146978   4.461   0.838  13.545  0.5489 -0.2077 -1.0525
 8521TIP3    H246979   4.425   0.984  13.528 -0.3048 -0.4398 -1.2955
 8522TIP3   OH246980   0.826   4.415   0.218  0.0490 -0.0522 -0.2681
 8522TIP3    H146981   0.900   4.402   0.159 -0.0169 -0.9421 -0.1723
 8522TIP3    H246982   0.808   4.327   0.253  1.4595  0.7622  2.7550
 8523TIP3   OH246983   2.301   0.316  16.972 -0.3384  0.2574 -0.5714
 8523TIP3    H146984   2.380   0.365  16.995 -0.3585  0.1539 -0.2725
 8523TIP3    H246985   2.304   0.309  16.877  0.1981 -0.0478 -0.5359
 8524TIP3   OH246986   0.597   6.790   3.698 -0.0785  0.2250 -0.5358
 8524TIP3    H146987   0.573   6.730   3.768  1.6887 -0.2191 -0.2456
 8524TIP3    H246988   0.679   6.830   3.728 -0.9471  2.4442 -0.9380
 8525TIP3   OH246989   2.939   5.068  15.277 -0.0112  0.0450 -0.0998
 8525TIP3    H146990   2.913   5.129  15.346 -1.3695 -1.1987  0.5469
 8525TIP3    H246991   2.918   5.113  15.196  2.0939  1.7488  0.2217
 8526TIP3   OH246992   3.844   4.960   5.930 -0.1043 -0.3452 -0.1167
 8526TIP3    H146993   3.931   4.925   5.944 -0.8561 -1.4577  2.2747
 8526TIP3    H246994   3.793   4.929   6.005 -1.9182  2.3978 -0.0732
 8527TIP3   OH246995   2.988   3.487   2.366  0.2488  0.2803 -0.2674
 8527TIP3    H146996   2.898   3.462   2.342  1.0964 -2.7878 -0.6436
 8527TIP3    H246997   3.026   3.520   2.284 -0.2975  0.9699 -0.2582
 8528TIP3   OH246998   2.526   1.229  11.951  0.6908  0.2617  0.3750
 8528TIP3    H146999   2.543   1.150  11.900 -0.2531  0.5242 -0.3731
 8528TIP3    H247000   2.554   1.207  12.039 -1.2812 -1.5979  0.6305
 8529TIP3   OH247001   4.894   2.923   6.259  0.2163  0.0703 -0.5015
 8529TIP3    H147002   4.982   2.960   6.270  0.1200  0.0219  0.5716
 8529TIP3    H247003   4.852   2.981   6.195  0.9606  0.1972 -0.8971
 8530TIP3   OH247004   1.228   2.919   0.185  0.7525 -0.4385 -0.0586
 8530TIP3    H147005   1.312   2.959   0.161  0.4384  1.1167  1.2760
 8530TIP3    H247006   1.166   2.992   0.184 -0.3738 -1.3706  0.0307
 8531TIP3   OH247007   4.542   5.542  13.327 -0.2369 -0.0229 -0.3696
 8531TIP3    H147008   4.610   5.591  13.282 -1.9036  2.4615 -0.3771
 8531TIP3    H247009   4.573   5.534  13.417  0.3372  0.4936 -0.5216
 8532TIP3   OH247010   1.393   5.107  13.334  0.7927 -0.6963  0.5144
 8532TIP3    H147011   1.352   5.055  13.265  0.5421 -0.3360  0.3877
 8532TIP3    H247012   1.322   5.160  13.369  1.3079  0.5704 -0.2934
 8533TIP3   OH247013   4.415   5.369   1.155 -0.1359  0.5890  0.1492
 8533TIP3    H147014   4.494   5.420   1.172 -0.1766  0.5819  0.3658
 8533TIP3    H247015   4.427   5.288   1.206  0.2949  0.0189 -0.8410
 8534TIP3   OH247016   1.525   6.462  16.421  0.4684  0.6138 -0.2310
 8534TIP3    H147017   1.511   6.394  16.487  0.0122  0.8164 -0.1191
 8534TIP3    H247018   1.529   6.544  16.471 -0.3254  0.8180 -0.4861
 8535TIP3   OH247019   5.132   4.702   0.742  0.0887 -0.7781  0.1516
 8535TIP3    H147020   5.058   4.659   0.784  0.4709 -1.1810  0.4161
 8535TIP3    H247021   5.209   4.659   0.778  0.4597 -0.2585 -0.0110
 8536TIP3   OH247022   1.722   5.280   0.647 -0.1122 -0.7936  0.1607
 8536TIP3    H147023   1.777   5.349   0.610 -1.4061  0.7504  0.9712
 8536TIP3    H247024   1.770   5.249   0.724 -0.0754  0.1108  0.5124
 8537TIP3   OH247025   0.661   4.611   4.038  0.3036 -0.1700  0.3451
 8537TIP3    H147026   0.695   4.685   3.988 -0.4843 -0.5892 -0.8658
 8537TIP3    H247027   0.727   4.595   4.105  0.1415  2.0558  1.0886
 8538TIP3   OH247028   2.815   6.339   5.376 -0.3891 -0.3497 -0.1375
 8538TIP3    H147029   2.772   6.424   5.378 -0.9942 -0.6616  0.3765
 8538TIP3    H247030   2.758   6.285   5.321  1.5715  0.3855 -3.1539
 8539TIP3   OH247031   5.148   6.401   0.754  0.0635  0.6348 -0.2297
 8539TIP3    H147032   5.232   6.355   0.743  0.3527  1.1325 -0.1057
 8539TIP3    H247033   5.123   6.382   0.844 -0.3054 -0.0883 -0.4755
 8540TIP3   OH247034   3.290   3.117   2.576 -0.4547  0.4589  0.3062
 8540TIP3    H147035   3.212   3.098   2.628 -0.5372 -1.3076 -0.4019
 8540TIP3    H247036   3.343   3.037   2.584  1.5680  1.8087  1.2325
 8541TIP3   OH247037   3.340   2.854   2.161  0.2635 -0.1170 -0.6169
 8541TIP3    H147038   3.276   2.817   2.221  1.4094 -1.7312 -0.3207
 8541TIP3    H247039   3.424   2.841   2.205  0.8497  1.8854 -1.0156
 8542TIP3   OH247040   2.932   2.693  11.591  0.1204 -0.3060 -0.0059
 8542TIP3    H147041   2.986   2.627  11.547  0.8649  0.9210 -0.9811
 8542TIP3    H247042   2.977   2.711  11.673 -0.0023 -0.8845  0.1931
 8543TIP3   OH247043   3.552   4.111  13.829  0.3466  0.0727 -0.3530
 8543TIP3    H147044   3.512   4.146  13.908  1.9264  0.4762  0.3117
 8543TIP3    H247045   3.610   4.041  13.860  2.3012  1.3598 -0.8904
 8544TIP3   OH247046   0.784   2.253  12.372  0.5544 -0.1257 -0.3059
 8544TIP3    H147047   0.790   2.273  12.279 -0.1229 -0.0413 -0.3364
 8544TIP3    H247048   0.850   2.309  12.413 -0.3920  1.2043 -0.5397
 8545TIP3   OH247049   5.930   5.146  15.002 -0.3928  0.1615 -0.0454
 8545TIP3    H147050   5.966   5.127  15.089 -1.4217  0.9229  0.5669
 8545TIP3    H247051   5.919   5.241  15.001 -0.5047  0.1417 -0.9668
 8546TIP3   OH247052   1.189   6.151   2.172 -0.3954  0.2468  0.1936
 8546TIP3    H147053   1.117   6.193   2.126 -0.2262  1.2509  0.8139
 8546TIP3    H247054   1.226   6.220   2.227  1.4319 -0.0894 -0.5548
 8547TIP3   OH247055   1.217   4.958  14.275 -0.0244 -0.5818 -0.1475
 8547TIP3    H147056   1.301   5.003  14.280 -0.0892 -0.5222  0.4720
 8547TIP3    H247057   1.234   4.872  14.313 -0.0331 -0.8905 -0.8272
 8548TIP3   OH247058   1.639   5.538  14.036 -0.1170 -0.0523 -0.4218
 8548TIP3    H147059   1.594   5.622  14.024 -1.6012 -0.6200  0.8530
 8548TIP3    H247060   1.576   5.473  14.007  1.2518 -0.7397 -1.9736
 8549TIP3   OH247061   3.154   6.287  15.605 -0.1854 -0.0756 -0.1831
 8549TIP3    H147062   3.169   6.211  15.661  1.6675 -0.7925 -1.5529
 8549TIP3    H247063   3.215   6.276  15.532 -0.8172  2.0453 -1.1207
 8550TIP3   OH247064   5.084   6.616  13.079 -0.3442  0.4825  0.4468
 8550TIP3    H147065   5.159   6.664  13.112  0.6599 -0.0239 -1.0155
 8550TIP3    H247066   5.024   6.684  13.047  0.6705  0.8201 -0.7961
 8551TIP3   OH247067   1.822   2.241  15.706  0.4243 -0.1215  0.0260
 8551TIP3    H147068   1.861   2.315  15.660  0.6274  0.0824  0.5212
 8551TIP3    H247069   1.740   2.224  15.660  1.2542 -0.7965 -1.2742
 8552TIP3   OH247070   1.473   3.008   0.114 -0.4614  0.2054  0.7566
 8552TIP3    H147071   1.567   3.026   0.116 -0.5804  1.0551 -0.4543
 8552TIP3    H247072   1.433   3.089   0.083 -1.6909  0.1521  2.0622
 8553TIP3   OH247073   4.166   0.688  16.567  0.1171 -0.4041  0.2859
 8553TIP3    H147074   4.172   0.601  16.607 -0.8185  0.2921  2.0857
 8553TIP3    H247075   4.073   0.700  16.550  0.4137 -0.3195 -1.3630
 8554TIP3   OH247076   6.339   4.705   5.822  0.0885  0.1475 -0.1585
 8554TIP3    H147077   6.399   4.728   5.893  0.1454  0.1756 -0.2157
 8554TIP3    H247078   6.331   4.786   5.771  1.9638 -0.5268 -1.6040
 8555TIP3   OH247079   3.431   4.584   4.287  0.3642  0.0769 -0.2196
 8555TIP3    H147080   3.499   4.539   4.238  0.9245 -0.3117  0.8985
 8555TIP3    H247081   3.469   4.669   4.310  0.4181 -0.0717  0.2561
 8556TIP3   OH247082   4.774   4.253  13.050 -0.1361 -0.2972 -0.3005
 8556TIP3    H147083   4.691   4.243  13.097  0.3601  1.5674  1.1107
 8556TIP3    H247084   4.759   4.328  12.992  0.6850  0.3710  0.3300
 8557TIP3   OH247085   1.945   4.525  15.136 -0.5979 -0.0497 -0.4439
 8557TIP3    H147086   1.959   4.468  15.060  0.6491  0.5846 -0.7301
 8557TIP3    H247087   1.896   4.471  15.198 -1.8697 -0.4913 -1.7897
 8558TIP3   OH247088   4.130   1.440   4.872 -0.6443  0.5361  0.1762
 8558TIP3    H147089   4.068   1.512   4.857 -0.2224  0.7302 -0.7169
 8558TIP3    H247090   4.091   1.388   4.942 -1.5148  1.0032  0.0450
 8559TIP3   OH247091   4.481   3.295   4.018 -0.7340 -0.0360  0.0483
 8559TIP3    H147092   4.541   3.265   4.086 -0.6040 -0.7387 -0.3617
 8559TIP3    H247093   4.397   3.256   4.041 -0.8970  0.4538  0.2908
 8560TIP3   OH247094   5.781   6.478   5.291  0.0302  0.8076  0.3669
 8560TIP3    H147095   5.850   6.449   5.230 -1.0068  0.7791 -0.8444
 8560TIP3    H247096   5.725   6.534   5.238 -0.6333  1.1847  1.4529
 8561TIP3   OH247097   5.248   2.259  14.233 -0.0766 -0.0403  0.9056
 8561TIP3    H147098   5.182   2.315  14.194 -0.2508  0.2960  1.6728
 8561TIP3    H247099   5.202   2.179  14.257  0.1056 -0.3964  0.1050
 8562TIP3   OH247100   3.939   0.805  16.215 -0.2095  0.4631 -0.8011
 8562TIP3    H147101   3.877   0.816  16.143 -1.9081 -2.9457 -0.0280
 8562TIP3    H247102   3.992   0.730  16.190  0.2601  0.2301  0.7871
 8563TIP3   OH247103   2.296   0.255   1.383 -0.5365 -0.2008  0.5390
 8563TIP3    H147104   2.255   0.317   1.323  0.3759  0.4430  0.5683
 8563TIP3    H247105   2.253   0.272   1.467 -1.5836 -0.8808  0.1586
 8564TIP3   OH247106   6.088   1.187   3.657  0.9929  0.0938 -0.0694
 8564TIP3    H147107   6.178   1.158   3.641  1.4023  1.4259 -0.3524
 8564TIP3    H247108   6.085   1.205   3.751  1.4201  1.2351 -0.2547
 8565TIP3   OH247109   4.867   0.558   0.807 -1.1529  0.0792  0.1694
 8565TIP3    H147110   4.923   0.481   0.821 -1.2977 -0.1840 -0.6116
 8565TIP3    H247111   4.829   0.576   0.893 -2.1830 -1.5652  0.1138
 8566TIP3   OH247112   3.034   0.437   4.566  0.0065 -0.9480  0.1637
 8566TIP3    H147113   3.040   0.489   4.486 -2.6086 -0.0734  0.4453
 8566TIP3    H247114   2.942   0.413   4.572 -0.1435  0.0305  3.5195
 8567TIP3   OH247115   1.237   1.098  15.622 -0.1392 -0.2431  0.5255
 8567TIP3    H147116   1.311   1.036  15.624 -0.6353 -0.9271 -0.7018
 8567TIP3    H247117   1.222   1.122  15.713  1.1861 -0.5891  0.8568
 8568TIP3   OH247118   3.493   3.608  15.014 -0.6681  0.2201  0.1813
 8568TIP3    H147119   3.428   3.659  14.965 -1.0968 -0.4612  0.0387
 8568TIP3    H247120   3.442   3.553  15.073 -0.1691  0.8103  1.2067
 8569TIP3   OH247121   0.482   1.922   0.050 -0.3891  0.1987  0.3910
 8569TIP3    H147122   0.419   1.990   0.027 -1.3137 -0.0655  2.0110
 8569TIP3    H247123   0.547   1.966   0.104 -1.4050 -0.3058  2.0877
 8570TIP3   OH247124   0.930   4.687   0.675  0.1835 -0.0859 -0.2383
 8570TIP3    H147125   0.876   4.608   0.673 -0.9409  0.6509 -1.0652
 8570TIP3    H247126   0.994   4.674   0.605 -1.1651  0.4437 -1.6631
 8571TIP3   OH247127   0.819   6.704  16.343 -0.1760 -0.0979  0.7751
 8571TIP3    H147128   0.789   6.755  16.268 -2.1783 -0.8545  1.0198
 8571TIP3    H247129   0.848   6.621  16.305 -1.4744 -0.5995  0.8197
 8572TIP3   OH247130   2.566   0.166   2.702  0.2086  0.0114 -0.6004
 8572TIP3    H147131   2.591   0.157   2.610  1.7927  3.6973 -0.6956
 8572TIP3    H247132   2.482   0.119   2.709 -0.5890  0.5974 -4.2246
 8573TIP3   OH247133   4.189   5.891  12.259  0.8271 -0.0375 -0.2255
 8573TIP3    H147134   4.243   5.908  12.182 -1.7575  0.9497 -1.9472
 8573TIP3    H247135   4.117   5.837  12.226 -2.9044  4.1029  0.2011
 8574TIP3   OH247136   4.622   3.781   3.018  0.0418  0.1381 -0.1410
 8574TIP3    H147137   4.687   3.851   3.031 -1.0378  0.8919  1.5645
 8574TIP3    H247138   4.625   3.731   3.100 -1.5954  0.2769  0.0364
 8575TIP3   OH247139   2.569   4.737  13.085  0.3984  0.2682 -0.4689
 8575TIP3    H147140   2.579   4.796  13.010 -0.5603  1.5415  0.3617
 8575TIP3    H247141   2.646   4.680  13.082  1.5877  1.8550 -1.0482
 8576TIP3   OH247142   6.531   0.191  13.974 -0.1608 -0.2214  0.2340
 8576TIP3    H147143   6.521   0.281  14.007 -1.1595 -0.6838  1.2496
 8576TIP3    H247144   6.586   0.148  14.040 -0.8604 -0.7255  0.5018
 8577TIP3   OH247145   5.770   1.888   1.820 -0.2699  0.1180  0.0723
 8577TIP3    H147146   5.847   1.924   1.863 -0.0393  0.7904 -0.8731
 8577TIP3    H247147   5.745   1.954   1.756 -0.5273 -0.8886 -0.9014
 8578TIP3   OH247148   0.240   0.811  15.541 -0.0017  0.2143 -0.2981
 8578TIP3    H147149   0.169   0.758  15.578  0.5733  0.0778  0.6310
 8578TIP3    H247150   0.196   0.875  15.486 -0.8649  0.2573  0.4242
 8579TIP3   OH247151   2.947   3.384  15.779 -0.2541  0.6109  0.0696
 8579TIP3    H147152   3.032   3.358  15.815 -0.5208  0.2579  0.4524
 8579TIP3    H247153   2.956   3.371  15.684 -0.0477  0.0869  0.1594
 8580TIP3   OH247154   6.209   4.869   3.948 -1.0674  0.8761 -0.2862
 8580TIP3    H147155   6.297   4.832   3.955 -0.5517  1.0534 -3.7246
 8580TIP3    H247156   6.205   4.936   4.016  1.0849  0.1982  0.5778
 8581TIP3   OH247157   0.742   4.975   4.998  0.5527 -0.7315 -0.6369
 8581TIP3    H147158   0.747   5.025   4.917 -0.9681  0.4391 -0.0608
 8581TIP3    H247159   0.655   4.936   4.998 -0.5144  1.3733  1.5143
 8582TIP3   OH247160   1.671   5.055   4.332  0.0525 -0.3669  0.5024
 8582TIP3    H147161   1.704   4.967   4.309 -0.7154 -0.1787 -1.5495
 8582TIP3    H247162   1.588   5.039   4.376  0.5979 -0.6984  1.4291
 8583TIP3   OH247163   3.885   4.797   5.126 -0.6619  0.1807 -0.0210
 8583TIP3    H147164   3.866   4.853   5.201  0.1680  0.4317  0.0211
 8583TIP3    H247165   3.947   4.849   5.074  0.1043 -0.6891  0.0108
 8584TIP3   OH247166   5.912   4.242  16.669  0.2620  0.4441  0.1758
 8584TIP3    H147167   5.945   4.320  16.713 -0.9245  0.5981  0.8614
 8584TIP3    H247168   5.823   4.265  16.642  0.1060 -0.4643 -0.1510
 8585TIP3   OH247169   3.902   1.788   3.389 -0.0870  0.0558  0.3736
 8585TIP3    H147170   3.884   1.701   3.425  0.4363  0.3956  1.4895
 8585TIP3    H247171   3.970   1.773   3.323  1.8052 -0.0913  2.2676
 8586TIP3   OH247172   6.390   4.894   1.459 -0.2700 -0.4021 -0.4053
 8586TIP3    H147173   6.404   4.900   1.553 -0.6858 -1.4991 -0.2504
 8586TIP3    H247174   6.388   4.984   1.429  1.7767 -0.0548  0.3279
 8587TIP3   OH247175   5.726   2.945  13.097  0.0265 -0.0351 -0.3835
 8587TIP3    H147176   5.657   2.973  13.157 -0.5782  0.7041 -1.3856
 8587TIP3    H247177   5.800   2.922  13.153 -0.7115  0.0806  0.6591
 8588TIP3   OH247178   2.565   3.585  11.540 -0.3439 -0.5485  0.3134
 8588TIP3    H147179   2.610   3.501  11.546  1.1026  0.1714 -0.1139
 8588TIP3    H247180   2.630   3.645  11.505 -1.1367  0.9214  1.2608
 8589TIP3   OH247181   4.427   6.167   2.803 -0.0939 -0.2365 -0.8035
 8589TIP3    H147182   4.357   6.108   2.776 -0.1616  0.2351 -1.7044
 8589TIP3    H247183   4.444   6.221   2.726 -0.2980  1.1880  0.1152
 8590TIP3   OH247184   0.510   5.578  12.792 -0.4506 -0.5618 -1.0257
 8590TIP3    H147185   0.567   5.507  12.762  0.9895  0.8081 -1.7107
 8590TIP3    H247186   0.553   5.658  12.761 -1.4088  0.6889  0.6674
 8591TIP3   OH247187   4.854   6.643  12.468  0.0850  0.1652  0.2859
 8591TIP3    H147188   4.860   6.699  12.390  0.3083 -0.4281 -0.1282
 8591TIP3    H247189   4.768   6.662  12.504  0.1428  0.7524  0.1283
 8592TIP3   OH247190   1.239   1.628   5.350  0.5049 -0.2619  0.5759
 8592TIP3    H147191   1.279   1.635   5.263 -0.2598 -1.6946  0.0716
 8592TIP3    H247192   1.301   1.671   5.408  1.6502 -0.3721 -0.5117
 8593TIP3   OH247193   0.946   1.659  17.162 -0.0104  0.1708 -0.1133
 8593TIP3    H147194   0.894   1.740  17.162 -0.0011  0.2097  1.3492
 8593TIP3    H247195   0.966   1.643  17.070 -1.9843  0.5583 -0.6508
 8594TIP3   OH247196   5.891   2.560  14.656  0.0427 -0.1767  0.2189
 8594TIP3    H147197   5.897   2.521  14.743  1.0279  0.3879  0.4147
 8594TIP3    H247198   5.901   2.654  14.671 -1.7192  0.1213 -0.3065
 8595TIP3   OH247199   3.829   6.730   1.229  0.1968  0.1005 -0.2508
 8595TIP3    H147200   3.897   6.788   1.264  0.1567 -0.9933  1.8196
 8595TIP3    H247201   3.856   6.643   1.257 -1.5447 -0.4693 -0.2525
 8596TIP3   OH247202   5.076   0.642   1.820  0.0576  0.2011 -0.4701
 8596TIP3    H147203   5.109   0.657   1.732 -1.2259 -2.7069 -1.5848
 8596TIP3    H247204   5.113   0.557   1.846 -2.8254 -1.0441 -0.0056
 8597TIP3   OH247205   0.541   5.620  16.538  0.0987 -0.6461  0.2909
 8597TIP3    H147206   0.553   5.684  16.609  0.5554 -1.6545  1.1482
 8597TIP3    H247207   0.448   5.625  16.516  0.5200  2.0099 -1.3349
 8598TIP3   OH247208   3.075   4.047   1.396 -0.0692 -0.2205  0.4066
 8598TIP3    H147209   3.059   4.049   1.490 -1.5833 -0.2880  0.1838
 8598TIP3    H247210   3.167   4.071   1.386 -0.0243  0.2951  1.8619
 8599TIP3   OH247211   1.026   3.639   3.022 -0.4393  1.0341 -0.2221
 8599TIP3    H147212   0.951   3.599   2.979  0.3033  0.6560 -1.2152
 8599TIP3    H247213   1.067   3.567   3.070  1.6148  0.1392 -3.0048
 8600TIP3   OH247214   2.268   6.598   1.418 -0.3810 -0.0558 -0.3575
 8600TIP3    H147215   2.217   6.643   1.351  0.0042  1.4309  0.3113
 8600TIP3    H247216   2.345   6.653   1.431  0.0864 -0.8798  0.5395
 8601TIP3   OH247217   4.357   6.122  15.374  0.1558 -0.4706  0.3754
 8601TIP3    H147218   4.336   6.100  15.283 -1.0793  0.1516  0.4972
 8601TIP3    H247219   4.348   6.039  15.421 -2.2543 -0.2315  0.4428
 8602TIP3   OH247220   1.308   6.316  10.940  0.3447 -0.8273 -0.5899
 8602TIP3    H147221   1.398   6.348  10.938  0.5338 -1.3842 -1.2546
 8602TIP3    H247222   1.256   6.386  10.900  0.4749 -0.4826 -0.1529
 8603TIP3   OH247223   0.488   0.720  15.059  0.0409 -0.6293 -0.3449
 8603TIP3    H147224   0.486   0.735  15.154 -4.0979  0.9344 -0.4693
 8603TIP3    H247225   0.541   0.792  15.025 -1.2407  0.8209  0.6161
 8604TIP3   OH247226   4.022   0.150  14.178 -0.3390  0.0508 -0.4418
 8604TIP3    H147227   3.954   0.129  14.114 -0.5961  0.0419 -0.1695
 8604TIP3    H247228   4.064   0.229  14.144  0.2768 -0.5837 -1.1986
 8605TIP3   OH247229   0.424   3.345   4.278  0.0079  0.1476  0.0319
 8605TIP3    H147230   0.438   3.391   4.361 -1.0188  0.8768 -0.1840
 8605TIP3    H247231   0.376   3.407   4.223 -0.1285 -0.6558 -0.7969
 8606TIP3   OH247232   4.021   5.640   7.047  0.2741 -0.0661 -0.1266
 8606TIP3    H147233   3.986   5.728   7.065 -2.9364 -0.3841 -3.5676
 8606TIP3    H247234   4.048   5.643   6.955 -0.0368 -2.6827 -0.3806
 8607TIP3   OH247235   5.481   0.884   2.418 -0.7886  0.8470  0.4998
 8607TIP3    H147236   5.402   0.876   2.365  0.7473 -1.8122 -1.7070
 8607TIP3    H247237   5.540   0.938   2.364  0.1356 -0.2992  0.3224
 8608TIP3   OH247238   3.823   5.738  16.737  0.2400  0.2982 -0.3730
 8608TIP3    H147239   3.857   5.826  16.756  0.6435  0.5031 -1.9328
 8608TIP3    H247240   3.850   5.686  16.812  0.2636  1.4310  0.4390
 8609TIP3   OH247241   0.404   2.019   2.800  0.2329 -0.0055  0.8106
 8609TIP3    H147242   0.410   1.995   2.893 -1.1023  0.9369  1.1746
 8609TIP3    H247243   0.330   2.079   2.796  2.1452  2.4358 -0.3616
 8610TIP3   OH247244   5.477   1.531  11.793 -0.5161  0.1404 -0.3858
 8610TIP3    H147245   5.531   1.482  11.855  2.0355  1.1681 -1.6295
 8610TIP3    H247246   5.405   1.565  11.845  1.1918  0.4887  1.9211
 8611TIP3   OH247247   6.560   1.498   5.940 -0.2275 -0.7579 -1.1671
 8611TIP3    H147248   6.537   1.426   5.999  0.8451 -0.4782 -0.3557
 8611TIP3    H247249   6.654   1.486   5.924  0.3623  1.3655  0.3143
 8612TIP3   OH247250   5.204   2.934   5.241 -0.0901 -0.7021 -0.1402
 8612TIP3    H147251   5.144   2.895   5.177 -0.7782 -0.5788  0.4212
 8612TIP3    H247252   5.150   2.951   5.318  0.0017  2.1046 -0.6052
 8613TIP3   OH247253   2.668   3.192   0.645  0.1032  0.8342 -0.0960
 8613TIP3    H147254   2.572   3.188   0.639  0.2134 -0.6175 -1.5402
 8613TIP3    H247255   2.694   3.247   0.572  0.4754 -0.8152 -1.2453
 8614TIP3   OH247256   3.258   4.655   2.161 -0.2991 -0.1172 -0.2122
 8614TIP3    H147257   3.220   4.647   2.248 -2.1541  1.5611 -0.8025
 8614TIP3    H247258   3.209   4.593   2.108  1.7392 -2.1636  0.1075
 8615TIP3   OH247259   4.324   0.213   3.437  0.6892  0.4914 -0.0496
 8615TIP3    H147260   4.393   0.150   3.457 -0.4816 -0.3335  1.6465
 8615TIP3    H247261   4.245   0.174   3.475  0.0992  3.4924  2.1342
 8616TIP3   OH247262   5.526   4.939  16.291  0.4895  0.3900 -0.4765
 8616TIP3    H147263   5.545   4.853  16.255 -0.0627 -0.0840  0.3292
 8616TIP3    H247264   5.573   4.941  16.375  0.5526  0.8929 -0.5216
 8617TIP3   OH247265   3.205   5.396   1.622  0.1084  0.1756  0.4346
 8617TIP3    H147266   3.300   5.400   1.613 -0.0798  0.6587 -2.3407
 8617TIP3    H247267   3.181   5.309   1.589 -0.4746  0.3635  0.3512
 8618TIP3   OH247268   2.704   3.741   2.462  0.0599 -0.0734 -0.5927
 8618TIP3    H147269   2.671   3.829   2.479  1.6271  0.5580 -0.6014
 8618TIP3    H247270   2.670   3.688   2.534 -1.4429  0.3689 -0.9402
 8619TIP3   OH247271   4.913   2.602  15.404 -0.7055 -0.2041  0.1616
 8619TIP3    H147272   4.832   2.586  15.356 -1.4541 -1.5924  1.7973
 8619TIP3    H247273   4.904   2.552  15.485  2.3887 -1.6475 -0.2263
 8620TIP3   OH247274   3.815   2.427  12.889  0.6390 -0.0682 -0.0216
 8620TIP3    H147275   3.860   2.483  12.825 -0.5373  0.5777 -0.3120
 8620TIP3    H247276   3.728   2.465  12.896  0.1044 -1.3490  0.4595
 8621TIP3   OH247277   0.727   4.075  15.746 -0.1907 -0.2087  0.3635
 8621TIP3    H147278   0.644   4.122  15.731 -0.8367 -1.0930  1.0578
 8621TIP3    H247279   0.793   4.131  15.707 -1.1551  0.3802 -0.4883
 8622TIP3   OH247280   2.406   3.631   2.365  0.1827  0.5720  0.2719
 8622TIP3    H147281   2.323   3.652   2.321 -0.7014 -2.0293  0.5518
 8622TIP3    H247282   2.426   3.709   2.417 -0.0832  2.7658 -2.6316
 8623TIP3   OH247283   6.314   5.926   0.398 -0.1750 -0.0625 -0.2240
 8623TIP3    H147284   6.267   5.890   0.473 -0.6229 -0.5475 -0.7320
 8623TIP3    H247285   6.386   5.864   0.384 -2.0233 -1.9078 -2.2800
 8624TIP3   OH247286   1.853   5.167  17.078 -0.3146  0.5587  0.3772
 8624TIP3    H147287   1.941   5.158  17.114 -0.4333  0.8534  0.7422
 8624TIP3    H247288   1.795   5.143  17.150 -0.5119 -1.4868 -0.3897
 8625TIP3   OH247289   5.177   2.501   3.352  0.3743 -0.5860 -0.4915
 8625TIP3    H147290   5.241   2.547   3.407  1.0275 -1.2326 -0.6903
 8625TIP3    H247291   5.132   2.441   3.413 -1.2563  1.0513 -0.0021
 8626TIP3   OH247292   0.545   3.849   3.350 -0.3565 -0.4960 -0.1704
 8626TIP3    H147293   0.616   3.839   3.286 -0.6711  4.1885 -1.6536
 8626TIP3    H247294   0.468   3.869   3.297 -0.7480  3.0644  1.4346
 8627TIP3   OH247295   5.139   3.995   1.979  0.0123 -0.9071  1.1011
 8627TIP3    H147296   5.116   4.082   1.945 -0.5886 -0.7548  1.8470
 8627TIP3    H247297   5.164   3.944   1.902 -3.0151 -1.1320  0.1284
 8628TIP3   OH247298   5.132   1.653  13.513  0.1087  0.4626  0.2604
 8628TIP3    H147299   5.134   1.666  13.608 -2.0353 -0.3569  0.4815
 8628TIP3    H247300   5.178   1.569  13.499 -1.0224 -0.2726  0.8031
 8629TIP3   OH247301   6.711   5.214  12.099 -0.4867 -0.0113  0.2661
 8629TIP3    H147302   6.724   5.138  12.043 -0.8993  0.5791 -0.6506
 8629TIP3    H247303   6.632   5.256  12.065 -0.4347  0.6710  0.9455
 8630TIP3   OH247304   5.340   4.677   0.090  0.0235 -0.0185  0.1986
 8630TIP3    H147305   5.364   4.713   0.005 -1.3479  0.2360 -0.0982
 8630TIP3    H247306   5.407   4.710   0.150 -1.2583  3.2776  0.0000
 8631TIP3   OH247307   1.346   0.324   5.737  0.2562  0.1762 -0.2812
 8631TIP3    H147308   1.311   0.320   5.826 -0.1944  2.0263 -0.3212
 8631TIP3    H247309   1.270   0.338   5.682  0.4133 -1.9729 -1.1137
 8632TIP3   OH247310   4.200   3.323   5.096  0.0838  0.2869 -0.0426
 8632TIP3    H147311   4.218   3.251   5.156  0.8676  1.6228  1.4177
 8632TIP3    H247312   4.225   3.289   5.009  1.1297 -0.9515  0.7043
 8633TIP3   OH247313   2.082   2.267  17.007  0.4676 -0.0012  0.0796
 8633TIP3    H147314   2.055   2.281  17.098 -2.2128 -0.4012 -0.5532
 8633TIP3    H247315   2.160   2.212  17.014 -0.5695 -1.3726  2.1428
 8634TIP3   OH247316   1.768   5.909  10.955 -0.5579 -0.6864 -0.6069
 8634TIP3    H147317   1.767   6.004  10.966  0.2056 -0.8162  0.8329
 8634TIP3    H247318   1.684   5.880  10.993  0.4768 -0.7997  1.7753
 8635TIP3   OH247319   5.353   1.517  11.524  0.1693 -0.2016  0.3900
 8635TIP3    H147320   5.419   1.573  11.483 -0.6834  2.1007  1.9400
 8635TIP3    H247321   5.365   1.530  11.618 -1.3707 -1.1000  0.7508
 8636TIP3   OH247322   0.900   2.909   4.986  0.2189 -0.0977 -0.3813
 8636TIP3    H147323   0.994   2.912   5.004  0.2291  1.3753 -0.5581
 8636TIP3    H247324   0.862   2.871   5.064  0.9701 -0.9351 -0.3985
 8637TIP3   OH247325   6.002   0.092  13.296  0.1563  0.0847  0.4247
 8637TIP3    H147326   6.053   0.055  13.367 -0.3126 -0.9847  0.2163
 8637TIP3    H247327   5.925   0.036  13.289 -0.3964  0.8862 -0.1371
 8638TIP3   OH247328   4.988   4.033   3.497 -0.3315  0.3259  0.2177
 8638TIP3    H147329   4.987   4.097   3.426 -2.0824 -0.0498 -0.1596
 8638TIP3    H247330   4.987   4.085   3.577  0.5940  0.7528 -0.0387
 8639TIP3   OH247331   2.471   5.863  13.665  0.2186  0.5207  0.3986
 8639TIP3    H147332   2.482   5.787  13.608 -1.4614  1.7951 -1.8180
 8639TIP3    H247333   2.560   5.889  13.688  1.0362  0.1907 -2.0842
 8640TIP3   OH247334   0.252   4.835  16.365  0.5845 -0.1425 -0.4987
 8640TIP3    H147335   0.337   4.797  16.343  1.7120  1.7086  0.4300
 8640TIP3    H247336   0.192   4.799  16.300  2.6002  0.5295 -2.8690
 8641TIP3   OH247337   5.344   0.017   4.868 -0.3231  0.5588  0.4941
 8641TIP3    H147338   5.346  -0.016   4.958 -0.0936  1.3057  0.7646
 8641TIP3    H247339   5.413  -0.033   4.824 -2.4096 -2.0446 -0.0857
 8642TIP3   OH247340   6.476   3.982  13.919  0.7076 -0.4338 -0.1124
 8642TIP3    H147341   6.532   4.045  13.873  0.5794  0.1658  0.5523
 8642TIP3    H247342   6.412   4.035  13.966  0.6217 -1.0591  0.4963
 8643TIP3   OH247343   1.774   4.240   3.492  0.5631 -0.0387  0.6407
 8643TIP3    H147344   1.732   4.294   3.560  0.6617 -0.4173  1.0054
 8643TIP3    H247345   1.859   4.216   3.530  0.9400  0.3677  0.0781
 8644TIP3   OH247346   0.890   3.553   6.369  0.3036 -0.4321  0.1955
 8644TIP3    H147347   0.821   3.611   6.336 -0.1984  0.9906  3.4029
 8644TIP3    H247348   0.844   3.476   6.400  0.6111 -1.0819 -0.8947
 8645TIP3   OH247349   1.218   5.137   3.664 -0.3217 -0.0510 -0.2533
 8645TIP3    H147350   1.309   5.168   3.659 -0.1668 -0.6138 -1.0375
 8645TIP3    H247351   1.225   5.051   3.705 -0.3667 -0.6126 -1.3934
 8646TIP3   OH247352   2.219   1.941  12.979  0.4732 -0.2928 -0.1096
 8646TIP3    H147353   2.248   1.957  12.889  0.3939  0.5146 -0.0004
 8646TIP3    H247354   2.252   2.016  13.029 -1.1117  0.2597  0.1599
 8647TIP3   OH247355   4.873   1.382   3.652  0.3961  0.4163  0.8340
 8647TIP3    H147356   4.884   1.309   3.591  2.2239 -0.0100  1.6019
 8647TIP3    H247357   4.799   1.357   3.707  0.8210 -0.7615  0.9058
 8648TIP3   OH247358   1.299   4.624  13.468 -0.0745 -0.2212  0.2378
 8648TIP3    H147359   1.332   4.709  13.498 -0.7638 -0.6561  2.3387
 8648TIP3    H247360   1.204   4.637  13.459 -0.5196 -1.2596  2.6249
 8649TIP3   OH247361   3.296   0.673   6.339 -1.0380  0.1032  0.7054
 8649TIP3    H147362   3.331   0.620   6.410 -3.6973  0.1668  2.1605
 8649TIP3    H247363   3.251   0.745   6.382  0.9764  2.7024 -1.1891
 8650TIP3   OH247364   2.245   1.892   1.220 -0.2874  0.9735  0.3081
 8650TIP3    H147365   2.242   1.952   1.145  0.1579 -0.7529 -1.1629
 8650TIP3    H247366   2.336   1.861   1.222 -0.9894 -1.3775 -0.4634
 8651TIP3   OH247367   2.174   4.607  16.055 -0.3178 -0.1643 -0.5830
 8651TIP3    H147368   2.151   4.662  16.131  1.2569 -0.3242  0.0423
 8651TIP3    H247369   2.181   4.668  15.982 -3.3366 -0.1765 -1.0184
 8652TIP3   OH247370   2.946   2.523   4.167  0.4563  0.0225 -0.2143
 8652TIP3    H147371   2.899   2.447   4.200 -1.1645  1.5420  1.1768
 8652TIP3    H247372   2.923   2.526   4.074 -1.3043  0.0541  0.1916
 8653TIP3   OH247373   3.578   5.069  14.418  0.3264  0.7579 -0.3480
 8653TIP3    H147374   3.658   5.120  14.431 -0.1535  1.2852  0.5901
 8653TIP3    H247375   3.594   5.020  14.337  1.2697  1.4765 -0.6089
 8654TIP3   OH247376   1.340   3.455  15.041 -0.4859 -0.7436  0.0001
 8654TIP3    H147377   1.355   3.514  14.968  1.9126 -1.2111  0.0193
 8654TIP3    H247378   1.265   3.492  15.087 -0.7516  0.7197 -1.5125
 8655TIP3   OH247379   0.711   3.990  11.182 -0.9287  0.0999  0.0231
 8655TIP3    H147380   0.699   3.961  11.273 -1.2613 -0.0863 -0.0783
 8655TIP3    H247381   0.697   3.911  11.130 -0.1137  0.0681 -0.1581
 8656TIP3   OH247382   5.990   3.770  13.901 -0.3054  0.4631  0.3860
 8656TIP3    H147383   6.082   3.757  13.920 -0.6354 -0.8689  1.1781
 8656TIP3    H247384   5.957   3.820  13.975 -0.5702 -0.5618  0.9766
 8657TIP3   OH247385   0.333   4.745  12.205 -0.4960 -0.2439 -0.1698
 8657TIP3    H147386   0.410   4.725  12.259 -0.5428  1.2217  0.4902
 8657TIP3    H247387   0.344   4.837  12.181 -1.4515 -0.3504 -1.0704
 8658TIP3   OH247388   2.876   4.816   4.617  0.0332 -0.3952 -0.8748
 8658TIP3    H147389   2.810   4.777   4.675 -0.9028  2.2010 -0.0387
 8658TIP3    H247390   2.957   4.773   4.641 -0.7518 -1.0903  0.6894
 8659TIP3   OH247391   1.502   4.127  16.510  0.1080 -0.0659  0.1204
 8659TIP3    H147392   1.557   4.180  16.453  1.8576 -3.1364 -1.3118
 8659TIP3    H247393   1.455   4.068  16.451 -0.9110 -0.8514  1.6380
 8660TIP3   OH247394   0.861   3.887   3.488  0.0680  0.1921 -0.2669
 8660TIP3    H147395   0.945   3.894   3.533 -0.6044  1.5614  0.8405
 8660TIP3    H247396   0.881   3.839   3.407  1.9033  0.5269 -0.0484
 8661TIP3   OH247397   5.896   0.267  13.831 -0.1354  0.0309  0.6040
 8661TIP3    H147398   5.904   0.172  13.818 -0.4225  0.2546 -1.6478
 8661TIP3    H247399   5.894   0.303  13.742 -0.9142  2.0816  1.3949
 8662TIP3   OH247400   0.349   5.054   3.904  0.2517 -0.3233 -0.0208
 8662TIP3    H147401   0.270   5.102   3.928 -0.4508 -0.4835 -1.8005
 8662TIP3    H247402   0.377   5.010   3.984  0.1369  1.9207  1.3149
 8663TIP3   OH247403   2.982   2.042   3.318  0.2772 -0.3384 -0.2515
 8663TIP3    H147404   2.897   2.031   3.362  0.1830 -1.3497 -0.6682
 8663TIP3    H247405   2.974   2.125   3.271 -0.6869 -0.7020 -0.7411
 8664TIP3   OH247406   6.647   4.783  16.172  0.3911  0.5053 -0.2531
 8664TIP3    H147407   6.596   4.819  16.099  1.6732  2.0547 -0.4543
 8664TIP3    H247408   6.615   4.830  16.249 -1.9137 -2.0786  0.5200
 8665TIP3   OH247409   2.660   6.006  12.084 -0.3563 -0.1038 -0.7816
 8665TIP3    H147410   2.609   5.938  12.127  1.3576 -1.4177 -0.7226
 8665TIP3    H247411   2.741   5.963  12.058  0.3048  1.6354 -1.8116
 8666TIP3   OH247412   0.310   6.026  17.054 -0.1592  0.0822 -0.5116
 8666TIP3    H147413   0.220   6.054  17.037  0.2564  1.4505 -0.5682
 8666TIP3    H247414   0.351   6.101  17.097  0.6855 -0.8926  0.4525
 8667TIP3   OH247415   0.867   4.495   1.654 -0.3637 -0.3362  0.2568
 8667TIP3    H147416   0.815   4.434   1.600 -0.9866  0.8959 -0.5918
 8667TIP3    H247417   0.915   4.439   1.715 -0.7521 -1.6833 -0.6393
 8668TIP3   OH247418   0.683   1.306  12.853 -0.0843 -0.5226  0.5728
 8668TIP3    H147419   0.607   1.257  12.884 -0.4538 -1.1378 -1.1766
 8668TIP3    H247420   0.758   1.255  12.882 -0.4594 -3.3790 -2.8103
 8669TIP3   OH247421   0.556   2.173   5.778 -0.0203 -0.3238  0.0741
 8669TIP3    H147422   0.516   2.250   5.738 -0.7525 -0.4998  0.4492
 8669TIP3    H247423   0.537   2.181   5.871  1.3072 -0.1364  0.3520
 8670TIP3   OH247424   0.589   5.776   2.142 -0.3463 -0.0973  0.6895
 8670TIP3    H147425   0.647   5.840   2.100  0.6023 -0.6035  1.1817
 8670TIP3    H247426   0.518   5.763   2.080  0.3384  0.1688 -0.1748
 8671TIP3   OH247427   5.901   4.889  14.950  0.4692  0.0060  0.4409
 8671TIP3    H147428   5.917   4.970  14.999 -2.6353  0.3657  1.0425
 8671TIP3    H247429   5.952   4.900  14.870  0.9082  2.1124  0.9420
 8672TIP3   OH247430   2.442   0.198   3.489  0.0436  0.2042  0.2864
 8672TIP3    H147431   2.517   0.246   3.523  0.2165 -0.8971  1.5218
 8672TIP3    H247432   2.468   0.106   3.491 -1.1316 -0.1560  0.2353
 8673TIP3   OH247433   6.150   4.634   2.445 -0.5055 -0.3732 -0.1822
 8673TIP3    H147434   6.219   4.569   2.427  0.2021  0.5245 -0.7860
 8673TIP3    H247435   6.084   4.618   2.378 -0.9938 -1.3584  0.5097
 8674TIP3   OH247436   5.727   6.388  13.998 -0.1737 -0.0123 -0.2102
 8674TIP3    H147437   5.655   6.371  14.058  0.3291  2.2913  1.1611
 8674TIP3    H247438   5.805   6.360  14.045  0.3737  3.0619  0.9626
 8675TIP3   OH247439   2.886   6.459  13.711  0.0750  0.6530  0.2819
 8675TIP3    H147440   2.869   6.525  13.644 -0.5379  0.3925  0.1809
 8675TIP3    H247441   2.938   6.392  13.666 -1.6037 -0.2763 -0.3765
 8676TIP3   OH247442   0.927   2.915   3.171 -0.8156  0.3944 -0.0468
 8676TIP3    H147443   0.883   2.852   3.229  1.6079 -0.8407  0.5913
 8676TIP3    H247444   0.914   2.879   3.083  0.5612 -1.1029  0.3139
 8677TIP3   OH247445   3.425   4.768  13.027 -0.1269  0.3985  0.3005
 8677TIP3    H147446   3.487   4.737  12.961 -1.0461 -0.0174 -0.3875
 8677TIP3    H247447   3.477   4.826  13.083  1.2215 -1.0068  0.5877
 8678TIP3   OH247448   1.297   4.904  12.845 -0.6705  0.1585  0.2235
 8678TIP3    H147449   1.372   4.920  12.787 -0.3172  0.3074  0.7177
 8678TIP3    H247450   1.250   4.832  12.803 -0.9836  0.9432 -0.7816
 8679TIP3   OH247451   2.155   6.387   0.163 -0.1556 -0.2565  0.0928
 8679TIP3    H147452   2.086   6.380   0.230 -0.2010 -2.7176 -0.1098
 8679TIP3    H247453   2.133   6.466   0.115 -1.5895  0.2022  1.4017
 8680TIP3   OH247454   6.387   1.378  15.447  0.2678  0.3360  0.4350
 8680TIP3    H147455   6.392   1.369  15.542  0.2086  1.6263  0.5770
 8680TIP3    H247456   6.444   1.308  15.413  0.2224 -0.1881  1.4033
 8681TIP3   OH247457   4.076   0.944   4.031  0.3984 -0.3372 -0.3444
 8681TIP3    H147458   4.005   0.955   4.095  1.4268  1.0706  0.5886
 8681TIP3    H247459   4.075   0.850   4.011 -0.8267 -0.5732  0.6935
 8682TIP3   OH247460   2.188   6.075  12.535  0.3182  0.2716  0.1820
 8682TIP3    H147461   2.155   6.002  12.587  2.0485 -0.4082  0.3837
 8682TIP3    H247462   2.251   6.036  12.475 -0.2364  1.3249 -1.1368
 8683TIP3   OH247463   3.981   6.355  16.336  0.2863  0.2411 -0.8182
 8683TIP3    H147464   3.994   6.369  16.430  1.6543  1.0910 -1.1045
 8683TIP3    H247465   3.912   6.288  16.331  0.5590 -0.2071  0.7929
 8684TIP3   OH247466   5.415   6.105  11.995  0.2435  0.3632 -0.2290
 8684TIP3    H147467   5.348   6.042  12.023 -0.9153  1.3889 -0.5595
 8684TIP3    H247468   5.498   6.060  12.009 -0.5733 -1.8161 -1.8908
 8685TIP3   OH247469   6.297   0.943   6.078  0.2437  0.3772  0.2130
 8685TIP3    H147470   6.214   0.951   6.123  0.5110  1.6606  0.5094
 8685TIP3    H247471   6.363   0.961   6.145  0.7612 -0.4644 -0.0529
 8686TIP3   OH247472   2.851   3.340   0.181 -0.2576  0.7928 -0.0654
 8686TIP3    H147473   2.836   3.267   0.121 -0.8446  1.0672 -0.2540
 8686TIP3    H247474   2.881   3.412   0.125  0.3549  0.6902  0.1244
 8687TIP3   OH247475   3.893   5.439  12.356 -0.1868 -0.1652  0.2522
 8687TIP3    H147476   3.937   5.382  12.419 -0.7609 -0.5341  0.3263
 8687TIP3    H247477   3.810   5.395  12.337 -0.8869  0.8968  0.7265
 8688TIP3   OH247478   6.729   6.428   5.497 -0.2714 -0.5909  0.3230
 8688TIP3    H147479   6.783   6.508   5.495  0.5578 -1.0869  1.5225
 8688TIP3    H247480   6.665   6.441   5.427  1.8869 -0.3214 -1.7243
 8689TIP3   OH247481   4.342   0.597   2.522  0.5536  0.1009  0.0782
 8689TIP3    H147482   4.338   0.650   2.601  0.9779  1.8977 -1.0306
 8689TIP3    H247483   4.434   0.570   2.516  1.1191  2.0025 -0.9699
 8690TIP3   OH247484   4.016   3.134  15.968 -0.1882 -0.2194  0.7356
 8690TIP3    H147485   3.952   3.077  16.010  1.7247 -2.7590  0.4619
 8690TIP3    H247486   4.087   3.143  16.032  0.0968  0.8944  0.2948
 8691TIP3   OH247487   5.669   0.769   3.244 -0.2131 -0.1084  0.1467
 8691TIP3    H147488   5.611   0.783   3.319 -0.9334 -1.2001 -0.1875
 8691TIP3    H247489   5.612   0.773   3.168  0.5835  1.4086 -0.3990
 8692TIP3   OH247490   1.496   3.994   5.154  0.1555 -0.1614 -0.4669
 8692TIP3    H147491   1.559   4.054   5.193 -0.2571  0.8446 -1.3124
 8692TIP3    H247492   1.504   3.914   5.207  2.1621 -0.0956 -0.5952
 8693TIP3   OH247493   3.293   3.911  11.521  0.2426  0.5837 -0.3539
 8693TIP3    H147494   3.351   3.929  11.594  1.7665 -0.6350 -1.2127
 8693TIP3    H247495   3.320   3.973  11.453 -1.4265  1.9841  0.1797
 8694TIP3   OH247496   6.467   4.643   2.913  0.2235 -0.1593  0.7655
 8694TIP3    H147497   6.456   4.738   2.903 -1.3454 -0.2868  0.9877
 8694TIP3    H247498   6.462   4.629   3.008  2.2845 -0.2977  0.8926
 8695TIP3   OH247499   6.247   2.929  11.432 -0.1842 -0.0299  0.1244
 8695TIP3    H147500   6.236   2.836  11.453  1.3604 -0.2500  0.0758
 8695TIP3    H247501   6.319   2.958  11.489 -1.3889  1.4354  0.9569
 8696TIP3   OH247502   6.509   1.099   1.275  0.2622  0.7131 -0.1812
 8696TIP3    H147503   6.585   1.127   1.225  0.0449 -1.0440 -1.6058
 8696TIP3    H247504   6.434   1.139   1.230  0.2170  0.9708  0.1196
 8697TIP3   OH247505   1.764   0.230  14.738  0.3100  0.2304 -0.1585
 8697TIP3    H147506   1.773   0.136  14.754  2.1145  0.4138  0.1018
 8697TIP3    H247507   1.766   0.269  14.826  1.4651  0.6295 -0.3513
 8698TIP3   OH247508   5.746   0.952   2.193  0.3248  0.2302 -0.1749
 8698TIP3    H147509   5.692   1.014   2.242  1.0382 -0.7747  2.0158
 8698TIP3    H247510   5.685   0.910   2.133 -1.0898  0.0633  1.3011
 8699TIP3   OH247511   1.399   4.580  14.205  0.1815  0.8266  0.3373
 8699TIP3    H147512   1.338   4.544  14.141  1.0802  1.5496 -0.9963
 8699TIP3    H247513   1.473   4.610  14.152  1.7405 -0.1112  1.9067
 8700TIP3   OH247514   6.615   6.090  16.185  0.0384  0.1380 -0.0338
 8700TIP3    H147515   6.605   6.185  16.192  0.2413  0.1453  0.1719
 8700TIP3    H247516   6.654   6.076  16.099  0.2660  0.2643  0.0463
 8701TIP3   OH247517   3.594   5.911   5.156 -1.1447  0.8023  0.2939
 8701TIP3    H147518   3.600   6.005   5.172  0.8632  0.5744  1.2892
 8701TIP3    H247519   3.651   5.896   5.081 -1.3700  0.3770  0.2074
 8702TIP3   OH247520   2.058   3.938  13.311  0.4589  1.0312 -0.2037
 8702TIP3    H147521   1.994   4.009  13.311  0.1840  0.7892  0.5013
 8702TIP3    H247522   2.028   3.880  13.240 -0.5764  0.5142  0.6259
 8703TIP3   OH247523   0.160   4.244   2.002 -0.2598  0.2142 -0.5274
 8703TIP3    H147524   0.254   4.265   1.999 -0.7071  2.5210 -0.6038
 8703TIP3    H247525   0.157   4.149   2.008  2.0937  0.0876 -0.2007
 8704TIP3   OH247526   3.822   0.241  16.688 -0.0460 -0.2035 -0.3784
 8704TIP3    H147527   3.853   0.332  16.682  2.0667 -0.9402 -1.8922
 8704TIP3    H247528   3.783   0.235  16.775 -0.0106  2.0770 -0.1333
 8705TIP3   OH247529   3.199   4.838  13.581  0.0748  0.3243 -0.1253
 8705TIP3    H147530   3.145   4.837  13.660  0.3519  1.1848  0.0874
 8705TIP3    H247531   3.228   4.929  13.573  0.8724  0.0328 -0.6637
 8706TIP3   OH247532   4.099   6.280   6.414  0.3914  0.1487  0.1632
 8706TIP3    H147533   4.168   6.218   6.389  0.9594  1.2939 -1.2472
 8706TIP3    H247534   4.083   6.261   6.506  3.1896  0.3453  0.7964
 8707TIP3   OH247535   1.004   4.911  12.639  0.1886 -0.2751 -0.1126
 8707TIP3    H147536   1.055   4.844  12.685  0.6567  0.0215 -0.1861
 8707TIP3    H247537   1.056   4.930  12.560 -0.1819 -0.1710 -0.3338
 8708TIP3   OH247538   6.474   3.457  14.043 -0.0033  0.0400 -0.6811
 8708TIP3    H147539   6.428   3.447  14.127 -1.2777 -1.5351 -1.5286
 8708TIP3    H247540   6.567   3.455  14.067 -0.3325  0.1895  0.7418
 8709TIP3   OH247541   1.811   1.005   2.253  0.5176 -0.0534 -0.2911
 8709TIP3    H147542   1.768   1.077   2.299 -0.3244 -0.6061 -0.2006
 8709TIP3    H247543   1.902   1.009   2.282  0.2802  0.4085  0.4197
 8710TIP3   OH247544   0.891   5.790  13.866  0.7791 -0.3955  0.2327
 8710TIP3    H147545   0.906   5.776  13.960 -3.5390  0.1524  1.2222
 8710TIP3    H247546   0.884   5.885  13.856 -2.0215 -0.5147  0.1630
 8711TIP3   OH247547   2.089   4.319   3.786  0.1103  0.2959  0.0121
 8711TIP3    H147548   2.039   4.338   3.865 -0.2439  0.8383 -0.3324
 8711TIP3    H247549   2.178   4.302   3.817  0.1531  1.2758  0.4730
 8712TIP3   OH247550   5.416   5.508   5.332  0.5602 -0.4125  0.4394
 8712TIP3    H147551   5.428   5.580   5.271  2.9209  0.1307  1.4292
 8712TIP3    H247552   5.372   5.547   5.407 -0.2478 -0.5504  0.0440
 8713TIP3   OH247553   4.302   4.914   5.068  0.0534 -0.0366 -0.2827
 8713TIP3    H147554   4.294   4.826   5.031  1.1140 -0.6508  0.8587
 8713TIP3    H247555   4.385   4.912   5.115  1.1419  2.2675 -1.9562
 8714TIP3   OH247556   1.575   5.432   1.941 -0.5951  0.6444 -0.6391
 8714TIP3    H147557   1.538   5.471   2.021  1.0923  0.4088  0.2975
 8714TIP3    H247558   1.529   5.476   1.870 -3.2011 -0.1260  0.4108
 8715TIP3   OH247559   1.504   1.444   2.449 -0.8073  0.3207  0.2099
 8715TIP3    H147560   1.558   1.523   2.453  0.9799 -0.8571  1.0813
 8715TIP3    H247561   1.454   1.452   2.368  0.4208  1.6622 -0.4498
 8716TIP3   OH247562   3.311   1.946  15.713  0.2186  0.7337  0.4695
 8716TIP3    H147563   3.386   1.986  15.669 -0.3255  0.0379 -1.1937
 8716TIP3    H247564   3.245   2.015  15.715 -0.4535  0.2258 -1.7099
 8717TIP3   OH247565   2.729   6.616   1.172  0.3306 -0.3494 -0.2978
 8717TIP3    H147566   2.643   6.580   1.193  0.4688 -1.4864 -1.5545
 8717TIP3    H247567   2.751   6.672   1.247 -1.7517  0.4492 -0.2303
 8718TIP3   OH247568   3.514   1.953   0.311 -0.2970 -0.1650 -0.3621
 8718TIP3    H147569   3.560   1.934   0.393 -1.3354  1.6090  0.7095
 8718TIP3    H247570   3.545   1.887   0.250  0.8627 -1.2697  1.3332
 8719TIP3   OH247571   6.536   0.157  16.889  0.2789  0.4979 -0.4743
 8719TIP3    H147572   6.501   0.132  16.803  0.2869 -0.6967 -0.1476
 8719TIP3    H247573   6.574   0.076  16.924  1.5972  1.3047  0.0372
 8720TIP3   OH247574   2.855   0.154  11.932 -0.2546 -1.0148 -0.0401
 8720TIP3    H147575   2.769   0.167  11.893 -0.7514  1.3866  1.6433
 8720TIP3    H247576   2.894   0.241  11.934  1.9166 -1.9275 -0.0529
 8721TIP3   OH247577   0.916   5.271   2.913 -0.8071 -0.1115 -0.0689
 8721TIP3    H147578   0.848   5.222   2.958 -0.5335  0.0465  0.5359
 8721TIP3    H247579   0.998   5.238   2.950 -0.5911  0.3111 -0.1543
 8722TIP3   OH247580   0.297   6.241   1.991  0.1369  0.1603  0.0386
 8722TIP3    H147581   0.288   6.331   1.959 -2.7030  0.3045  0.9562
 8722TIP3    H247582   0.354   6.247   2.067  0.8959  0.9807 -0.5804
 8723TIP3   OH247583   1.754   6.169  16.791  1.1652 -0.4847 -0.1188
 8723TIP3    H147584   1.755   6.165  16.887 -1.4079 -0.8497 -0.0515
 8723TIP3    H247585   1.846   6.180  16.767  1.7163  1.9097  2.4858
 8724TIP3   OH247586   0.964   1.222  14.024 -0.0516 -0.0559 -0.5066
 8724TIP3    H147587   0.917   1.298  14.058 -3.1095 -1.6819 -0.7267
 8724TIP3    H247588   0.980   1.168  14.101 -1.5771 -0.9778 -0.7850
 8725TIP3   OH247589   2.437   1.408  13.718  0.4108 -0.5595  0.1700
 8725TIP3    H147590   2.374   1.345  13.681 -0.6070  0.3394  0.3077
 8725TIP3    H247591   2.523   1.372  13.696 -0.1568 -1.1368 -1.2283
 8726TIP3   OH247592   4.963   0.239  16.110 -0.3739 -0.4077  0.2878
 8726TIP3    H147593   4.995   0.184  16.038  2.0666  0.7160  0.4070
 8726TIP3    H247594   5.030   0.232  16.177 -1.9037 -0.2816  1.8984
 8727TIP3   OH247595   4.370   6.038   2.491  0.0635 -0.0436 -0.2448
 8727TIP3    H147596   4.377   6.133   2.482 -0.1145  0.1721  1.4887
 8727TIP3    H247597   4.461   6.008   2.491  0.2029  0.3275  0.7794
 8728TIP3   OH247598   3.217   2.329  16.491  0.2403 -0.2135 -0.4193
 8728TIP3    H147599   3.152   2.380  16.442 -0.1586 -0.3232 -0.0164
 8728TIP3    H247600   3.186   2.332  16.582 -0.0571 -1.5644 -0.4540
 8729TIP3   OH247601   2.254   2.000  12.651 -0.8456  0.2817 -0.1989
 8729TIP3    H147602   2.190   2.071  12.663  0.6061  1.8014 -1.0137
 8729TIP3    H247603   2.333   2.031  12.695  0.6039  0.3561 -2.6479
 8730TIP3   OH247604   5.180   6.408  16.755 -0.0283 -0.3740  0.1932
 8730TIP3    H147605   5.198   6.471  16.825 -1.1384 -0.9090  1.0078
 8730TIP3    H247606   5.176   6.461  16.676 -2.2183  0.8508  1.0173
 8731TIP3   OH247607   3.537   5.684  16.703  0.2574  0.2389  0.0756
 8731TIP3    H147608   3.546   5.626  16.627 -0.5485  0.5478 -0.2695
 8731TIP3    H247609   3.617   5.671  16.753  0.3550 -0.7209 -0.3117
 8732TIP3   OH247610   0.484   1.507  12.761  0.3875  1.0231 -0.3850
 8732TIP3    H147611   0.547   1.438  12.782  0.3123  1.1855  0.4209
 8732TIP3    H247612   0.408   1.461  12.726 -0.0502  0.5925  1.0700
 8733TIP3   OH247613   2.036   0.505   0.476 -0.0423  0.0793  0.2681
 8733TIP3    H147614   1.943   0.527   0.480  0.2655  1.4894  3.2562
 8733TIP3    H247615   2.066   0.515   0.567  2.9369 -0.7557 -0.5189
 8734TIP3   OH247616   5.827   4.323   3.755 -0.4456  0.1539 -0.4191
 8734TIP3    H147617   5.826   4.406   3.708  2.0396  1.1197  1.0018
 8734TIP3    H247618   5.870   4.262   3.695 -1.0101  0.2492 -0.9317
 8735TIP3   OH247619   5.630   3.347   5.101  0.0467  0.1709 -0.2436
 8735TIP3    H147620   5.595   3.364   5.189  0.4561 -1.8223  0.3575
 8735TIP3    H247621   5.567   3.389   5.042 -3.8172 -3.4920  0.7321
 8736TIP3   OH247622   6.528   5.134  14.360 -0.0454 -0.1204 -0.4350
 8736TIP3    H147623   6.615   5.100  14.379 -0.4608 -0.9304  0.0415
 8736TIP3    H247624   6.544   5.221  14.323  1.0181 -0.6717 -1.3299
 8737TIP3   OH247625   0.560   4.384   2.509 -0.3861  0.5637  0.5633
 8737TIP3    H147626   0.630   4.328   2.477  0.0743  0.2841  2.0111
 8737TIP3    H247627   0.575   4.390   2.604 -0.3245  3.2696  0.4449
 8738TIP3   OH247628   6.180   1.081  15.043  0.0536 -0.5101 -0.1710
 8738TIP3    H147629   6.164   1.159  15.096  0.0160  0.3330 -1.3837
 8738TIP3    H247630   6.274   1.082  15.026 -0.0510 -0.3612 -0.7458
 8739TIP3   OH247631   0.678   0.131  16.900  0.5715 -0.3881  0.3453
 8739TIP3    H147632   0.625   0.108  16.824  0.6115  2.0593 -0.5091
 8739TIP3    H247633   0.632   0.205  16.939  2.8691  1.2668  0.0718
 8740TIP3   OH247634   2.238   4.174   2.048  0.6761 -0.1942  0.6237
 8740TIP3    H147635   2.291   4.254   2.058  0.9598 -0.2608 -0.2659
 8740TIP3    H247636   2.292   4.105   2.087  0.9643 -0.1467  0.3187
 8741TIP3   OH247637   1.360   0.505  14.005 -0.0410  0.5836  0.4763
 8741TIP3    H147638   1.280   0.459  13.982 -1.2679  2.8328 -0.0919
 8741TIP3    H247639   1.342   0.543  14.091  0.6711  0.5684  0.6370
 8742TIP3   OH247640   1.921   5.446  10.802  0.0139  0.1201 -0.1276
 8742TIP3    H147641   1.886   5.516  10.857  0.3087  0.5055 -0.4306
 8742TIP3    H247642   1.892   5.365  10.845  0.2497  0.4165  0.5945
 8743TIP3   OH247643   4.896   1.766   0.367 -0.0485 -0.5511 -0.4277
 8743TIP3    H147644   4.977   1.726   0.337 -0.1987  0.1234 -1.7827
 8743TIP3    H247645   4.899   1.856   0.334  0.5726  0.8910  3.0577
 8744TIP3   OH247646   1.705   0.374  11.985 -0.4544  0.7891  0.1827
 8744TIP3    H147647   1.764   0.448  11.972 -1.9893  1.9734 -0.2907
 8744TIP3    H247648   1.719   0.319  11.908 -0.3505  1.3096 -0.1711
 8745TIP3   OH247649   4.686   2.479   0.633  0.5067 -0.2868 -0.1271
 8745TIP3    H147650   4.601   2.435   0.634  0.1709  0.3328  1.6983
 8745TIP3    H247651   4.737   2.434   0.699  1.8557 -1.0602 -1.6451
 8746TIP3   OH247652   2.886   2.205  13.152  0.3116  0.4769  0.0523
 8746TIP3    H147653   2.832   2.281  13.167 -0.2718 -0.1975  1.5192
 8746TIP3    H247654   2.976   2.236  13.165  0.2261  1.3176 -1.2183
 8747TIP3   OH247655   3.053   1.637  11.866  0.2463 -0.2720  0.3240
 8747TIP3    H147656   3.094   1.587  11.796  0.4429  0.6284 -0.2272
 8747TIP3    H247657   3.004   1.573  11.917  1.2118 -1.1421  0.1658
 8748TIP3   OH247658   5.297   2.999  13.201 -0.1371 -0.3499 -0.3767
 8748TIP3    H147659   5.289   2.990  13.296 -0.5284  0.1694 -0.3550
 8748TIP3    H247660   5.356   3.073  13.188  0.8911 -1.1807 -0.5467
 8749TIP3   OH247661   3.019   3.456  14.687 -0.2062  0.0839  0.1472
 8749TIP3    H147662   3.099   3.506  14.671 -0.4647  0.5255  0.2153
 8749TIP3    H247663   3.039   3.368  14.653  0.7387 -0.1681  1.2630
 8750TIP3   OH247664   3.295   6.729  10.678  0.5914  0.0805  0.2216
 8750TIP3    H147665   3.362   6.669  10.711 -0.7613 -1.1056  0.9302
 8750TIP3    H247666   3.218   6.674  10.664 -0.5955  1.5709  0.5290
 8751TIP3   OH247667   5.521   0.780  15.608  0.5524  0.1326  0.1995
 8751TIP3    H147668   5.586   0.710  15.610  0.6981  0.2942  1.5172
 8751TIP3    H247669   5.496   0.786  15.515  0.1297 -2.0137  0.1289
 8752TIP3   OH247670   2.743   3.287   3.277  0.0521 -0.0380  0.0642
 8752TIP3    H147671   2.775   3.374   3.300  1.7960 -0.4408 -0.6928
 8752TIP3    H247672   2.706   3.253   3.358  0.6793  0.8556  0.7440
 8753TIP3   OH247673   6.338   4.865   0.979 -0.5505  0.1608  0.1727
 8753TIP3    H147674   6.400   4.797   1.004  0.1626 -0.3223 -2.5735
 8753TIP3    H247675   6.392   4.940   0.953 -1.2726  1.0998  1.2626
 8754TIP3   OH247676   0.740   3.359  14.528 -0.4898  0.0618  0.0846
 8754TIP3    H147677   0.834   3.343  14.535 -0.4347  0.1083 -0.5392
 8754TIP3    H247678   0.713   3.381  14.618  0.1353  0.3013  0.2195
 8755TIP3   OH247679   3.263   5.401  16.379 -0.1191  0.0266  0.3834
 8755TIP3    H147680   3.317   5.322  16.378 -2.3402 -1.7188  2.6630
 8755TIP3    H247681   3.174   5.368  16.395 -1.7827  2.7779 -2.1722
 8756TIP3   OH247682   5.667   0.369   2.097 -0.0775 -0.1072 -0.2065
 8756TIP3    H147683   5.713   0.291   2.129 -0.3614 -0.2901 -0.2397
 8756TIP3    H247684   5.646   0.418   2.176  2.2617  1.1838 -0.3024
 8757TIP3   OH247685   3.589   2.116  13.380 -0.9551  0.2731  0.1795
 8757TIP3    H147686   3.654   2.177  13.343 -0.3444 -0.9486 -0.8604
 8757TIP3    H247687   3.510   2.132  13.328  0.2039 -2.2091 -2.6624
 8758TIP3   OH247688   6.285   1.084  12.785 -0.1387 -0.0433  0.0186
 8758TIP3    H147689   6.280   1.030  12.864 -2.5849 -0.8074 -0.5713
 8758TIP3    H247690   6.349   1.040  12.729  0.5994 -0.2527  1.0064
 8759TIP3   OH247691   2.107   2.168   0.774  0.4742 -0.5064 -0.6706
 8759TIP3    H147692   2.032   2.225   0.792  1.8134  2.0577 -2.5370
 8759TIP3    H247693   2.080   2.114   0.700 -0.5643 -1.9223  0.6763
 8760TIP3   OH247694   5.177   5.234   3.312 -0.6653  0.1442 -0.6033
 8760TIP3    H147695   5.199   5.324   3.290 -0.5557  0.1536 -0.4551
 8760TIP3    H247696   5.130   5.201   3.236  0.4865 -0.1128 -1.2267
 8761TIP3   OH247697   6.174   2.315   1.187  0.7249 -0.3769  0.6543
 8761TIP3    H147698   6.173   2.410   1.174  0.7919 -0.5990 -1.2577
 8761TIP3    H247699   6.265   2.290   1.168  0.7918 -0.8180  1.4763
 8762TIP3   OH247700   3.778   2.715   6.308 -0.1285 -0.0224  0.1565
 8762TIP3    H147701   3.697   2.685   6.266  0.3526 -1.4950  0.2401
 8762TIP3    H247702   3.831   2.636   6.317  1.7989  1.0637 -0.9243
 8763TIP3   OH247703   4.110   5.932   6.129 -0.5271 -0.4114  0.4534
 8763TIP3    H147704   4.111   5.935   6.225 -1.4256 -1.1160  0.4940
 8763TIP3    H247705   4.049   6.001   6.103 -0.6622 -0.5463  0.4109
 8764TIP3   OH247706   6.364   1.336  11.261  0.8614 -0.3030  0.8297
 8764TIP3    H147707   6.446   1.357  11.217  0.5204 -1.2180 -0.3017
 8764TIP3    H247708   6.384   1.259  11.314  1.1297  0.4545  1.8375
 8765TIP3   OH247709   4.123   0.935   0.844 -0.0868  0.0885 -0.3262
 8765TIP3    H147710   4.031   0.934   0.818 -0.3147  0.5057  0.4431
 8765TIP3    H247711   4.131   0.863   0.906  0.5338 -1.1243 -1.7513
 8766TIP3   OH247712   1.453   3.122  16.209 -0.2668 -0.2088  0.1760
 8766TIP3    H147713   1.524   3.180  16.235 -0.5796  0.2733 -0.0395
 8766TIP3    H247714   1.420   3.159  16.128  0.0135 -1.1111 -0.3596
 8767TIP3   OH247715   2.449   4.937  15.022 -0.5533  0.5618 -0.0849
 8767TIP3    H147716   2.440   4.855  14.973  1.0625  0.3205 -0.0403
 8767TIP3    H247717   2.484   4.911  15.107 -0.5506  1.2607  0.1403
 8768TIP3   OH247718   2.091   2.831  16.034 -0.0078 -0.0220 -0.1848
 8768TIP3    H147719   2.017   2.890  16.021  0.7605  0.6514 -1.8434
 8768TIP3    H247720   2.057   2.760  16.089 -0.5967  2.6064  3.1783
 8769TIP3   OH247721   4.223   2.849  14.260 -0.0483 -0.2174 -0.2546
 8769TIP3    H147722   4.288   2.787  14.226 -0.9631 -0.5387 -1.4616
 8769TIP3    H247723   4.259   2.878  14.344  2.3808  0.7133 -1.5157
 8770TIP3   OH247724   0.693   4.733   4.704  0.2884  0.4887  0.1813
 8770TIP3    H147725   0.607   4.772   4.716 -0.0179 -0.5415  1.7197
 8770TIP3    H247726   0.709   4.685   4.786  2.1697  0.3713 -0.2016
 8771TIP3   OH247727   4.161   5.028  13.101 -0.3515 -0.3510 -0.1310
 8771TIP3    H147728   4.239   4.981  13.131 -1.2461 -1.1572  1.0266
 8771TIP3    H247729   4.116   5.055  13.182 -0.6560  1.1857 -0.7722
 8772TIP3   OH247730   3.172   5.473  13.112 -0.1430 -0.0847  0.2501
 8772TIP3    H147731   3.122   5.407  13.161 -0.0961 -0.1631  0.1919
 8772TIP3    H247732   3.142   5.557  13.148 -0.1025 -0.1421  0.4219
 8773TIP3   OH247733   6.121   6.776  13.536  0.0577 -0.4856 -0.1662
 8773TIP3    H147734   6.064   6.752  13.609  0.5600 -0.7749  0.1353
 8773TIP3    H247735   6.197   6.718  13.544  0.6894  0.3197 -0.1941
 8774TIP3   OH247736   1.236   3.975   5.071 -0.0054  0.5317 -0.0682
 8774TIP3    H147737   1.203   4.061   5.047 -0.8576 -0.1691 -1.6082
 8774TIP3    H247738   1.316   3.992   5.121 -1.8892  2.2825  2.6485
 8775TIP3   OH247739   0.930   1.187   2.583 -0.1041  0.5717 -0.4128
 8775TIP3    H147740   0.993   1.130   2.540 -0.9613  0.0125 -0.9557
 8775TIP3    H247741   0.981   1.232   2.651  1.2959  1.5605 -2.0448
 8776TIP3   OH247742   4.408   3.400  12.730 -0.4624  0.5432 -0.3325
 8776TIP3    H147743   4.492   3.393  12.776 -1.4349  0.3583  1.4887
 8776TIP3    H247744   4.403   3.493  12.705  0.5780  0.4172 -1.1119
 8777TIP3   OH247745   2.123   3.192  14.171 -0.0180 -0.1065  0.4349
 8777TIP3    H147746   2.150   3.101  14.157 -0.3552 -0.1220 -0.1740
 8777TIP3    H247747   2.028   3.187  14.182 -0.0249  0.1610  0.4967
 8778TIP3   OH247748   3.542   1.371  17.126  0.6584 -0.0863 -0.5080
 8778TIP3    H147749   3.526   1.329  17.041 -1.1655 -0.0473 -0.2117
 8778TIP3    H247750   3.473   1.337  17.183  2.0468 -0.3712  1.0852
 8779TIP3   OH247751   0.792   5.589  16.673  0.0293 -0.2421 -0.3381
 8779TIP3    H147752   0.794   5.497  16.701  2.0020 -1.1572 -3.0298
 8779TIP3    H247753   0.717   5.594  16.614  0.1866 -0.2285 -0.5364
 8780TIP3   OH247754   3.206   0.184  13.153  0.1381  0.1970 -0.3877
 8780TIP3    H147755   3.124   0.183  13.202  0.0045  2.8270 -0.3860
 8780TIP3    H247756   3.270   0.217  13.217  0.6382  0.5688 -1.0747
 8781TIP3   OH247757   6.570   0.606  16.461 -0.7223  0.4687  0.6196
 8781TIP3    H147758   6.597   0.521  16.495  0.6134  0.1049 -1.1734
 8781TIP3    H247759   6.489   0.589  16.414 -0.4919  0.1708  0.3190
 8782TIP3   OH247760   6.582   4.854   4.482  0.2893  0.1112  0.3704
 8782TIP3    H147761   6.607   4.926   4.424 -1.7398 -0.2656 -1.0999
 8782TIP3    H247762   6.505   4.887   4.529  1.4069  0.0997  2.2786
 8783TIP3   OH247763   0.683   3.199  16.629  0.1990 -0.0359  0.1846
 8783TIP3    H147764   0.738   3.274  16.609  1.4968 -0.8423  0.6402
 8783TIP3    H247765   0.678   3.150  16.547 -0.6921  0.5466 -0.1280
 8784TIP3   OH247766   4.011   4.890  11.723  0.0719 -0.2178  0.1430
 8784TIP3    H147767   4.013   4.881  11.818 -1.2075 -0.8788  0.1403
 8784TIP3    H247768   3.986   4.981  11.708  0.9429  0.0752  0.4155
 8785TIP3   OH247769   3.151   0.071  12.284 -1.0314 -0.0431 -0.0223
 8785TIP3    H147770   3.096   0.030  12.217 -0.8725  0.0547 -0.2103
 8785TIP3    H247771   3.210   0.002  12.313 -2.4075 -0.6678  1.4336
 8786TIP3   OH247772   5.567   4.305   0.990 -0.0037 -0.3950 -0.1687
 8786TIP3    H147773   5.488   4.256   0.968  0.7340 -1.7747  0.1299
 8786TIP3    H247774   5.607   4.325   0.906  0.1083 -1.0302 -0.2703
 8787TIP3   OH247775   2.058   0.851   0.128 -0.5496  0.0499  0.3015
 8787TIP3    H147776   2.000   0.908   0.078  0.8376  0.7631 -0.5579
 8787TIP3    H247777   2.080   0.900   0.207 -0.1368  0.3089  0.0296
 8788TIP3   OH247778   0.454   0.093   3.125 -0.4949 -0.7506  0.2436
 8788TIP3    H147779   0.424   0.003   3.142 -0.0174 -0.7816  0.9741
 8788TIP3    H247780   0.381   0.148   3.155 -0.7774 -0.8929 -0.1792
 8789TIP3   OH247781   4.876   3.819   1.880 -0.1266  0.0616 -0.2200
 8789TIP3    H147782   4.881   3.774   1.796 -2.0948 -0.4876 -0.0742
 8789TIP3    H247783   4.912   3.757   1.943  2.7956  1.0319 -0.7653
 8790TIP3   OH247784   3.553   1.721  12.851 -0.3189  0.0633  0.3139
 8790TIP3    H147785   3.540   1.631  12.820 -2.6177  0.3831  0.1400
 8790TIP3    H247786   3.567   1.771  12.771  2.6094 -0.2924  0.5076
 8791TIP3   OH247787   5.810   4.446   1.054  0.1949  0.3903 -0.4931
 8791TIP3    H147788   5.883   4.396   1.017 -0.0736 -1.6026  1.4618
 8791TIP3    H247789   5.733   4.390   1.042 -0.1501  0.3202  1.6099
 8792TIP3   OH247790   1.063   3.300  12.037  0.1930 -0.8841  0.5483
 8792TIP3    H147791   1.071   3.213  12.076  0.7521 -1.3489 -0.5552
 8792TIP3    H247792   1.108   3.292  11.953 -0.1984  0.3341  0.2133
 8793TIP3   OH247793   0.744   4.462   3.762  0.1898  0.1437  0.4636
 8793TIP3    H147794   0.666   4.516   3.776  0.5559  0.5650  0.9121
 8793TIP3    H247795   0.783   4.496   3.681  0.1495  0.2142  0.4746
 8794TIP3   OH247796   1.441   6.703  12.084  0.0931 -0.3566  0.3376
 8794TIP3    H147797   1.494   6.781  12.071 -0.2203  0.1175  1.7881
 8794TIP3    H247798   1.355   6.725  12.047  0.9469 -1.2845 -2.4301
 8795TIP3   OH247799   0.228   4.312   2.778 -0.1516 -0.5613 -0.2783
 8795TIP3    H147800   0.306   4.297   2.726  0.6516 -0.7247  0.9219
 8795TIP3    H247801   0.162   4.343   2.716  0.4633 -1.6691 -1.5220
 8796TIP3   OH247802   1.552   2.744   3.643 -0.4766  0.0442 -0.3092
 8796TIP3    H147803   1.567   2.685   3.569 -0.1280  0.3471 -0.4872
 8796TIP3    H247804   1.577   2.693   3.720  3.1871  1.0005 -0.6681
 8797TIP3   OH247805   5.956   4.442  12.634  0.0093 -0.1299 -0.0700
 8797TIP3    H147806   6.043   4.408  12.611  0.0173  0.3450 -0.8051
 8797TIP3    H247807   5.924   4.480  12.552 -1.6549 -1.8697 -0.3135
 8798TIP3   OH247808   2.672   4.827   0.579 -0.8676  0.3491  0.7018
 8798TIP3    H147809   2.757   4.798   0.614 -1.4359 -1.3457  0.7632
 8798TIP3    H247810   2.615   4.751   0.590 -1.7372  0.5940 -1.6161
 8799TIP3   OH247811   0.796   5.568  17.090  0.5531  0.4641 -0.0674
 8799TIP3    H147812   0.795   5.662  17.110 -0.7999  0.1497  1.4873
 8799TIP3    H247813   0.874   5.557  17.035 -0.8958  2.9758 -2.9517
 8800TIP3   OH247814   4.164   6.604  12.920  0.1123 -0.6333 -0.2564
 8800TIP3    H147815   4.165   6.699  12.908 -0.0447 -0.2740  2.0781
 8800TIP3    H247816   4.144   6.569  12.834 -0.3778  1.4764 -1.0615
 8801TIP3   OH247817   2.376   3.115  12.604  0.0989  0.5696 -0.2346
 8801TIP3    H147818   2.428   3.171  12.661  0.0072  0.2215  0.1981
 8801TIP3    H247819   2.322   3.064  12.664  0.6490 -0.4447 -0.5796
 8802TIP3   OH247820   0.204   3.390   4.000  0.4053  0.1876  0.0354
 8802TIP3    H147821   0.120   3.423   4.030  1.4812  0.8931  2.5708
 8802TIP3    H247822   0.201   3.296   4.017 -0.5637 -0.1506 -1.8043
 8803TIP3   OH247823   4.267   5.625  15.421 -0.3451  0.0683 -0.9949
 8803TIP3    H147824   4.243   5.553  15.480  0.0537 -0.0515 -0.9756
 8803TIP3    H247825   4.316   5.583  15.351 -0.2244  0.3081 -1.0533
 8804TIP3   OH247826   1.805   3.746   5.231  0.2984 -0.7050  0.5756
 8804TIP3    H147827   1.851   3.669   5.196 -0.1931 -0.8029  0.1407
 8804TIP3    H247828   1.875   3.808   5.249  0.6546 -1.0388  0.3794
 8805TIP3   OH247829   1.662   6.182  12.688 -0.4917 -0.0385  0.5318
 8805TIP3    H147830   1.632   6.091  12.684  1.7966 -0.9375  1.4034
 8805TIP3    H247831   1.677   6.197  12.782 -1.5597  1.5178  0.4701
 8806TIP3   OH247832   5.732   5.566   2.937  0.1885 -0.1176 -0.0421
 8806TIP3    H147833   5.708   5.474   2.926  4.0106 -1.1222 -1.2059
 8806TIP3    H247834   5.774   5.569   3.023  2.4554 -0.1201 -1.1007
 8807TIP3   OH247835   3.159   5.544   5.081  0.1224 -0.8710  0.1333
 8807TIP3    H147836   3.129   5.454   5.067 -1.8927 -0.2538  0.1958
 8807TIP3    H247837   3.097   5.598   5.031  1.1476  0.5080  0.2955
 8808TIP3   OH247838   0.784   0.429   5.786  0.2513  0.4389 -0.0514
 8808TIP3    H147839   0.766   0.429   5.880 -0.3678 -0.2118 -0.1647
 8808TIP3    H247840   0.708   0.473   5.747 -0.1212 -0.4571 -0.3534
 8809TIP3   OH247841   2.304   0.338  15.857 -0.1173  0.8497  0.5319
 8809TIP3    H147842   2.242   0.388  15.804 -0.9888 -0.1536  0.5628
 8809TIP3    H247843   2.308   0.252  15.815 -0.6622  0.1050  1.9242
 8810TIP3   OH247844   1.971   2.630  11.191  0.0860 -0.1395  0.1050
 8810TIP3    H147845   1.918   2.704  11.221  0.9865  0.6421 -0.1692
 8810TIP3    H247846   1.978   2.642  11.097  1.6415  0.3963  0.2632
 8811TIP3   OH247847   4.155   3.186  13.122 -0.0499  0.1104 -0.1828
 8811TIP3    H147848   4.133   3.109  13.070  0.6786 -0.7233  0.6978
 8811TIP3    H247849   4.198   3.151  13.200 -3.2489  1.1239  2.2370
 8812TIP3   OH247850   3.779   2.169   3.743 -0.1304  0.6929 -0.1511
 8812TIP3    H147851   3.786   2.105   3.672 -1.0477  0.5750 -0.1520
 8812TIP3    H247852   3.838   2.138   3.811  0.7353  0.7846 -0.8407
 8813TIP3   OH247853   4.581   1.067   3.153 -0.5258  0.2924  0.4442
 8813TIP3    H147854   4.524   1.011   3.100  0.8898 -0.6149 -0.1572
 8813TIP3    H247855   4.591   1.020   3.236  0.5614 -0.3072 -0.0145
 8814TIP3   OH247856   3.357   3.462   4.475  0.3142  0.0070  0.4786
 8814TIP3    H147857   3.301   3.404   4.526  0.7534 -1.0120 -0.1707
 8814TIP3    H247858   3.423   3.492   4.537 -0.8103  1.0593  1.1967
 8815TIP3   OH247859   5.891   1.423   3.169 -0.0385  0.3748  0.0550
 8815TIP3    H147860   5.866   1.472   3.090 -0.8628 -0.2194 -0.0738
 8815TIP3    H247861   5.986   1.426   3.170 -0.0159  0.4385 -0.9464
 8816TIP3   OH247862   4.515   2.644  10.943  0.0960  0.1384 -0.5180
 8816TIP3    H147863   4.554   2.558  10.925  0.1303  0.2575 -1.0357
 8816TIP3    H247864   4.430   2.642  10.898 -0.9881 -0.4982  1.4450
 8817TIP3   OH247865   2.201   0.171  13.433 -0.5718 -0.2156 -0.0214
 8817TIP3    H147866   2.209   0.110  13.359  0.9585  1.4367 -1.3271
 8817TIP3    H247867   2.288   0.170  13.474 -0.5163  1.0424 -0.0719
 8818TIP3   OH247868   0.361   4.165   2.408  0.1621 -0.1164  0.2221
 8818TIP3    H147869   0.406   4.149   2.491  1.0198 -0.0606 -0.2180
 8818TIP3    H247870   0.353   4.261   2.402  0.9843 -0.0602 -0.1966
 8819TIP3   OH247871   6.421   0.003   5.685  0.2925  0.0491 -0.1930
 8819TIP3    H147872   6.348  -0.055   5.708 -0.5318  1.1314  0.0412
 8819TIP3    H247873   6.400   0.034   5.597  0.6158  0.1475 -0.2372
 8820TIP3   OH247874   5.795   4.298  12.174  0.2707 -0.7006  0.0165
 8820TIP3    H147875   5.744   4.251  12.107  1.8415 -1.6652 -0.5743
 8820TIP3    H247876   5.884   4.302  12.137  0.1757  3.2849 -0.2404
 8821TIP3   OH247877   6.063   5.918   0.961 -0.0163  0.2072 -0.5293
 8821TIP3    H147878   6.141   5.910   0.907  1.9252  2.2942  1.6935
 8821TIP3    H247879   6.047   6.012   0.966 -1.9219 -0.1168  0.0874
 8822TIP3   OH247880   0.419   0.005   4.634  0.2451 -0.3038  0.2421
 8822TIP3    H147881   0.364   0.083   4.642  1.8004  1.0872 -1.6762
 8822TIP3    H247882   0.414  -0.037   4.720 -1.3183  1.4485  1.0637
 8823TIP3   OH247883   4.000   1.704  11.139  0.6621  0.1646  0.3965
 8823TIP3    H147884   3.908   1.679  11.132  0.7286  0.1974 -1.0390
 8823TIP3    H247885   4.048   1.624  11.121  0.9070  0.1973  0.9153
 8824TIP3   OH247886   1.507   1.199   6.653 -0.3843 -0.4717 -0.0192
 8824TIP3    H147887   1.433   1.247   6.691  0.6037  0.6117  0.6471
 8824TIP3    H247888   1.521   1.240   6.568 -0.0889 -0.1640  0.1755
 8825TIP3   OH247889   6.233   2.290  14.099 -0.0479  0.2578  0.1154
 8825TIP3    H147890   6.210   2.228  14.030  2.7211 -0.2542 -0.4778
 8825TIP3    H247891   6.311   2.252  14.141 -1.3510  0.7597  3.3090
 8826TIP3   OH247892   1.770   5.439  13.077  0.3897 -0.1157 -0.3088
 8826TIP3    H147893   1.702   5.462  13.140  0.7344 -0.5572  0.2357
 8826TIP3    H247894   1.732   5.459  12.992  0.0186  0.7523  0.0482
 8827TIP3   OH247895   0.230   0.188   3.533  0.0851 -0.5999 -0.1606
 8827TIP3    H147896   0.289   0.233   3.594  1.5315  0.0015 -1.9042
 8827TIP3    H247897   0.146   0.184   3.579  1.0371  0.0543  1.7396
 8828TIP3   OH247898   3.361   2.956   3.268  0.3326  1.0047 -0.8442
 8828TIP3    H147899   3.288   2.988   3.215 -0.5494  0.5049  0.0419
 8828TIP3    H247900   3.327   2.953   3.357  0.9245 -0.7383 -0.6386
 8829TIP3   OH247901   5.572   4.098   1.486 -0.0705  0.4534 -0.3595
 8829TIP3    H147902   5.520   4.168   1.527 -1.3022 -1.1158  0.9064
 8829TIP3    H247903   5.512   4.058   1.422  0.1645 -0.2608 -0.1409
 8830TIP3   OH247904   5.052   4.280   5.666  0.8158  0.6489  0.6106
 8830TIP3    H147905   5.065   4.203   5.611  0.0914  1.3854 -0.6279
 8830TIP3    H247906   5.084   4.253   5.753 -1.1257 -1.6806  0.7154
 8831TIP3   OH247907   4.313   1.372   3.599 -0.0945  0.2156 -0.5109
 8831TIP3    H147908   4.254   1.440   3.566  0.8290  0.7301 -1.1612
 8831TIP3    H247909   4.298   1.297   3.542 -1.5185 -0.3563  0.5520
 8832TIP3   OH247910   0.473   6.738   3.448  0.4957 -0.1602  0.3242
 8832TIP3    H147911   0.511   6.733   3.535 -2.1107 -1.9640  1.4851
 8832TIP3    H247912   0.411   6.811   3.453 -0.8310 -1.2563  0.5718
 8833TIP3   OH247913   6.265   1.274   4.856  0.2295  0.2076 -0.3299
 8833TIP3    H147914   6.222   1.308   4.777  0.0211  1.7317  0.4030
 8833TIP3    H247915   6.194   1.260   4.918  0.2942 -1.7873 -0.6490
 8834TIP3   OH247916   3.962   3.903  15.159  0.0911  0.1325 -0.1159
 8834TIP3    H147917   3.920   3.817  15.158  0.4617 -0.0595  0.2942
 8834TIP3    H247918   3.917   3.951  15.229 -2.5167  1.5288 -2.5857
 8835TIP3   OH247919   4.822   0.577   6.024 -0.3730 -0.6010 -0.5430
 8835TIP3    H147920   4.782   0.581   6.111  0.5476 -3.6340  0.1446
 8835TIP3    H247921   4.864   0.663   6.013 -0.9999  0.0809  1.7427
 8836TIP3   OH247922   3.523   2.083   3.436 -0.4041  0.0311  0.1907
 8836TIP3    H147923   3.432   2.060   3.424 -0.6649  1.2320 -0.3421
 8836TIP3    H247924   3.565   2.061   3.353 -0.4961  0.7079 -0.0426
 8837TIP3   OH247925   6.268   0.090   6.642  0.9240  0.7590  0.8606
 8837TIP3    H147926   6.216   0.035   6.700  1.7030  0.7941  1.6237
 8837TIP3    H247927   6.335   0.032   6.607 -1.8075 -0.3349 -3.2705
 8838TIP3   OH247928   6.770   3.840   3.442  0.6845 -0.2617 -0.5177
 8838TIP3    H147929   6.770   3.916   3.501  1.7229  0.0031 -0.8317
 8838TIP3    H247930   6.854   3.797   3.458 -0.2081 -1.8129  0.2156
 8839TIP3   OH247931   5.943   5.595   0.168  0.7650 -0.3480  0.3673
 8839TIP3    H147932   5.995   5.641   0.234  0.1282  0.0161  0.6279
 8839TIP3    H247933   5.863   5.648   0.159 -0.1715 -1.6059  0.9762
 8840TIP3   OH247934   2.513   6.336  14.852  0.1194 -0.1147 -0.4250
 8840TIP3    H147935   2.532   6.430  14.849  2.3997 -0.4026  1.6874
 8840TIP3    H247936   2.598   6.294  14.840 -0.4612 -1.8361  1.0554
 8841TIP3   OH247937   5.618   1.360   4.060  0.3006 -0.7948  0.4528
 8841TIP3    H147938   5.712   1.361   4.043  0.3196 -0.9603  0.5444
 8841TIP3    H247939   5.592   1.452   4.058  0.0182 -0.8737 -1.9948
 8842TIP3   OH247940   1.746   2.426  16.100  0.4370  0.2412  0.9033
 8842TIP3    H147941   1.680   2.439  16.168  1.4252 -1.0890  2.1775
 8842TIP3    H247942   1.739   2.334  16.077 -1.4738  1.0852 -2.5973
 8843TIP3   OH247943   3.693   1.127   3.984 -0.2247  0.7006  0.3594
 8843TIP3    H147944   3.742   1.201   3.949 -0.3523  0.6233  0.0177
 8843TIP3    H247945   3.748   1.093   4.054  0.8792 -0.2648 -0.9311
 8844TIP3   OH247946   2.859   5.338  11.154 -0.1383 -0.3160  0.4830
 8844TIP3    H147947   2.803   5.271  11.115 -1.2970  0.5303  0.6247
 8844TIP3    H247948   2.827   5.420  11.118 -0.9450  0.4765  2.7779
 8845TIP3   OH247949   3.296   1.494   2.976 -0.6452  0.9075  0.7293
 8845TIP3    H147950   3.207   1.477   2.946 -0.7169  1.4366  0.6163
 8845TIP3    H247951   3.294   1.477   3.070 -0.7561  0.5024  0.6509
 8846TIP3   OH247952   6.321   2.537  15.572 -0.1393 -0.3118 -0.3103
 8846TIP3    H147953   6.338   2.627  15.546 -0.4385 -0.5617 -1.3995
 8846TIP3    H247954   6.405   2.505  15.605  0.5070 -0.2869 -1.8802
 8847TIP3   OH247955   6.187   1.680  13.480 -0.2707 -0.3160  0.4450
 8847TIP3    H147956   6.195   1.762  13.527 -2.5178  0.1936  0.0357
 8847TIP3    H247957   6.099   1.649  13.498 -0.7782 -0.7781 -2.2860
 8848TIP3   OH247958   5.550   1.356  13.614 -0.3045  0.5715  0.3294
 8848TIP3    H147959   5.514   1.355  13.525  0.9856  1.6033 -0.2528
 8848TIP3    H247960   5.489   1.410  13.664 -0.1212  1.4872 -0.3927
 8849TIP3   OH247961   0.242   5.960  16.399  0.0277  0.5057 -0.0176
 8849TIP3    H147962   0.189   5.892  16.440  3.2313 -0.8476  2.3335
 8849TIP3    H247963   0.179   6.029  16.376 -3.1273 -2.3488 -0.7956
 8850TIP3   OH247964   1.385   2.277  15.634 -1.2075  0.2645  0.0440
 8850TIP3    H147965   1.324   2.251  15.566  0.6657 -1.5503 -1.0796
 8850TIP3    H247966   1.465   2.302  15.587  0.3891 -1.6993  1.5042
 8851TIP3   OH247967   2.502   5.715   4.611  0.0179 -0.4615 -0.3791
 8851TIP3    H147968   2.535   5.786   4.665  0.3193 -1.0989  0.2840
 8851TIP3    H247969   2.557   5.717   4.532  0.5479 -0.4617 -0.0105
 8852TIP3   OH247970   5.026   4.571  13.270  0.5511 -0.0418 -0.5407
 8852TIP3    H147971   5.095   4.543  13.210  1.5369  1.1074  0.0252
 8852TIP3    H247972   5.013   4.664  13.250 -0.5048 -0.1176 -0.3060
 8853TIP3   OH247973   5.822   3.819  13.017 -0.2181  0.8715 -0.7291
 8853TIP3    H147974   5.747   3.803  13.076  0.9636 -2.3656  0.1114
 8853TIP3    H247975   5.791   3.791  12.931 -0.2623  0.3919 -0.5603
 8854TIP3   OH247976   0.045   4.612   5.086  0.4058 -0.0404  0.1401
 8854TIP3    H147977  -0.001   4.578   5.164 -0.5073 -1.0613 -0.8107
 8854TIP3    H247978   0.025   4.705   5.086  0.9859  0.1197  1.4973
 8855TIP3   OH247979   0.812   0.068   1.452 -0.0694 -0.0217 -0.1193
 8855TIP3    H147980   0.829   0.156   1.418 -2.1277 -0.6186 -3.0598
 8855TIP3    H247981   0.873   0.012   1.404  0.0579 -0.4295  0.5042
 8856TIP3   OH247982   5.261   4.212  12.540  0.5688  0.8309  0.3800
 8856TIP3    H147983   5.270   4.301  12.572  1.0289  1.1054 -0.4735
 8856TIP3    H247984   5.168   4.204  12.517  0.4103  0.8968  0.9841
 8857TIP3   OH247985   5.623   5.719  12.282 -0.0197  0.4138 -0.2753
 8857TIP3    H147986   5.544   5.701  12.231 -0.0889 -1.6971  0.4810
 8857TIP3    H247987   5.590   5.746  12.368  0.0415 -0.8143  0.1539
 8858TIP3   OH247988   6.199   6.670  11.953  0.3913  0.1002 -0.2727
 8858TIP3    H147989   6.227   6.688  12.042  0.6362 -2.1365  0.1520
 8858TIP3    H247990   6.277   6.636  11.909 -0.4338 -1.6638 -0.4489
 8859TIP3   OH247991   3.946   1.635  16.185  0.7564 -0.2160 -0.1918
 8859TIP3    H147992   3.879   1.679  16.237  0.6489 -1.5892  0.8614
 8859TIP3    H247993   3.979   1.565  16.241  1.3972 -1.0605 -1.5706
 8860TIP3   OH247994   4.621   3.704  12.966  0.2146 -0.1809 -0.1561
 8860TIP3    H147995   4.544   3.754  12.991  0.3449  1.0322 -1.9435
 8860TIP3    H247996   4.695   3.758  12.994  0.4097 -0.6455  0.2453
 8861TIP3   OH247997   1.980   5.492  13.283  0.3266  0.1582 -0.3644
 8861TIP3    H147998   1.970   5.468  13.191  0.2959  2.5510 -1.0274
 8861TIP3    H247999   1.918   5.563  13.297 -0.1709 -0.5981  1.7348
 8862TIP3   OH248000   5.528   3.337   0.023 -0.1372 -0.3160 -0.3496
 8862TIP3    H148001   5.591   3.348  -0.048  0.9195  1.0025  0.7097
 8862TIP3    H248002   5.583   3.332   0.102 -1.3226 -0.3739  0.4946
 8863TIP3   OH248003   4.279   1.926  11.563  0.3969  0.1745 -0.2785
 8863TIP3    H148004   4.306   2.002  11.511  0.4473 -1.2091 -2.4032
 8863TIP3    H248005   4.197   1.953  11.604  1.1935  1.8880  0.3226
 8864TIP3   OH248006   3.691   0.972  14.102 -0.1070  0.0384 -0.0556
 8864TIP3    H148007   3.616   1.030  14.093  1.1705  1.9894  0.9579
 8864TIP3    H248008   3.767   1.030  14.093  1.2496 -1.5652  0.5216
 8865TIP3   OH248009   3.300   6.598  15.555 -0.4316 -0.8606 -0.4417
 8865TIP3    H148010   3.330   6.548  15.631 -1.2344 -0.7244 -0.0216
 8865TIP3    H248011   3.237   6.541  15.512  0.0887 -0.9744 -1.0676
 8866TIP3   OH248012   0.724   5.317  16.218  0.7304  0.1305  0.3643
 8866TIP3    H148013   0.633   5.345  16.226  0.2155 -1.6618  1.2886
 8866TIP3    H248014   0.771   5.396  16.192 -0.4670  2.1540  3.6555
 8867TIP3   OH248015   5.510   1.296   6.692  0.3717 -0.0601  0.4705
 8867TIP3    H148016   5.598   1.333   6.688  0.6193 -0.2149  2.8429
 8867TIP3    H248017   5.524   1.202   6.706 -0.1915 -0.2502 -0.2151
 8868TIP3   OH248018   1.327   1.261  13.038 -0.0544 -0.0958  0.2693
 8868TIP3    H148019   1.254   1.200  13.025  0.4663 -1.3230  2.4987
 8868TIP3    H248020   1.395   1.208  13.079  1.6239  1.3282 -0.5494
 8869TIP3   OH248021   5.416   3.575   1.290  0.2654 -0.0798 -0.0897
 8869TIP3    H148022   5.436   3.642   1.355 -0.1823  0.4161 -0.4461
 8869TIP3    H248023   5.432   3.618   1.206  1.2101 -0.8354 -0.3091
 8870TIP3   OH248024   3.374   2.102  16.613  0.1003 -0.1053  0.5032
 8870TIP3    H148025   3.300   2.046  16.591 -0.1495 -1.0918  3.4371
 8870TIP3    H248026   3.349   2.189  16.580 -2.1726 -0.4913  1.0354
 8871TIP3   OH248027   0.326   2.929  14.358 -0.5718  0.0731 -0.0571
 8871TIP3    H148028   0.372   2.939  14.274  0.2935  0.1773  0.4227
 8871TIP3    H248029   0.237   2.959  14.340 -0.7282 -0.9911 -1.2411
 8872TIP3   OH248030   2.113   1.071   0.324  0.0332 -0.0057  0.0794
 8872TIP3    H148031   2.156   1.156   0.335  0.2944 -0.1863  0.5117
 8872TIP3    H248032   2.026   1.083   0.363  0.9416 -0.6317  2.5186
 8873TIP3   OH248033   2.576   0.382   4.903 -0.0151  0.3990  0.7315
 8873TIP3    H148034   2.611   0.373   4.814  0.6263  1.4775  0.8522
 8873TIP3    H248035   2.511   0.452   4.896 -0.3891  0.0743  0.9923
 8874TIP3   OH248036   6.641   2.019   4.138  0.2485 -0.0194  0.6756
 8874TIP3    H148037   6.550   1.994   4.156  0.6202 -0.3262  2.2770
 8874TIP3    H248038   6.640   2.114   4.138 -0.4386  0.0449 -1.5211
 8875TIP3   OH248039   0.032   2.326  11.021 -0.2036  0.1449 -0.1337
 8875TIP3    H148040   0.123   2.296  11.023  0.4748  2.0038 -0.7435
 8875TIP3    H248041   0.010   2.329  10.928 -1.3146 -1.3991  0.0515
 8876TIP3   OH248042   0.856   4.086  16.461  0.0617 -0.3667  0.4057
 8876TIP3    H148043   0.922   4.094  16.391  1.4419  1.5196  1.8222
 8876TIP3    H248044   0.877   4.003  16.503  0.9462 -0.2581  0.2157
 8877TIP3   OH248045   3.571   6.179  15.540  0.0566 -0.7480 -0.0477
 8877TIP3    H148046   3.619   6.097  15.527  0.2115 -0.8681  1.1556
 8877TIP3    H248047   3.546   6.178  15.632 -3.5331 -1.3770 -0.8763
 8878TIP3   OH248048   5.438   2.653   1.302 -0.2412  0.0466  0.3172
 8878TIP3    H148049   5.451   2.650   1.397 -1.4092  0.4358  0.5028
 8878TIP3    H248050   5.522   2.626   1.266  0.9513  2.0249  1.4204
 8879TIP3   OH248051   4.308   3.364   6.433 -0.0538  0.0821 -0.1099
 8879TIP3    H148052   4.319   3.345   6.339 -0.1601 -1.8819  0.2331
 8879TIP3    H248053   4.244   3.300   6.463  1.0132 -0.2417  1.5826
 8880TIP3   OH248054   6.004   1.147  12.644  0.4806 -0.0093  0.1341
 8880TIP3    H148055   6.015   1.181  12.555 -1.9270  1.1755  0.2171
 8880TIP3    H248056   6.074   1.082  12.654 -0.3640 -1.6585 -3.3286
 8881TIP3   OH248057   2.422   4.002   4.065  0.2363 -0.1341  0.2152
 8881TIP3    H148058   2.436   3.909   4.085  1.9013 -0.3056 -1.4073
 8881TIP3    H248059   2.378   4.001   3.980 -1.3827  0.5878  1.0075
 8882TIP3   OH248060   2.140   5.624  15.324 -0.4487  0.0150  0.2770
 8882TIP3    H148061   2.226   5.665  15.334 -0.9908  1.4687 -0.6799
 8882TIP3    H248062   2.155   5.531  15.344  1.7040 -0.1205 -1.5576
 8883TIP3   OH248063   2.041   4.155  12.782  0.4480  0.0342  1.1804
 8883TIP3    H148064   2.073   4.233  12.737  0.0148 -0.6126 -0.3196
 8883TIP3    H248065   1.961   4.131  12.734 -0.4783 -0.2576  2.7902
 8884TIP3   OH248066   4.200   4.472  16.795 -0.1101  0.2845 -0.2978
 8884TIP3    H148067   4.282   4.494  16.839 -0.7899 -1.1989  1.8495
 8884TIP3    H248068   4.160   4.556  16.774  1.2742  1.0209 -0.1120
 8885TIP3   OH248069   2.362   5.664   2.141  0.1730  0.2629  0.0622
 8885TIP3    H148070   2.456   5.685   2.140  0.1904  0.1635 -0.8136
 8885TIP3    H248071   2.355   5.583   2.091 -0.2623 -0.3032  1.0119
 8886TIP3   OH248072   4.877   3.400   4.385  0.3127 -0.0807 -0.2213
 8886TIP3    H148073   4.790   3.362   4.374  0.1885 -0.2522  1.2102
 8886TIP3    H248074   4.871   3.453   4.464  1.5170 -0.0832 -0.1037
 8887TIP3   OH248075   0.146   2.880  14.089 -0.3959 -0.0071  0.0258
 8887TIP3    H148076   0.051   2.872  14.092 -0.3767 -1.0517 -1.6195
 8887TIP3    H248077   0.164   2.924  14.006  0.6149 -1.0793 -0.3474
 8888TIP3   OH248078   2.375   3.390   3.615  0.2062  0.0596 -0.2817
 8888TIP3    H148079   2.460   3.347   3.608  0.3501  0.4089 -0.7569
 8888TIP3    H248080   2.395   3.478   3.648 -0.1442 -0.4122  1.3048
 8889TIP3   OH248081   2.165   4.016  15.320  0.0264  0.9283 -0.1870
 8889TIP3    H148082   2.117   4.073  15.260 -1.1945 -0.5412 -0.6768
 8889TIP3    H248083   2.096   3.969  15.368  0.9870  0.0691  0.3827
 8890TIP3   OH248084   2.989   5.224  15.931  0.1315  0.7127  0.2997
 8890TIP3    H148085   2.926   5.153  15.940  0.0818  0.6618 -0.4104
 8890TIP3    H248086   3.066   5.194  15.980 -0.0276  0.3340  0.3185
 8891TIP3   OH248087   1.924   3.574  12.382  0.0339  0.2450 -0.1475
 8891TIP3    H148088   1.894   3.661  12.357  1.6774  0.3255 -2.1226
 8891TIP3    H248089   1.984   3.548  12.312  1.5842 -1.4248  1.6686
 8892TIP3   OH248090   5.584   5.511  14.085  0.4722 -0.0672 -1.1139
 8892TIP3    H148091   5.627   5.540  14.005 -0.2051  0.6962 -1.2187
 8892TIP3    H248092   5.491   5.531  14.070  0.5752  2.3096  0.7497
 8893TIP3   OH248093   2.421   1.914   2.756 -0.0157  0.0076  0.2735
 8893TIP3    H148094   2.343   1.960   2.787  0.6803  1.0847  0.5028
 8893TIP3    H248095   2.494   1.960   2.798  0.6996 -2.0325  1.4124
 8894TIP3   OH248096   1.776   4.990  15.693 -0.0678  0.0046  0.1375
 8894TIP3    H148097   1.869   4.970  15.703 -0.1027  0.0214  0.5120
 8894TIP3    H248098   1.755   4.962  15.604  1.0847  2.9835 -1.2135
 8895TIP3   OH248099   4.361   5.422   3.561 -0.8014  0.0896  0.0614
 8895TIP3    H148100   4.312   5.346   3.593  0.7870 -0.8326  0.3927
 8895TIP3    H248101   4.294   5.481   3.526 -2.0890 -1.3478  0.0262
 8896TIP3   OH248102   0.062   4.212  16.916  0.0034  0.1348 -0.0856
 8896TIP3    H148103   0.100   4.250  16.836  1.2900  2.8076  1.6344
 8896TIP3    H248104   0.137   4.180  16.965 -0.8245 -1.9800 -0.1183
 8897TIP3   OH248105   4.893   1.268  15.921  0.0538  0.3242 -0.1191
 8897TIP3    H148106   4.839   1.203  15.877 -0.8530  0.9136  0.0924
 8897TIP3    H248107   4.979   1.226  15.930 -0.2691 -0.4990 -0.7637
 8898TIP3   OH248108   4.738   1.042   2.399  0.2273 -0.1505  0.3707
 8898TIP3    H148109   4.762   0.957   2.361  0.2396 -0.2550  0.6129
 8898TIP3    H248110   4.793   1.050   2.477 -1.6090 -1.1118  1.8439
 8899TIP3   OH248111   2.244   0.028  15.356 -0.0794 -0.4279  0.7307
 8899TIP3    H148112   2.211   0.116  15.374  0.1602 -0.5554  1.8513
 8899TIP3    H248113   2.330   0.026  15.397  1.9416  0.2304 -2.9506
 8900TIP3   OH248114   3.992   2.833  13.419 -0.4953 -0.3469  0.2192
 8900TIP3    H148115   3.978   2.927  13.420 -0.5274 -0.3118 -1.1991
 8900TIP3    H248116   3.916   2.796  13.463 -0.2761  0.3040  1.1515
 8901TIP3   OH248117   6.301   1.888   3.971  0.1134  0.1177 -0.4520
 8901TIP3    H148118   6.325   1.796   3.959  3.3774  1.0383 -2.1988
 8901TIP3    H248119   6.319   1.905   4.064 -1.2823 -1.1301  0.0855
 8902TIP3   OH248120   1.084   5.277  16.130 -0.5599  0.2526 -0.3588
 8902TIP3    H148121   1.054   5.242  16.047  0.4498 -1.4218 -0.0718
 8902TIP3    H248122   1.026   5.238  16.195 -1.2282  1.4084 -0.2400
 8903TIP3   OH248123   0.035   5.739   4.734 -0.2976  0.1025 -0.3607
 8903TIP3    H148124  -0.049   5.708   4.701 -1.0972  0.8101  0.9101
 8903TIP3    H248125   0.047   5.694   4.818  1.0517 -0.6831 -0.9408
 8904TIP3   OH248126   2.968   1.607  16.559  0.5600  0.2782 -0.9215
 8904TIP3    H148127   3.036   1.544  16.535  0.2838 -0.1648 -0.5520
 8904TIP3    H248128   2.973   1.675  16.491  1.4764  0.3313 -0.8042
 8905TIP3   OH248129   5.104   2.210   0.610 -0.7942  0.4655  0.0303
 8905TIP3    H148130   5.120   2.160   0.530 -1.4994  0.2950 -0.0116
 8905TIP3    H248131   5.118   2.147   0.680 -0.3518  0.5671  0.0322
 8906TIP3   OH248132   3.799   0.560   4.863 -0.0418  0.2711  0.7093
 8906TIP3    H148133   3.760   0.533   4.946  0.0108 -1.6818  0.1464
 8906TIP3    H248134   3.749   0.512   4.797  0.5106  1.0938 -0.3373
 8907TIP3   OH248135   4.269   0.426  12.929  0.2688  0.3863 -0.4416
 8907TIP3    H148136   4.291   0.443  13.021  0.8268  0.1000 -0.5125
 8907TIP3    H248137   4.186   0.379  12.933  1.3478 -1.6329  0.0886
 8908TIP3   OH248138   3.900   1.627  13.540 -0.3790 -0.3665  0.0980
 8908TIP3    H148139   3.858   1.650  13.457  1.1889 -0.5241 -0.8022
 8908TIP3    H248140   3.993   1.621  13.518 -0.0490 -1.5735  1.6236
 8909TIP3   OH248141   2.448   5.178   5.771  0.1978  0.5046  0.1872
 8909TIP3    H148142   2.528   5.230   5.775  0.1000  0.6105  1.0724
 8909TIP3    H248143   2.444   5.145   5.681  0.8963  1.0236 -0.0380
 8910TIP3   OH248144   6.078   3.600  17.093  0.1052  0.0324 -0.5373
 8910TIP3    H148145   6.090   3.656  17.170  2.3617  2.1237 -2.2835
 8910TIP3    H248146   6.122   3.646  17.022 -2.3233 -1.5505 -3.2823
 8911TIP3   OH248147   4.156   4.523  15.126  0.5245  0.1576  0.5234
 8911TIP3    H148148   4.239   4.500  15.166  1.3222  0.5144 -0.8428
 8911TIP3    H248149   4.125   4.599  15.175  1.1804  0.2337  0.8227
 8912TIP3   OH248150   2.189   3.411  14.022  0.3742 -0.6596  0.4598
 8912TIP3    H148151   2.178   3.332  14.075  0.6676 -0.4019  0.9129
 8912TIP3    H248152   2.283   3.413  14.001  0.4223 -0.2802  0.6981
 8913TIP3   OH248153   5.072   2.015   4.370  0.1043  0.1773  0.3505
 8913TIP3    H148154   5.117   2.097   4.388 -0.9891  1.4950 -2.2674
 8913TIP3    H248155   5.047   1.981   4.456 -0.2279  3.0580  1.4933
 8914TIP3   OH248156   0.892   5.708   2.887  0.1019 -0.2209  0.8648
 8914TIP3    H148157   0.963   5.711   2.951  1.3648  1.7568 -0.5058
 8914TIP3    H248158   0.930   5.665   2.810 -0.5174 -0.0938  0.4772
 8915TIP3   OH248159   4.380   5.842   0.915  0.1305  0.4196  0.1340
 8915TIP3    H148160   4.288   5.815   0.907 -0.1137  1.1347  0.4603
 8915TIP3    H248161   4.377   5.924   0.964  1.0103  0.0707  0.7951
 8916TIP3   OH248162   5.268   4.921   3.946 -0.2724  0.2525 -0.4206
 8916TIP3    H148163   5.344   4.864   3.940 -0.1434  0.1679  1.3340
 8916TIP3    H248164   5.258   4.958   3.858  0.9296 -0.8147 -1.0343
 8917TIP3   OH248165   1.255   1.419   4.816 -0.3188 -0.5134  0.9089
 8917TIP3    H148166   1.348   1.405   4.794 -0.0103 -0.1974  1.9617
 8917TIP3    H248167   1.211   1.343   4.778  0.4167 -0.8480  0.6849
 8918TIP3   OH248168   1.349   3.212   1.697  0.1915 -0.0895  0.0437
 8918TIP3    H148169   1.359   3.152   1.624 -0.0988  0.5840 -0.5600
 8918TIP3    H248170   1.327   3.156   1.772 -2.4097 -0.5451 -0.9925
 8919TIP3   OH248171   2.495   3.162  14.761  0.2045 -0.3828  0.4144
 8919TIP3    H148172   2.476   3.233  14.822 -0.4573 -0.5946  0.4565
 8919TIP3    H248173   2.585   3.178  14.734 -0.2407  1.0502 -0.3296
 8920TIP3   OH248174   6.689   3.547  15.080 -0.1619 -0.2287  0.3667
 8920TIP3    H148175   6.745   3.624  15.088 -0.1001  0.3117 -3.2989
 8920TIP3    H248176   6.600   3.583  15.075 -0.0641 -0.1008 -2.4574
 8921TIP3   OH248177   5.285   5.770   5.123 -0.3112  0.1201  0.3982
 8921TIP3    H148178   5.380   5.773   5.120 -0.3617  1.3392 -0.3960
 8921TIP3    H248179   5.263   5.680   5.097  0.5808  0.2450 -0.8474
 8922TIP3   OH248180   2.115   4.937   2.384  0.6085  0.0922  0.2268
 8922TIP3    H148181   2.126   4.996   2.309  1.8689 -2.5829 -1.8515
 8922TIP3    H248182   2.162   4.858   2.360 -0.3774 -1.5612  3.1856
 8923TIP3   OH248183   1.539   2.643  14.329 -0.2138  0.1497 -0.0220
 8923TIP3    H148184   1.537   2.649  14.233  0.6154  2.0813  0.0438
 8923TIP3    H248185   1.511   2.730  14.359  0.9501  0.0312  1.4683
 8924TIP3   OH248186   3.822   1.778  12.707 -0.0704  0.7337 -0.0222
 8924TIP3    H148187   3.825   1.791  12.801  2.1271 -0.1628  0.0782
 8924TIP3    H248188   3.847   1.687  12.694  0.9684  1.1937 -1.5311
 8925TIP3   OH248189   4.357   1.422  11.070 -0.1742 -0.0669 -0.1961
 8925TIP3    H148190   4.350   1.347  11.129  0.5600  1.3846  1.8630
 8925TIP3    H248191   4.451   1.432  11.055 -0.1048  1.4921  1.0584
 8926TIP3   OH248192   6.687   4.492   0.591 -0.4807 -0.7920 -0.2358
 8926TIP3    H148193   6.647   4.468   0.507 -2.0099  0.8618 -0.0407
 8926TIP3    H248194   6.616   4.484   0.655 -0.5142  1.8997  0.1761
 8927TIP3   OH248195   5.285   2.737  16.262 -0.3288  0.5008  0.4341
 8927TIP3    H148196   5.292   2.817  16.211 -1.1285  1.1157  1.2548
 8927TIP3    H248197   5.191   2.725  16.277 -0.2723 -0.9061 -0.1439
 8928TIP3   OH248198   4.761   1.520   0.168 -0.0628  0.3097 -0.3514
 8928TIP3    H148199   4.833   1.574   0.201 -0.2438 -0.0345  0.6316
 8928TIP3    H248200   4.721   1.483   0.246 -0.4852 -0.5592 -0.9639
 8929TIP3   OH248201   6.632   2.304   4.156 -0.8227 -0.0329 -0.3293
 8929TIP3    H148202   6.614   2.365   4.084 -0.3891  0.4730 -0.0209
 8929TIP3    H248203   6.579   2.337   4.228  0.4348  0.8142  0.2518
 8930TIP3   OH248204   2.230   3.815   4.431 -0.1998 -0.7794  0.2077
 8930TIP3    H148205   2.185   3.740   4.469  0.2588 -0.7310  0.8635
 8930TIP3    H248206   2.313   3.820   4.479 -0.0273 -0.1333 -0.1455
 8931TIP3   OH248207   4.133   4.671   1.784  0.0895 -0.1191 -0.1170
 8931TIP3    H148208   4.213   4.721   1.772  0.9217 -1.4096 -0.1726
 8931TIP3    H248209   4.134   4.647   1.877 -0.2795 -0.0746 -0.0990
 8932TIP3   OH248210   5.433   3.894  12.866  0.2877  0.1651 -0.1910
 8932TIP3    H148211   5.472   3.978  12.890 -1.0056  0.2654  1.8134
 8932TIP3    H248212   5.505   3.830  12.875  1.1826  0.9709 -1.3719
 8933TIP3   OH248213   6.538   6.785   1.024  0.1994 -0.3198 -0.7083
 8933TIP3    H148214   6.604   6.748   1.083  0.7900  1.3701 -0.2226
 8933TIP3    H248215   6.467   6.722   1.025  0.7055 -0.9295  0.8914
 8934TIP3   OH248216   4.694   0.474   4.082  0.0219 -0.2028  0.4161
 8934TIP3    H148217   4.649   0.426   4.151  0.8813  0.1137  1.2240
 8934TIP3    H248218   4.767   0.417   4.057 -0.1100 -0.1824 -0.0272
 8935TIP3   OH248219   0.630   3.803  12.284  0.2323 -0.1938  1.2846
 8935TIP3    H148220   0.561   3.785  12.220 -0.7671  1.4533  1.8465
 8935TIP3    H248221   0.711   3.782  12.238 -0.4963  0.4396 -0.3491
 8936TIP3   OH248222   1.453   6.385  15.465 -0.0024  0.1136 -0.3477
 8936TIP3    H148223   1.471   6.305  15.515 -0.0406 -0.5082 -1.3195
 8936TIP3    H248224   1.362   6.407  15.487  0.4898  0.7954  1.1448
 8937TIP3   OH248225   5.752   6.653   5.900 -0.0584 -0.2663 -0.3940
 8937TIP3    H148226   5.677   6.713   5.903  1.6227  2.0429 -1.3123
 8937TIP3    H248227   5.773   6.637   5.992  1.6668  3.7282  0.1198
 8938TIP3   OH248228   3.800   3.711  15.885 -0.3109 -0.1797 -0.2354
 8938TIP3    H148229   3.820   3.643  15.820  1.0086  0.8988 -1.0322
 8938TIP3    H248230   3.705   3.718  15.885 -0.4878 -2.0573 -0.0643
 8939TIP3   OH248231   1.152   6.525  12.546  0.5228  0.3444 -0.6796
 8939TIP3    H148232   1.065   6.565  12.540  0.0720 -0.0908  1.8599
 8939TIP3    H248233   1.141   6.438  12.506 -0.3266  0.1435 -0.0327
 8940TIP3   OH248234   2.131   5.753  14.667  1.0489 -0.3142 -0.0927
 8940TIP3    H148235   2.130   5.786  14.757  0.8870 -1.2487  0.2619
 8940TIP3    H248236   2.222   5.759  14.639  0.7723  2.0176 -0.6625
 8941TIP3   OH248237   4.234   4.748  14.251 -0.4776 -0.4267  0.1225
 8941TIP3    H148238   4.303   4.684  14.231 -0.3316  0.1851 -1.4551
 8941TIP3    H248239   4.243   4.815  14.183  0.2991  2.0459  2.5077
 8942TIP3   OH248240   2.620   5.577   3.777 -0.3784  0.1413 -0.3958
 8942TIP3    H148241   2.679   5.606   3.707 -1.1060  0.4320 -0.9094
 8942TIP3    H248242   2.572   5.657   3.801 -0.2177  0.0150  0.3582
 8943TIP3   OH248243   0.207   6.479   4.924  0.5183 -0.0397 -0.6871
 8943TIP3    H148244   0.217   6.402   4.868  1.2793 -0.0426 -0.5622
 8943TIP3    H248245   0.128   6.523   4.892 -1.0905 -1.9182  0.5112
 8944TIP3   OH248246   3.269   1.797   5.898 -0.0803 -0.2271  0.1956
 8944TIP3    H148247   3.318   1.872   5.932 -0.5313  0.0757  0.1924
 8944TIP3    H248248   3.289   1.726   5.957  0.7129 -0.2232 -0.0605
 8945TIP3   OH248249   1.569   2.836  14.730 -0.1422  0.1633 -0.0018
 8945TIP3    H148250   1.641   2.878  14.776  0.0222 -1.6680  1.5795
 8945TIP3    H248251   1.611   2.784  14.662 -0.1249  0.5266 -0.2682
 8946TIP3   OH248252   1.208   4.153  10.634  0.0761  0.1814  0.0520
 8946TIP3    H148253   1.216   4.148  10.730 -1.5889  1.4997  0.3151
 8946TIP3    H248254   1.296   4.133  10.602  0.6547 -0.4150  1.8435
 8947TIP3   OH248255   0.696   6.171  12.846 -0.2851 -0.7559 -0.9067
 8947TIP3    H148256   0.716   6.203  12.758 -0.6572  0.9433 -0.4289
 8947TIP3    H248257   0.651   6.088  12.832 -0.2296 -0.5767 -2.3175
 8948TIP3   OH248258   3.091   1.156   0.533 -0.3430 -0.5632 -0.1756
 8948TIP3    H148259   3.157   1.210   0.490 -0.5330  0.2208  0.5003
 8948TIP3    H248260   3.008   1.199   0.514 -0.5578 -0.9643 -0.1516
 8949TIP3   OH248261   2.667   2.990   3.729  0.3223 -0.7975  0.2743
 8949TIP3    H148262   2.672   2.919   3.793  0.9116 -1.6470 -0.6782
 8949TIP3    H248263   2.757   3.003   3.701 -0.0886 -1.6754 -1.6603
 8950TIP3   OH248264   5.963   0.206   5.308  0.3325  0.0428  0.3501
 8950TIP3    H148265   5.935   0.297   5.307 -1.6813 -0.4921  1.3018
 8950TIP3    H248266   5.894   0.160   5.261  1.5000 -0.9632 -0.4294
 8951TIP3   OH248267   4.824   6.281   4.731  0.1087 -0.2340  0.0689
 8951TIP3    H148268   4.773   6.346   4.779 -0.3609 -1.4325  1.2372
 8951TIP3    H248269   4.829   6.316   4.642 -1.4881  0.6247  0.2837
 8952TIP3   OH248270   5.363   2.729  13.084  0.0584  0.0670  0.1076
 8952TIP3    H148271   5.393   2.748  12.995  0.6523 -0.7712  0.1114
 8952TIP3    H248272   5.338   2.814  13.120 -1.4053  0.2648 -1.2764
 8953TIP3   OH248273   3.257   6.455  12.421  0.2213 -0.4798 -0.3206
 8953TIP3    H148274   3.300   6.484  12.340  0.3970  1.0115  0.2846
 8953TIP3    H248275   3.290   6.514  12.488 -2.1415  0.1939  0.3256
 8954TIP3   OH248276   6.064   3.796   0.074 -0.0886 -0.8504 -0.1006
 8954TIP3    H148277   6.004   3.868   0.056 -0.5429 -1.4411 -1.0644
 8954TIP3    H248278   6.149   3.838   0.088 -0.3667 -0.1168 -0.5556
 8955TIP3   OH248279   4.081   3.686   3.049  0.3133  0.0161  0.4593
 8955TIP3    H148280   4.078   3.591   3.040  0.0891  0.0212  0.4559
 8955TIP3    H248281   4.136   3.702   3.126  1.2683 -0.0712 -0.1891
 8956TIP3   OH248282   3.428   4.301  14.037  0.5417  0.0153 -0.4992
 8956TIP3    H148283   3.441   4.220  14.086  0.8033  0.7208  0.6316
 8956TIP3    H248284   3.342   4.332  14.064  1.2340  1.0929  0.5874
 8957TIP3   OH248285   2.790   2.690  15.466  0.6733 -0.1197  0.1720
 8957TIP3    H148286   2.875   2.654  15.442 -0.7751 -2.2273 -2.3141
 8957TIP3    H248287   2.745   2.618  15.511 -0.4382  0.3003 -0.2289
 8958TIP3   OH248288   1.220   3.536  10.562  0.1230 -0.5141  0.0693
 8958TIP3    H148289   1.291   3.471  10.559  1.0175  0.4771 -1.5303
 8958TIP3    H248290   1.261   3.615  10.597 -1.1466 -0.9407  2.7573
 8959TIP3   OH248291   3.264   5.341  10.410 -0.1533  0.1270 -0.2136
 8959TIP3    H148292   3.273   5.415  10.470  0.7881  0.4193 -0.6946
 8959TIP3    H248293   3.351   5.302  10.406  0.0109  0.5719 -1.9551
 8960TIP3   OH248294   0.688   6.003  15.919 -0.0152  0.0645  0.0303
 8960TIP3    H148295   0.752   6.073  15.908  1.0135 -1.1335 -2.3563
 8960TIP3    H248296   0.716   5.956  15.998  1.8864 -0.2321 -0.7756
 8961TIP3   OH248297   4.435   0.095   2.010  0.6079 -0.2269 -0.2063
 8961TIP3    H148298   4.384   0.061   1.937 -1.4481 -0.0705  1.0661
 8961TIP3    H248299   4.501   0.151   1.969 -1.0995  0.6491 -1.9175
 8962TIP3   OH248300   6.094   2.074   4.663 -0.1308  0.1604  0.3311
 8962TIP3    H148301   6.172   2.045   4.709  0.4237  1.0011 -0.0475
 8962TIP3    H248302   6.033   2.001   4.670  1.2490 -1.1443 -0.7007
 8963TIP3   OH248303   4.586   1.149   3.591  0.1126 -0.4023 -0.2775
 8963TIP3    H148304   4.529   1.090   3.640  0.8478 -1.2163 -0.3802
 8963TIP3    H248305   4.566   1.236   3.627 -1.5147 -0.5878 -0.6398
 8964TIP3   OH248306   1.642   1.557  13.690 -0.3174 -0.3332  0.5224
 8964TIP3    H148307   1.647   1.558  13.595  0.3193  0.8003  0.5470
 8964TIP3    H248308   1.588   1.633  13.712  2.9067  1.9789  1.1615
 8965TIP3   OH248309   2.054   0.336  14.811  0.0228 -0.1293  0.0601
 8965TIP3    H148310   2.042   0.276  14.885 -0.0806  0.7954  0.8198
 8965TIP3    H248311   2.085   0.417  14.852 -2.5071  1.2682 -0.5884
 8966TIP3   OH248312   4.682   0.472   1.053  0.2006  0.0904  0.2959
 8966TIP3    H148313   4.622   0.485   1.126  1.1446  3.3069  0.6536
 8966TIP3    H248314   4.626   0.467   0.975 -0.6939 -1.4882  0.9945
 8967TIP3   OH248315   1.064   4.109  15.943  0.1169  0.0414 -0.4148
 8967TIP3    H148316   1.079   4.122  16.037  0.2214  0.9776 -0.5475
 8967TIP3    H248317   1.045   4.016  15.934 -0.3102  0.0193  0.5918
 8968TIP3   OH248318   3.125   6.772   3.587  0.3229 -0.1358 -0.4538
 8968TIP3    H148319   3.047   6.825   3.604  0.3144 -0.1195 -0.5479
 8968TIP3    H248320   3.106   6.688   3.628  1.9094  1.1377  3.3573
 8969TIP3   OH248321   2.740   5.113  11.795 -0.4019  0.1904  0.2305
 8969TIP3    H148322   2.738   5.151  11.708  0.4094  2.6994  1.2308
 8969TIP3    H248323   2.656   5.138  11.834 -0.6977 -0.7874  0.2481
 8970TIP3   OH248324   3.400   0.997   4.819 -0.0280 -0.0955 -0.1517
 8970TIP3    H148325   3.354   1.054   4.757  0.1717 -0.4858 -0.6645
 8970TIP3    H248326   3.336   0.930   4.843 -0.6296  0.9421  1.3052
 8971TIP3   OH248327   1.433   3.975   1.240  0.2280  0.1289 -0.4701
 8971TIP3    H148328   1.434   3.886   1.276 -1.0261 -0.0013 -0.7324
 8971TIP3    H248329   1.348   4.011   1.266  0.2256  0.8294 -1.3992
 8972TIP3   OH248330   1.566   6.200   2.743  0.0442  0.1735  0.3234
 8972TIP3    H148331   1.539   6.172   2.831 -1.5455  3.5284  1.0460
 8972TIP3    H248332   1.517   6.280   2.727  2.3289  1.1607 -2.5551
 8973TIP3   OH248333   3.076   0.155   4.245  0.2297  0.1658  0.2156
 8973TIP3    H148334   3.137   0.178   4.315 -1.1741  3.2451  0.5810
 8973TIP3    H248335   3.023   0.084   4.282  1.8897 -0.8197  0.8074
 8974TIP3   OH248336   6.552   4.964   0.056 -0.1954 -0.7760 -0.2259
 8974TIP3    H148337   6.487   4.911   0.009 -0.0106 -1.3583  0.1768
 8974TIP3    H248338   6.578   5.031  -0.008 -2.1228  0.2700  0.0162
 8975TIP3   OH248339   0.148   3.797   3.787  0.3167 -0.0003 -0.0594
 8975TIP3    H148340   0.069   3.746   3.770  0.6417 -0.6380  0.2832
 8975TIP3    H248341   0.201   3.787   3.708  0.3546 -0.1473 -0.0157
 8976TIP3   OH248342   3.959   2.985  12.199 -0.3878  0.3285 -0.0766
 8976TIP3    H148343   3.933   2.900  12.235  0.8080 -0.5348 -1.1262
 8976TIP3    H248344   3.958   3.045  12.273  0.8769 -1.1113  1.1606
 8977TIP3   OH248345   3.124   1.023   4.322  0.0828  0.3907  0.1275
 8977TIP3    H148346   3.213   0.999   4.294  1.4376  2.4036  2.3599
 8977TIP3    H248347   3.108   1.107   4.280  0.3853  1.3515  1.8804
 8978TIP3   OH248348   1.736   0.350  16.780 -0.5714 -0.1920  0.3349
 8978TIP3    H148349   1.687   0.288  16.725 -0.9240 -2.2924  2.8532
 8978TIP3    H248350   1.672   0.381  16.844  0.1044  1.3545  0.3096
 8979TIP3   OH248351   1.359   4.720   1.066  0.0888 -0.3125 -0.0482
 8979TIP3    H148352   1.278   4.690   1.106  1.0303 -0.7413  1.6603
 8979TIP3    H248353   1.348   4.705   0.973 -1.2614 -1.6287  0.2980
 8980TIP3   OH248354   2.660   6.174  15.999  0.5887  0.6529 -0.1557
 8980TIP3    H148355   2.622   6.107  15.942  0.6810  0.8223 -0.4161
 8980TIP3    H248356   2.734   6.130  16.041  0.5679  0.5511 -0.2253
 8981TIP3   OH248357   5.562   6.148   5.602 -0.3015 -0.5153  0.8096
 8981TIP3    H148358   5.503   6.185   5.536  0.9772 -1.6718 -1.0931
 8981TIP3    H248359   5.532   6.057   5.612  0.6717 -0.9105  0.3285
 8982TIP3   OH248360   5.407   5.847  14.946  0.4343  0.1538 -0.2103
 8982TIP3    H148361   5.474   5.832  15.012  1.1272  1.4638 -0.5919
 8982TIP3    H248362   5.444   5.812  14.865  1.3525  2.2024 -0.7456
 8983TIP3   OH248363   2.210   3.226   0.850  0.0406  0.2669 -0.1892
 8983TIP3    H148364   2.254   3.304   0.885  0.4648 -0.1140  0.1350
 8983TIP3    H248365   2.279   3.177   0.805  0.2041 -0.8638  1.2183
 8984TIP3   OH248366   1.022   0.507   0.930 -0.1017  0.0029  0.4660
 8984TIP3    H148367   1.111   0.482   0.908 -0.7067 -0.6753 -1.3658
 8984TIP3    H248368   1.016   0.599   0.904 -0.4688 -0.4763 -1.2442
 8985TIP3   OH248369   6.529   1.681  11.665  0.2518 -0.5409 -0.3450
 8985TIP3    H148370   6.587   1.751  11.635  1.5135 -1.5387 -0.3295
 8985TIP3    H248371   6.568   1.650  11.746 -1.1568 -0.2619  0.4750
 8986TIP3   OH248372   4.567   5.860  16.396 -0.5211  0.1309 -0.7769
 8986TIP3    H148373   4.499   5.918  16.362 -1.0382  0.7159  1.1396
 8986TIP3    H248374   4.550   5.855  16.490  1.5351 -0.4555 -0.3813
 8987TIP3   OH248375   4.747   3.349  12.224  0.1016 -0.1047 -0.3287
 8987TIP3    H148376   4.667   3.345  12.172  1.4661 -1.8543 -2.4606
 8987TIP3    H248377   4.734   3.285  12.294 -1.1019  1.1003  0.6158
 8988TIP3   OH248378   0.432   2.031   1.515 -0.0248  0.5175  0.0576
 8988TIP3    H148379   0.341   2.058   1.504 -0.1713  0.9534  1.9934
 8988TIP3    H248380   0.477   2.110   1.546  1.0006  0.2910 -0.8146
 8989TIP3   OH248381   5.309   6.728  11.561 -0.5116 -0.0518 -0.4788
 8989TIP3    H148382   5.311   6.641  11.520  1.9455 -0.2781 -0.0288
 8989TIP3    H248383   5.368   6.781  11.509  0.7954  0.3321  1.2969
 8990TIP3   OH248384   6.511   2.752   2.244  0.1396  0.2481 -0.2693
 8990TIP3    H148385   6.443   2.686   2.258 -0.7230  0.8199 -1.5553
 8990TIP3    H248386   6.462   2.833   2.227  1.1540  0.7427 -0.9074
 8991TIP3   OH248387   0.240   0.085   1.467  0.4269 -0.2230 -0.0726
 8991TIP3    H148388   0.203   0.133   1.393 -2.4320 -2.3586 -0.1760
 8991TIP3    H248389   0.246   0.150   1.537 -4.9609  0.2345  0.3685
 8992TIP3   OH248390   5.888   1.545   2.511 -0.3211  0.1147 -0.0402
 8992TIP3    H148391   5.855   1.515   2.426  1.6352 -0.0103 -0.7945
 8992TIP3    H248392   5.952   1.613   2.489 -1.7523  2.0783  1.4729
 8993TIP3   OH248393   1.433   0.190   0.467 -0.0574  0.4090  0.4418
 8993TIP3    H148394   1.469   0.176   0.379 -0.0043  1.0494  0.3549
 8993TIP3    H248395   1.465   0.277   0.492 -0.7960  0.6074  0.7320
 8994TIP3   OH248396   3.798   1.995  15.947 -0.6002 -0.6673  0.1913
 8994TIP3    H148397   3.706   1.976  15.968 -0.3236 -1.1614  1.0218
 8994TIP3    H248398   3.834   2.030  16.028 -0.2248  0.2058 -0.3446
 8995TIP3   OH248399   5.416   2.077   1.555  0.2577  0.1911  0.1072
 8995TIP3    H148400   5.323   2.098   1.552  0.3463  0.6010  0.2616
 8995TIP3    H248401   5.431   2.026   1.475  0.0857  0.8652 -0.3616
 8996TIP3   OH248402   0.014   3.623  13.013 -0.2730  0.5055 -0.4724
 8996TIP3    H148403  -0.022   3.593  13.097 -1.6199  1.6996 -0.5846
 8996TIP3    H248404   0.064   3.548  12.981 -0.5450 -0.3248  0.9310
 8997TIP3   OH248405   2.794   2.625  13.978  0.3811 -0.2781  0.0819
 8997TIP3    H148406   2.765   2.576  13.901 -0.4679  0.4418 -0.0659
 8997TIP3    H248407   2.794   2.560  14.048  0.3908 -0.7563 -0.3554
 8998TIP3   OH248408   3.947   3.043   6.013  0.7859 -0.3461  0.7916
 8998TIP3    H148409   3.921   2.953   5.991 -0.5061 -0.1899  1.5830
 8998TIP3    H248410   3.924   3.053   6.105  0.3651  0.9788  0.5613
 8999TIP3   OH248411   4.406   2.804  14.482 -0.1077 -0.2996 -0.0280
 8999TIP3    H148412   4.345   2.753  14.536  1.0048 -1.5479  0.1059
 8999TIP3    H248413   4.403   2.892  14.519 -1.9300 -0.2733 -0.1323
 9000TIP3   OH248414   3.305   6.451  12.752  1.0456  0.4313  0.2350
 9000TIP3    H148415   3.235   6.483  12.696  1.7503 -0.6822 -1.3544
 9000TIP3    H248416   3.260   6.404  12.822  0.1495  1.9231  0.6907
 9001TIP3   OH248417   3.791   3.607  15.571  0.5597  0.1316  0.3975
 9001TIP3    H148418   3.746   3.636  15.492  1.3135  0.9083  0.2335
 9001TIP3    H248419   3.762   3.517  15.584  0.0224  0.1686 -0.4630
 9002TIP3   OH248420   0.104   4.966  13.601 -0.2602  0.2394  0.1782
 9002TIP3    H148421   0.063   4.980  13.687  1.0944  1.4222  0.6730
 9002TIP3    H248422   0.050   5.017  13.541 -2.5421 -2.3270 -0.1369
 9003TIP3   OH248423   3.777   5.454  15.157 -0.1686  0.2790  0.4493
 9003TIP3    H148424   3.817   5.507  15.088 -1.8255  0.5378 -0.3590
 9003TIP3    H248425   3.811   5.492  15.238  2.4396 -0.5450 -0.1662
 9004TIP3   OH248426   2.025   2.308   1.518 -0.1321  0.5088  0.1558
 9004TIP3    H148427   2.021   2.244   1.589 -0.1513  0.4105  0.0664
 9004TIP3    H248428   2.073   2.382   1.555  0.0995  0.3459  0.1838
 9005TIP3   OH248429   6.083   4.158  12.400 -0.1010 -0.5800 -0.4872
 9005TIP3    H148430   6.135   4.232  12.370  0.2784 -1.5397 -2.3163
 9005TIP3    H248431   6.093   4.158  12.495  1.3655  0.6127 -0.6144
 9006TIP3   OH248432   3.380   4.624   1.162  0.6207  0.0991  0.2696
 9006TIP3    H148433   3.415   4.584   1.083 -0.1196  0.6017 -0.3302
 9006TIP3    H248434   3.378   4.553   1.226  1.6952 -0.1912 -0.0070
 9007TIP3   OH248435   1.921   0.041  15.180 -0.2550  0.0977  0.2655
 9007TIP3    H148436   1.998   0.022  15.127  0.8450  0.5074  1.6558
 9007TIP3    H248437   1.930   0.133  15.203  0.0018 -0.3890  2.2316
 9008TIP3   OH248438   6.175   2.227  15.038  0.2644  0.1279 -0.2523
 9008TIP3    H148439   6.221   2.311  15.034 -1.8106  1.3203 -0.7235
 9008TIP3    H248440   6.215   2.174  14.970  0.1455  1.5556 -1.4800
 9009TIP3   OH248441   2.481   6.123   1.072  0.0457  0.5544 -0.5324
 9009TIP3    H148442   2.468   6.046   1.127  0.8738 -0.1923 -1.3532
 9009TIP3    H248443   2.500   6.088   0.985 -1.8544  1.6966 -1.4789
 9010TIP3   OH248444   2.187   0.701  15.349 -0.5774  0.7908 -0.2337
 9010TIP3    H148445   2.273   0.687  15.389 -1.9808 -0.9210  2.4284
 9010TIP3    H248446   2.167   0.793  15.367 -0.1811  0.6550  1.0050
 9011TIP3   OH248447   0.395   4.661   0.623 -0.3763 -0.0205  0.3028
 9011TIP3    H148448   0.459   4.652   0.694  0.8116  0.0288 -0.7299
 9011TIP3    H248449   0.319   4.610   0.652  0.3863 -0.6362  1.2712
 9012TIP3   OH248450   2.958   3.675   1.062  0.1426 -0.4158  0.0297
 9012TIP3    H148451   2.920   3.588   1.057 -3.3559  1.0440 -2.9047
 9012TIP3    H248452   2.885   3.733   1.084  1.5281  2.1496 -1.5375
 9013TIP3   OH248453   0.161   3.999   0.665  0.1937  0.0645  0.0407
 9013TIP3    H148454   0.114   4.048   0.732 -1.2372 -0.7694 -0.3026
 9013TIP3    H248455   0.107   4.009   0.586  0.7030 -0.7542 -0.4276
 9014TIP3   OH248456   5.389   6.248   1.412  0.5565 -0.1712  0.0028
 9014TIP3    H148457   5.399   6.333   1.370  1.5835 -0.5412 -0.5535
 9014TIP3    H248458   5.476   6.229   1.448  0.3766 -1.0441  0.0015
 9015TIP3   OH248459   0.498   5.459  14.646  0.3275 -0.0055  0.0649
 9015TIP3    H148460   0.425   5.490  14.699  1.3897  2.4666  0.2158
 9015TIP3    H248461   0.519   5.373  14.683 -0.4713  0.6115  2.1120
 9016TIP3   OH248462   1.235   2.487  14.800 -0.1899  0.4521  0.1727
 9016TIP3    H148463   1.300   2.461  14.735 -2.2677  2.7555 -3.1624
 9016TIP3    H248464   1.252   2.580  14.816 -2.8994  1.3211 -1.3438
 9017TIP3   OH248465   2.173   6.641   1.820 -0.0594  0.7714  0.4259
 9017TIP3    H148466   2.099   6.671   1.766  0.6469 -2.2059 -2.5448
 9017TIP3    H248467   2.250   6.663   1.769  0.5889 -3.2684 -0.6881
 9018TIP3   OH248468   3.370   2.073  12.326 -0.2395 -0.5855  0.2475
 9018TIP3    H148469   3.298   2.118  12.284  0.6238  0.4760 -0.1363
 9018TIP3    H248470   3.351   2.080  12.420 -1.9377 -2.5793  0.1288
 9019TIP3   OH248471   3.648   3.028  12.557 -0.3211  0.3320 -0.0856
 9019TIP3    H148472   3.721   3.044  12.617 -1.1324 -0.6626  1.2328
 9019TIP3    H248473   3.608   3.114  12.544  0.8852  0.8371 -0.5887
 9020TIP3   OH248474   0.603   3.978   6.332  0.2974 -0.1171  0.1194
 9020TIP3    H148475   0.680   4.024   6.299 -1.0770  2.3774  0.0837
 9020TIP3    H248476   0.602   3.895   6.286 -0.0183  2.0161 -4.2074
 9021TIP3   OH248477   1.443   1.241  11.273  0.2615  0.1358 -0.4317
 9021TIP3    H148478   1.507   1.254  11.203 -1.5899  3.7567 -1.7342
 9021TIP3    H248479   1.494   1.250  11.354  1.8558 -0.1923 -1.3578
 9022TIP3   OH248480   1.477   5.916  16.557  0.2686  0.0709  0.0833
 9022TIP3    H148481   1.391   5.937  16.594  1.2080  1.5251  1.5913
 9022TIP3    H248482   1.495   5.989  16.497  0.9619  0.4224  0.7087
 9023TIP3   OH248483   1.397   3.361  14.269  0.5612 -0.3964  0.0486
 9023TIP3    H148484   1.466   3.299  14.293 -0.2063 -1.6962 -1.0139
 9023TIP3    H248485   1.319   3.328  14.313  0.1832 -0.0538 -0.3605
 9024TIP3   OH248486   0.445   2.191  16.633 -0.2416 -0.5270 -0.0751
 9024TIP3    H148487   0.436   2.281  16.602 -0.7675 -0.5536 -0.0056
 9024TIP3    H248488   0.512   2.153  16.576  0.4699  0.0942  0.3227
 9025TIP3   OH248489   1.634   0.517   5.245  0.3476  0.3189 -0.5438
 9025TIP3    H148490   1.543   0.528   5.219  0.6036  1.4007 -1.0512
 9025TIP3    H248491   1.676   0.599   5.218  0.7695  1.3254  2.6656
 9026TIP3   OH248492   2.425   1.608   1.875 -0.1073 -0.1858 -0.2510
 9026TIP3    H148493   2.492   1.674   1.890  0.1731 -0.1208 -1.5907
 9026TIP3    H248494   2.359   1.623   1.943 -0.1797  1.6549 -0.6825
 9027TIP3   OH248495   5.094   6.008  13.161 -0.4922  0.7759  0.1527
 9027TIP3    H148496   5.112   6.047  13.076 -0.2878  0.4228  0.0298
 9027TIP3    H248497   5.006   6.039  13.184 -1.9904 -1.6981 -1.7014
 9028TIP3   OH248498   4.317   0.108   5.908 -0.1238 -0.0177 -0.3311
 9028TIP3    H148499   4.272   0.166   5.970 -0.6047 -1.8853  1.1770
 9028TIP3    H248500   4.410   0.122   5.927 -0.2412  0.0011  0.2697
 9029TIP3   OH248501   2.572   5.158   3.288 -0.4084 -0.5088  0.0259
 9029TIP3    H148502   2.483   5.180   3.260  0.0517  1.6790  0.0453
 9029TIP3    H248503   2.563   5.077   3.338 -1.9186 -2.0232 -2.4972
 9030TIP3   OH248504   4.538   0.936   4.308  0.4364 -0.7029  0.7982
 9030TIP3    H148505   4.527   0.965   4.399 -0.2872 -1.0756  0.8411
 9030TIP3    H248506   4.503   0.846   4.308 -1.7212  0.0779 -0.3185
 9031TIP3   OH248507   0.866   0.178  11.610  0.2713  0.0791 -0.1332
 9031TIP3    H148508   0.886   0.130  11.529  1.1500  1.0398 -0.4952
 9031TIP3    H248509   0.771   0.191  11.607  0.2645 -0.1189 -0.8847
 9032TIP3   OH248510   5.570   0.239  14.950  0.2074  0.0958 -0.1901
 9032TIP3    H148511   5.624   0.318  14.946  1.2730 -0.6682 -1.2419
 9032TIP3    H248512   5.514   0.244  14.872  0.1817 -0.1289 -0.1863
 9033TIP3   OH248513   4.189   4.222   1.477  0.4242 -0.2408  0.3646
 9033TIP3    H148514   4.228   4.242   1.562  0.8269  1.7699 -0.2511
 9033TIP3    H248515   4.263   4.203   1.420  0.2603 -0.1193  0.1068
 9034TIP3   OH248516   5.428   5.086  11.748  0.3081  0.5532 -0.5459
 9034TIP3    H148517   5.426   4.991  11.757 -0.1151  0.6623  0.7143
 9034TIP3    H248518   5.357   5.117  11.805  0.3007  1.6121 -1.1024
 9035TIP3   OH248519   5.598   6.557  13.204  0.2448 -0.2705  0.2122
 9035TIP3    H148520   5.619   6.527  13.116 -0.6475 -0.6153  0.1040
 9035TIP3    H248521   5.503   6.571  13.203  0.4374  1.3118  0.6385
 9036TIP3   OH248522   4.076   1.305   4.427  0.6066 -0.2892 -0.3952
 9036TIP3    H148523   4.083   1.400   4.412  0.9277 -0.2153  0.2088
 9036TIP3    H248524   4.132   1.267   4.359  0.6311 -0.0358 -0.5204
 9037TIP3   OH248525   6.700   4.845   5.043  0.2390 -0.4689 -0.3108
 9037TIP3    H148526   6.627   4.800   5.001  0.2721 -0.3141 -0.5361
 9037TIP3    H248527   6.683   4.938   5.029 -0.9093 -0.2598  1.9033
 9038TIP3   OH248528   0.577   4.493   5.373  0.1757  0.1230 -0.3112
 9038TIP3    H148529   0.516   4.564   5.394  1.1621  0.7315  0.6087
 9038TIP3    H248530   0.536   4.447   5.300 -0.3561  1.8141 -1.1254
 9039TIP3   OH248531   5.477   3.497  12.487  0.3772 -0.3820 -0.2033
 9039TIP3    H148532   5.489   3.411  12.446  1.0509 -0.6392  0.5110
 9039TIP3    H248533   5.483   3.480  12.580  0.6241  0.4692 -0.0575
 9040TIP3   OH248534   4.202   2.508  14.153 -0.2507  0.1387 -0.0576
 9040TIP3    H148535   4.268   2.558  14.106 -1.0730  1.2786 -0.0258
 9040TIP3    H248536   4.252   2.445  14.205  0.7844  0.7302 -0.3220
 9041TIP3   OH248537   0.997   2.561  11.316 -1.0149 -0.4009  0.7597
 9041TIP3    H148538   0.969   2.581  11.227  1.0851  1.1935  0.3722
 9041TIP3    H248539   0.927   2.595  11.372 -1.3624  0.5563 -0.2281
 9042TIP3   OH248540   1.395   1.643  14.329  0.1544 -0.2120  0.3263
 9042TIP3    H148541   1.414   1.558  14.289  1.4684  0.4405 -0.5342
 9042TIP3    H248542   1.453   1.647  14.406  1.2242  0.4684 -0.4731
 9043TIP3   OH248543   0.603   2.452   1.227 -0.5221 -0.2843 -0.7039
 9043TIP3    H148544   0.524   2.457   1.173 -1.5839  1.1544  0.8716
 9043TIP3    H248545   0.635   2.542   1.231  0.6252 -0.6846 -0.4711
 9044TIP3   OH248546   4.398   3.855   3.147 -0.2152  0.1143  0.0141
 9044TIP3    H148547   4.426   3.771   3.110 -2.1696 -0.4540 -0.3273
 9044TIP3    H248548   4.401   3.916   3.073 -1.9329 -0.4819 -0.6016
 9045TIP3   OH248549   1.248   2.817  13.216  0.8188  0.3680  0.7104
 9045TIP3    H148550   1.247   2.756  13.290 -0.3994 -0.2773  0.1820
 9045TIP3    H248551   1.185   2.781  13.154  0.7074  1.7094  0.0069
 9046TIP3   OH248552   2.105   5.338   0.785 -0.5753 -0.2462 -0.3503
 9046TIP3    H148553   2.140   5.311   0.870  0.5478  0.0061 -0.7174
 9046TIP3    H248554   2.176   5.387   0.744 -0.9978 -0.5984 -1.5538
 9047TIP3   OH248555   3.153   6.042   5.389 -0.4618 -0.0897 -0.6866
 9047TIP3    H148556   3.224   5.988   5.422 -0.3931  0.3339 -0.1146
 9047TIP3    H248557   3.182   6.068   5.301 -0.0507 -0.1723 -0.5795
 9048TIP3   OH248558   6.281   0.470   1.771  0.3091  0.3013  0.3869
 9048TIP3    H148559   6.357   0.427   1.811  0.3963 -0.5656 -0.6470
 9048TIP3    H248560   6.284   0.443   1.679 -3.1914 -2.6724  0.9209
 9049TIP3   OH248561   6.728   0.552  13.515  0.7083 -0.1950 -0.2075
 9049TIP3    H148562   6.695   0.565  13.426  1.9398 -0.2529 -0.6991
 9049TIP3    H248563   6.714   0.459  13.532 -1.7702  0.2455  0.6478
 9050TIP3   OH248564   4.626   6.353  14.823 -1.0226  0.1887  0.6628
 9050TIP3    H148565   4.655   6.333  14.734 -0.7029  1.3997  0.4655
 9050TIP3    H248566   4.598   6.269  14.860  1.0130 -0.7325  0.2273
 9051TIP3   OH248567   3.844   4.061  10.892  0.7221 -0.0022 -0.0048
 9051TIP3    H148568   3.794   4.130  10.848  0.5047 -0.0629  0.1505
 9051TIP3    H248569   3.881   4.009  10.821  0.5530  0.0310 -0.1162
 9052TIP3   OH248570   0.465   3.570  10.746 -0.4795 -0.0500 -0.0224
 9052TIP3    H148571   0.547   3.578  10.697  0.4064 -1.4782  1.1076
 9052TIP3    H248572   0.465   3.644  10.806 -0.2963  0.2779 -0.4273
 9053TIP3   OH248573   4.911   3.712  16.732 -0.2717 -0.2337 -0.2420
 9053TIP3    H148574   4.968   3.644  16.697 -0.7588 -1.3317  1.0291
 9053TIP3    H248575   4.950   3.735  16.817  0.1688  1.4606 -0.8545
 9054TIP3   OH248576   2.763   4.632   1.516  0.4185 -0.9668  0.4074
 9054TIP3    H148577   2.853   4.619   1.487  1.1282  2.1759  0.7449
 9054TIP3    H248578   2.721   4.677   1.442 -0.1170 -0.2290  1.1419
 9055TIP3   OH248579   4.423   0.819  12.272 -0.0750  0.0755 -0.0526
 9055TIP3    H148580   4.484   0.836  12.200  0.5577 -1.4842  0.0701
 9055TIP3    H248581   4.407   0.905  12.311  1.2808  0.6464 -0.6975
 9056TIP3   OH248582   3.653   4.640  13.802 -0.4964  0.3238  0.6740
 9056TIP3    H148583   3.652   4.736  13.799  1.4181  0.4570  2.3224
 9056TIP3    H248584   3.600   4.618  13.879  1.9938  0.3409  2.5345
 9057TIP3   OH248585   2.403   3.149   1.632 -0.0500  0.2095  0.3106
 9057TIP3    H148586   2.432   3.061   1.606  0.2586  0.2689  0.4523
 9057TIP3    H248587   2.350   3.135   1.710 -1.4376 -0.0312 -0.6377
 9058TIP3   OH248588   0.242   6.227   1.041 -0.2574 -0.6770 -0.3135
 9058TIP3    H148589   0.151   6.212   1.016 -0.6714 -2.4112  1.9072
 9058TIP3    H248590   0.238   6.302   1.100 -0.1869 -0.5945 -0.4119
 9059TIP3   OH248591   5.951   1.206  16.383  0.7675  0.0271 -0.1978
 9059TIP3    H148592   5.884   1.248  16.330  0.0361 -0.2353  0.5010
 9059TIP3    H248593   5.931   1.113  16.377  2.3063 -0.2574 -1.6394
 9060TIP3   OH248594   4.274   1.102   2.560  0.4755  0.0853 -0.6148
 9060TIP3    H148595   4.252   1.145   2.477 -0.2631  0.8461 -0.0578
 9060TIP3    H248596   4.237   1.161   2.627 -0.5131 -1.3936  0.1943
 9061TIP3   OH248597   1.442   0.513   4.841  0.0839  0.2628  0.0135
 9061TIP3    H148598   1.419   0.420   4.834  1.7622 -0.1593 -0.4838
 9061TIP3    H248599   1.538   0.514   4.836  0.0996  2.0251  0.0651
 9062TIP3   OH248600   3.682   3.223  13.249 -0.0515 -0.1160 -0.1742
 9062TIP3    H148601   3.673   3.307  13.204  1.5913  0.3552  0.2825
 9062TIP3    H248602   3.776   3.216  13.267 -0.3687 -1.3425  1.1698
 9063TIP3   OH248603   0.555   0.423  10.731 -0.0251 -0.7533  0.7138
 9063TIP3    H148604   0.546   0.386  10.643  0.3152 -1.0046  0.7825
 9063TIP3    H248605   0.481   0.482  10.740 -0.3393 -1.1046  0.4455
 9064TIP3   OH248606   2.759   5.349   0.616  0.1413 -0.6025 -0.3961
 9064TIP3    H148607   2.842   5.313   0.584  0.2464 -0.2690 -0.5099
 9064TIP3    H248608   2.767   5.444   0.601  0.3821 -0.3761  1.0256
 9065TIP3   OH248609   6.399   6.024   3.639  0.0194  0.0147  0.4708
 9065TIP3    H148610   6.493   6.011   3.623  0.2698  0.6072  1.3564
 9065TIP3    H248611   6.373   5.948   3.691  0.0669 -0.0329  0.4252
 9066TIP3   OH248612   0.301   5.298  13.225  0.2987  0.2380  0.0075
 9066TIP3    H148613   0.379   5.331  13.180  1.2041 -0.4483  0.9998
 9066TIP3    H248614   0.229   5.317  13.166  1.3217  0.1796 -1.3076
 9067TIP3   OH248615   2.203   0.037   0.198  0.2315  0.1089  0.0413
 9067TIP3    H148616   2.244   0.104   0.143 -1.2689  2.0572  1.1220
 9067TIP3    H248617   2.109   0.049   0.184 -0.0951 -1.2603  0.8714
 9068TIP3   OH248618   1.854   0.024  13.998 -0.4241  0.3267  0.0874
 9068TIP3    H148619   1.818   0.106  13.965  0.3899 -0.4050 -2.9740
 9068TIP3    H248620   1.782  -0.038  13.993 -0.2352  0.1515 -0.7503
 9069TIP3   OH248621   3.206   3.766  17.104  0.4827 -0.5514 -0.2630
 9069TIP3    H148622   3.131   3.799  17.155  0.2107 -0.2943 -0.8199
 9069TIP3    H248623   3.280   3.818  17.135  0.3716 -0.5781  0.0552
 9070TIP3   OH248624   0.608   1.072   2.563  0.2944  0.2840  0.0640
 9070TIP3    H148625   0.533   1.077   2.621 -0.1183 -1.7411 -0.2117
 9070TIP3    H248626   0.681   1.045   2.619 -0.3305 -2.7392 -0.4003
 9071TIP3   OH248627   1.724   0.840  15.054 -0.1137 -0.1305  0.4560
 9071TIP3    H148628   1.630   0.821  15.062 -0.3239  0.9259  0.5946
 9071TIP3    H248629   1.727   0.932  15.030  0.9165 -0.0450  0.9081
 9072TIP3   OH248630   5.658   3.232   1.495 -0.5734  0.4112  0.1970
 9072TIP3    H148631   5.655   3.168   1.424 -2.8724  0.9308 -0.2407
 9072TIP3    H248632   5.648   3.179   1.575  0.9955 -0.0650  0.1176
 9073TIP3   OH248633   2.172   3.601  13.368  0.2640 -0.3963 -0.0877
 9073TIP3    H148634   2.148   3.670  13.306 -2.2885 -0.9414  0.1766
 9073TIP3    H248635   2.146   3.637  13.453 -0.5660 -1.4280  0.1121
 9074TIP3   OH248636   1.086   2.372   4.879  0.0883  0.4785 -0.6709
 9074TIP3    H148637   1.031   2.375   4.957 -2.7652  0.5905 -2.5474
 9074TIP3    H248638   1.088   2.462   4.848 -0.3690  0.1346 -1.7258
 9075TIP3   OH248639   5.132   1.756   5.383 -0.4160  0.3986 -0.3239
 9075TIP3    H148640   5.141   1.693   5.311 -2.5369 -0.1604 -0.1654
 9075TIP3    H248641   5.220   1.790   5.396  0.2091 -0.1779 -2.5648
 9076TIP3   OH248642   3.912   4.427  14.324 -0.0510  0.5086 -0.4155
 9076TIP3    H148643   3.927   4.456  14.234  3.0836  1.5011  0.2923
 9076TIP3    H248644   3.846   4.488  14.358 -0.4035  0.8678 -1.6807
 9077TIP3   OH248645   3.886   1.491  14.849 -0.0968 -0.1591 -0.3342
 9077TIP3    H148646   3.943   1.568  14.852 -0.7811  0.4298 -1.7738
 9077TIP3    H248647   3.915   1.437  14.923 -0.2412  1.9209  1.3444
 9078TIP3   OH248648   1.851   4.525  13.315 -0.2391 -0.5472 -0.2185
 9078TIP3    H148649   1.919   4.470  13.353 -0.5791 -0.4941  0.4809
 9078TIP3    H248650   1.896   4.578  13.249  0.0977 -1.6445 -0.8957
 9079TIP3   OH248651   0.404   3.874   2.345  0.0532  0.2055 -0.4749
 9079TIP3    H148652   0.425   3.966   2.328 -0.1155  0.5498  1.0397
 9079TIP3    H248653   0.482   3.826   2.317  0.5537  0.9068 -0.3254
 9080TIP3   OH248654   6.476   0.687  16.145 -0.1291  0.0596 -0.1404
 9080TIP3    H148655   6.463   0.746  16.070  1.7553  0.0077 -0.5652
 9080TIP3    H248656   6.523   0.612  16.108  1.8856  0.5611  1.2568
 9081TIP3   OH248657   6.171   0.301  11.252  0.0251 -0.1993 -0.2998
 9081TIP3    H148658   6.224   0.282  11.329 -1.8905 -0.1729  1.1135
 9081TIP3    H248659   6.171   0.219  11.202 -0.2938 -0.8624  0.7596
 9082TIP3   OH248660   1.502   3.083   4.800  0.6796  0.3764  0.0785
 9082TIP3    H148661   1.507   3.170   4.841 -2.9558  0.9831 -0.4195
 9082TIP3    H248662   1.469   3.026   4.870  0.2173  0.0804 -0.3759
 9083TIP3   OH248663   2.708   1.630  16.044  0.0559 -0.0270 -0.1582
 9083TIP3    H148664   2.750   1.561  15.992 -0.3899 -1.1675  0.9563
 9083TIP3    H248665   2.625   1.646  15.999  0.4181  0.2123 -0.7532
 9084TIP3   OH248666   4.782   2.313   1.315  0.5636 -0.0158 -0.6290
 9084TIP3    H148667   4.799   2.250   1.246 -0.5265  0.0446 -0.9809
 9084TIP3    H248668   4.860   2.368   1.319  1.0951 -0.7446 -1.0213
 9085TIP3   OH248669   1.228   0.982   4.851 -0.1375 -0.1691 -0.1441
 9085TIP3    H148670   1.243   0.895   4.813 -1.3101 -0.2541 -0.4541
 9085TIP3    H248671   1.240   1.042   4.777  2.0614  0.1040  0.3552
 9086TIP3   OH248672   0.560   5.284   2.297 -0.0477 -0.6609 -0.1603
 9086TIP3    H148673   0.584   5.373   2.321  1.3732 -0.3483 -2.4749
 9086TIP3    H248674   0.492   5.294   2.230  0.9400 -1.2266 -1.2919
 9087TIP3   OH248675   1.910   5.344   5.649 -0.1023 -0.1949 -0.4096
 9087TIP3    H148676   1.885   5.256   5.679  2.0446 -0.7929 -0.1833
 9087TIP3    H248677   1.854   5.360   5.573 -0.1570 -2.0162 -0.8065
 9088TIP3   OH248678   1.705   0.143  16.491  0.2596  0.5206 -0.8232
 9088TIP3    H148679   1.640   0.115  16.555  1.5810  0.9712  0.7782
 9088TIP3    H248680   1.655   0.187  16.423 -1.3256 -1.1546 -0.8105
 9089TIP3   OH248681   5.055   4.918  14.475  0.0971 -0.4094  0.5571
 9089TIP3    H148682   5.090   4.851  14.416  0.9433  0.5314 -0.0548
 9089TIP3    H248683   5.109   4.910  14.554 -0.0491 -0.6935  0.6283
 9090TIP3   OH248684   5.321   2.210   5.644  0.1255  0.0179  0.2650
 9090TIP3    H148685   5.414   2.210   5.668  0.0296  1.9537  0.8243
 9090TIP3    H248686   5.289   2.125   5.672  2.1989 -1.6830 -2.0387
 9091TIP3   OH248687   2.597   4.596   3.773  0.3779  0.1550 -0.3815
 9091TIP3    H148688   2.537   4.634   3.838 -1.3712 -1.9308 -0.6524
 9091TIP3    H248689   2.602   4.503   3.797  1.5123 -0.2235 -1.9143
 9092TIP3   OH248690   1.741   2.696  13.675  0.2486  0.4751  0.4698
 9092TIP3    H148691   1.740   2.613  13.627 -1.8948  0.4294  0.4780
 9092TIP3    H248692   1.777   2.759  13.613 -0.2720 -0.0394 -0.3858
 9093TIP3   OH248693   6.312   3.038  16.070  0.1911 -0.3319  0.4923
 9093TIP3    H148694   6.304   3.088  16.151  0.7636 -1.2205  1.1158
 9093TIP3    H248695   6.222   3.024  16.041  0.0077  2.4766 -0.6358
 9094TIP3   OH248696   1.481   6.744  14.735  0.1800 -0.0975 -0.1031
 9094TIP3    H148697   1.463   6.806  14.805 -1.0604 -0.9957  0.3860
 9094TIP3    H248698   1.571   6.765  14.707  0.2577  1.0264  0.9447
 9095TIP3   OH248699   3.301   1.633   0.975 -0.7387  0.4338  0.3032
 9095TIP3    H148700   3.215   1.673   0.962  0.5436  3.7982  1.1623
 9095TIP3    H248701   3.335   1.674   1.055  1.3799 -1.4334  0.4805
 9096TIP3   OH248702   5.353   4.036  14.539 -0.5376  0.7022 -0.4971
 9096TIP3    H148703   5.343   4.103  14.606 -0.7885  1.0922 -0.9190
 9096TIP3    H248704   5.265   4.025  14.503 -0.2686  1.0330 -1.2713
 9097TIP3   OH248705   2.845   6.471   4.500 -0.2475 -0.7343 -0.0146
 9097TIP3    H148706   2.840   6.421   4.418 -0.6152 -3.0565  1.3263
 9097TIP3    H248707   2.936   6.459   4.529  0.9870  3.0629 -1.7267
 9098TIP3   OH248708   5.806   0.464   5.062 -0.1164  0.3799 -0.2600
 9098TIP3    H148709   5.812   0.428   5.150  2.2900  0.9702 -0.1123
 9098TIP3    H248710   5.759   0.397   5.012 -1.7202  0.1326  1.4722
 9099TIP3   OH248711   1.115   1.367   0.072 -0.1088 -0.1250  0.2058
 9099TIP3    H148712   1.116   1.460   0.094  0.8354 -0.0927  0.0482
 9099TIP3    H248713   1.201   1.350   0.034 -0.7344 -0.7847 -0.9633
 9100TIP3   OH248714   4.137   1.664  12.932  0.3214  0.0130 -0.3775
 9100TIP3    H148715   4.205   1.661  12.999 -0.2687  0.6882  0.2685
 9100TIP3    H248716   4.185   1.660  12.849  1.1060 -0.0702  0.0734
 9101TIP3   OH248717   1.076   4.914  14.541 -0.3571 -0.9748  0.1135
 9101TIP3    H148718   1.017   4.851  14.582 -1.3372 -0.5488 -0.6174
 9101TIP3    H248719   1.114   4.867  14.467 -2.2955 -0.2709 -1.4013
 9102TIP3   OH248720   5.933   6.553  15.385  0.0271 -0.2580  0.1840
 9102TIP3    H148721   5.937   6.488  15.455 -0.1235  0.3499  0.7786
 9102TIP3    H248722   5.848   6.538  15.343  0.4848 -1.1856 -0.4414
 9103TIP3   OH248723   6.454   0.736  14.415  0.5543  0.0183  0.2180
 9103TIP3    H148724   6.405   0.715  14.494  0.5773 -2.0892 -0.2598
 9103TIP3    H248725   6.398   0.797  14.367  0.3154  0.9248  1.5887
 9104TIP3   OH248726   1.592   5.360  15.105 -0.2916  0.1463  0.5974
 9104TIP3    H148727   1.592   5.403  15.191 -0.7145 -1.9466  1.7227
 9104TIP3    H248728   1.529   5.409  15.053  2.8677  4.0539 -0.0188
 9105TIP3   OH248729   4.153   6.462  12.008 -0.5628  0.2883  0.3747
 9105TIP3    H148730   4.128   6.398  11.941 -1.8571 -0.3475  1.4238
 9105TIP3    H248731   4.149   6.414  12.090  2.4917  0.6367  0.8531
 9106TIP3   OH248732   1.563   3.656   2.501  0.0530 -0.0218 -0.3219
 9106TIP3    H148733   1.651   3.692   2.491 -1.0098  3.1340  0.5898
 9106TIP3    H248734   1.553   3.642   2.595 -0.3660 -0.5267 -0.4374
 9107TIP3   OH248735   1.267   0.569  14.241  0.5604 -0.1576  0.4462
 9107TIP3    H148736   1.183   0.530  14.219  1.2366 -0.4846 -1.7545
 9107TIP3    H248737   1.291   0.530  14.325  0.1076 -2.7147 -0.5458
 9108TIP3   OH248738   6.099   5.628  16.867  0.1962 -0.1605  0.3346
 9108TIP3    H148739   6.050   5.707  16.843  0.5196 -0.1535 -0.3172
 9108TIP3    H248740   6.067   5.560  16.808 -0.1897 -0.5616  0.9951
 9109TIP3   OH248741   2.329   3.766  15.282  1.2158  0.0052 -0.2462
 9109TIP3    H148742   2.401   3.822  15.251  1.7457  0.5178  1.7333
 9109TIP3    H248743   2.261   3.828  15.309  1.6289 -0.2535  1.5339
 9110TIP3   OH248744   2.767   1.011   0.165 -0.4944  0.0141 -0.0652
 9110TIP3    H148745   2.845   0.979   0.119  0.4256  2.1467 -0.0972
 9110TIP3    H248746   2.722   1.066   0.100 -0.6435  0.8611  0.7390
 9111TIP3   OH248747   4.123   6.718   3.610  0.5933  0.0103  0.3739
 9111TIP3    H148748   4.082   6.738   3.526  0.5371 -0.7280  0.2161
 9111TIP3    H248749   4.188   6.651   3.590  0.2371 -0.5306  0.9905
 9112TIP3   OH248750   5.564   2.598   3.331  0.1196 -0.5508 -0.2958
 9112TIP3    H148751   5.658   2.590   3.349  0.2900 -0.7084 -1.2088
 9112TIP3    H248752   5.542   2.519   3.282 -0.3520 -0.2203 -0.6310
 9113TIP3   OH248753   3.587   5.785   0.469 -0.1762  0.2947 -0.9947
 9113TIP3    H148754   3.622   5.725   0.403  0.3104  1.2696 -1.6631
 9113TIP3    H248755   3.664   5.832   0.501 -0.2202 -1.0206  1.2183
 9114TIP3   OH248756   4.181   0.571  11.065  0.7008 -0.0501 -0.1203
 9114TIP3    H148757   4.103   0.555  11.118  0.2855  0.5253 -0.5513
 9114TIP3    H248758   4.249   0.517  11.106 -0.2002 -1.4971 -0.4414
 9115TIP3   OH248759   6.575   4.126   0.682  0.4926 -0.4258 -0.5239
 9115TIP3    H148760   6.552   4.209   0.641  0.7457 -0.4746 -0.7667
 9115TIP3    H248761   6.491   4.088   0.708  0.4167  0.2178  0.2015
 9116TIP3   OH248762   6.100   3.202  16.300  0.7290 -0.2032 -0.3319
 9116TIP3    H148763   6.027   3.260  16.321 -0.9788 -1.7984 -1.5587
 9116TIP3    H248764   6.135   3.174  16.385 -0.4067  0.1845  0.2731
 9117TIP3   OH248765   1.923   0.283  13.092 -0.0500 -0.2030  0.3496
 9117TIP3    H148766   1.836   0.253  13.119 -0.3800  0.1575 -0.3018
 9117TIP3    H248767   1.907   0.334  13.013  0.5427  1.3470  1.1952
 9118TIP3   OH248768   1.781   4.409   1.434  0.3737 -0.0035 -0.0816
 9118TIP3    H148769   1.741   4.325   1.410  0.4954 -0.1624  0.2627
 9118TIP3    H248770   1.724   4.475   1.393 -0.4227 -0.2157  0.6367
 9119TIP3   OH248771   6.732   1.678   4.340  0.2228  0.1605 -0.4946
 9119TIP3    H148772   6.688   1.671   4.255  1.1585 -0.9186 -0.9070
 9119TIP3    H248773   6.691   1.610   4.394  0.8417 -0.3248 -0.6350
 9120TIP3   OH248774   0.460   0.513   3.222  0.5707  0.0083  0.5300
 9120TIP3    H148775   0.487   0.567   3.148  1.7164  0.0824  0.9828
 9120TIP3    H248776   0.368   0.535   3.236  0.2712 -0.1397 -0.9769
 9121TIP3   OH248777   5.597   1.401   5.356 -0.3058 -0.1925 -0.2678
 9121TIP3    H148778   5.565   1.473   5.301 -1.4794 -0.3279  0.2153
 9121TIP3    H248779   5.526   1.385   5.417 -0.2010 -1.9913 -0.5848
 9122TIP3   OH248780   6.099   2.734  15.372  0.5249 -0.6246 -0.1879
 9122TIP3    H148781   6.179   2.760  15.326  1.2040  0.9523  1.7482
 9122TIP3    H248782   6.034   2.799  15.345  0.6427 -0.3070  0.2888
 9123TIP3   OH248783   2.521   6.619  16.888 -0.4959 -0.3724  0.5348
 9123TIP3    H148784   2.463   6.543  16.893 -1.3242  0.2664  0.8184
 9123TIP3    H248785   2.471   6.690  16.928  0.1438  0.4017 -0.0061
 9124TIP3   OH248786   4.622   1.668   0.666  0.0351 -0.2991 -0.4715
 9124TIP3    H148787   4.540   1.619   0.665 -0.9027  1.1682  0.0273
 9124TIP3    H248788   4.628   1.702   0.755  0.8143  0.1852 -0.7033
 9125TIP3   OH248789   5.458   2.666  10.761 -0.0837 -0.3139  0.1632
 9125TIP3    H148790   5.523   2.596  10.767  0.6039  0.0607 -1.9424
 9125TIP3    H248791   5.374   2.621  10.760  0.1426 -0.8657  1.9054
 9126TIP3   OH248792   5.834   6.295  13.252  0.1304  0.3294  0.1840
 9126TIP3    H148793   5.795   6.268  13.169 -2.3701  1.9707  0.7426
 9126TIP3    H248794   5.857   6.387  13.240  1.0087  0.2274  0.9023
 9127TIP3   OH248795   4.039   1.462  14.590 -0.1471 -0.0299 -0.1794
 9127TIP3    H148796   3.955   1.434  14.626  0.2012  1.3469  1.8970
 9127TIP3    H248797   4.094   1.383  14.591 -0.1383 -0.1126  2.5578
 9128TIP3   OH248798   6.254   5.515   1.215 -0.1671  0.5868  0.4318
 9128TIP3    H148799   6.315   5.487   1.283  0.5882  1.1610  0.0081
 9128TIP3    H248800   6.288   5.600   1.186 -1.0564  0.8256  0.0488
 9129TIP3   OH248801   3.283   5.418  11.739 -0.5275  0.9363  0.4167
 9129TIP3    H148802   3.313   5.509  11.738  0.2435  0.6850  0.2558
 9129TIP3    H248803   3.330   5.377  11.666 -2.0527  0.7712 -0.5163
 9130TIP3   OH248804   4.540   2.534  11.910  0.5402  0.4800  0.4235
 9130TIP3    H148805   4.483   2.610  11.899  0.9438  0.8733  1.0166
 9130TIP3    H248806   4.481   2.459  11.899 -0.3119  0.8681  2.0252
 9131TIP3   OH248807   5.814   3.717  11.977  0.1366 -0.4994  0.1956
 9131TIP3    H148808   5.771   3.637  11.948  0.5865 -0.5369 -0.4013
 9131TIP3    H248809   5.753   3.756  12.039  0.8659 -2.4397  2.2778
 9132TIP3   OH248810   5.599   5.245   6.189  0.2903  0.3541 -0.3659
 9132TIP3    H148811   5.670   5.256   6.252 -0.7230 -1.6951  1.2691
 9132TIP3    H248812   5.537   5.187   6.233 -1.6734  0.8252 -2.3306
 9133TIP3   OH248813   0.962   4.753   5.876  0.6267 -0.1970 -0.1860
 9133TIP3    H148814   1.024   4.739   5.805  2.5654 -1.9300  1.7067
 9133TIP3    H248815   0.977   4.844   5.903  2.7097 -0.6969  0.4923
 9134TIP3   OH248816   6.321   0.139   4.189 -0.0513 -0.3999 -0.5583
 9134TIP3    H148817   6.292   0.049   4.176 -0.3301 -0.2544 -0.9356
 9134TIP3    H248818   6.260   0.175   4.253 -0.7538 -0.0745 -1.3980
 9135TIP3   OH248819   2.097   0.145  11.152 -0.1897 -0.0248 -0.3892
 9135TIP3    H148820   2.111   0.227  11.106 -0.7045 -0.4273 -1.2964
 9135TIP3    H248821   2.167   0.087  11.120 -0.8660 -0.4714 -1.1028
 9136TIP3   OH248822   2.728   6.295  13.121 -0.6677 -0.1807 -0.6528
 9136TIP3    H148823   2.653   6.323  13.068  1.0554  1.7388 -2.2008
 9136TIP3    H248824   2.763   6.376  13.158 -0.6302 -1.2704  1.9230
 9137TIP3   OH248825   2.983   4.153  11.084 -0.2197  0.4301  0.7210
 9137TIP3    H148826   2.950   4.242  11.074  0.0923  0.3942 -0.9178
 9137TIP3    H248827   3.021   4.132  10.999  1.1868 -0.6802  1.5785
 9138TIP3   OH248828   4.511   1.144   4.029  0.3242  0.1765 -0.5268
 9138TIP3    H148829   4.465   1.153   3.946 -1.3141 -1.9220  0.0690
 9138TIP3    H248830   4.473   1.211   4.085 -1.0502 -0.6054 -0.4813
 9139TIP3   OH248831   1.598   2.224   4.713  0.0277 -0.1408  0.3235
 9139TIP3    H148832   1.571   2.175   4.791  0.8336  1.5786  1.7601
 9139TIP3    H248833   1.662   2.287   4.745 -0.8438  1.7675 -1.4230
 9140TIP3   OH248834   4.447   3.089  14.028  0.1576 -0.0395  0.0154
 9140TIP3    H148835   4.454   2.998  14.000  1.7285  0.3011 -0.8496
 9140TIP3    H248836   4.470   3.088  14.121 -3.4592 -0.9680  1.0341
 9141TIP3   OH248837   5.730   2.883  10.609  0.0054 -0.2531 -0.1804
 9141TIP3    H148838   5.648   2.897  10.657  0.2846  0.6862  0.0525
 9141TIP3    H248839   5.703   2.872  10.518 -0.2774  2.4979 -0.5219
 9142TIP3   OH248840   2.390   5.210   4.397  0.1318 -0.4362  0.0109
 9142TIP3    H148841   2.304   5.252   4.407  1.2341  1.5866  1.7744
 9142TIP3    H248842   2.394   5.185   4.304 -2.0977 -0.0755 -0.2388
 9143TIP3   OH248843   2.767   4.716   4.851 -0.2898 -0.0818 -0.2737
 9143TIP3    H148844   2.736   4.796   4.891  1.1392  1.0682 -1.3261
 9143TIP3    H248845   2.755   4.649   4.918  0.4729  1.4162  1.4496
 9144TIP3   OH248846   2.984   5.757  11.484  0.0744 -0.4481  0.5726
 9144TIP3    H148847   3.053   5.769  11.419 -0.4566  2.3574  0.4108
 9144TIP3    H248848   2.927   5.690  11.446  2.2195 -2.3008  0.3766
 9145TIP3   OH248849   3.025   0.679   0.326  0.0288 -0.0345  0.2415
 9145TIP3    H148850   3.006   0.754   0.382 -0.5155 -0.2711  0.3763
 9145TIP3    H248851   3.120   0.667   0.333  0.0877  0.5005  0.3911
 9146TIP3   OH248852   5.160   5.073   2.522  0.4371  0.1491  0.2573
 9146TIP3    H148853   5.075   5.045   2.557  0.2747 -0.9060 -0.9047
 9146TIP3    H248854   5.142   5.158   2.481  0.3531  0.7710  1.5181
 9147TIP3   OH248855   1.379   4.192  14.373 -0.2897  0.3678  0.1838
 9147TIP3    H148856   1.317   4.166  14.305  1.3793  0.3086 -1.3826
 9147TIP3    H248857   1.396   4.111  14.422  0.0120 -0.0504 -0.6017
 9148TIP3   OH248858   3.483   2.146   0.139 -0.6958 -0.3377 -0.1589
 9148TIP3    H148859   3.479   2.130   0.045  0.2570  0.3708 -0.3378
 9148TIP3    H248860   3.485   2.058   0.178  0.8696 -0.6796 -0.9145
 9149TIP3   OH248861   2.949   5.408  14.931  0.0134  0.6246  0.4358
 9149TIP3    H148862   3.035   5.414  14.890 -0.6474 -0.0210 -1.1180
 9149TIP3    H248863   2.888   5.433  14.862 -1.2992 -2.6792  0.1976
 9150TIP3   OH248864   3.076   3.979   2.202  0.4179 -0.0007 -0.2510
 9150TIP3    H148865   3.030   3.898   2.222  1.9236 -0.2023  2.9940
 9150TIP3    H248866   3.008   4.046   2.201 -0.7649 -1.1037 -2.3788
 9151TIP3   OH248867   0.343   5.747  16.003  0.1791  0.5189 -0.2763
 9151TIP3    H148868   0.258   5.790  16.001 -1.6124 -2.6510  0.3808
 9151TIP3    H248869   0.347   5.699  15.920  1.5247  0.8995 -0.4492
 9152TIP3   OH248870   5.309   3.399   0.737 -0.5681 -0.0313  0.0262
 9152TIP3    H148871   5.317   3.306   0.712 -1.2543  0.1326 -0.8542
 9152TIP3    H248872   5.386   3.415   0.792  0.1953 -0.8188 -0.7731
 9153TIP3   OH248873   0.219   5.383   5.026  0.2414  0.0334  0.1913
 9153TIP3    H148874   0.261   5.337   5.099 -0.7704  0.2903  0.9578
 9153TIP3    H248875   0.240   5.329   4.949  0.4960 -0.7806  0.8119
 9154TIP3   OH248876   2.543   1.869   4.660  0.4986  0.0647  0.1253
 9154TIP3    H148877   2.639   1.876   4.659  0.5618 -0.3367  1.6976
 9154TIP3    H248878   2.517   1.901   4.746 -0.9379  1.6462 -0.8338
 9155TIP3   OH248879   5.042   0.059   1.469 -0.2919  0.7976  0.3251
 9155TIP3    H148880   4.986   0.006   1.526 -1.4587  1.0862 -0.5073
 9155TIP3    H248881   5.038   0.147   1.505  0.4803  0.6278  0.8604
 9156TIP3   OH248882   6.227   4.995  14.995 -0.3183 -0.3142  0.0319
 9156TIP3    H148883   6.162   5.065  14.994  0.4448  0.4410  1.3000
 9156TIP3    H248884   6.205   4.941  14.919 -1.5686  0.6982 -0.3570
 9157TIP3   OH248885   6.740   1.677  15.607 -0.0085 -0.5334  0.4659
 9157TIP3    H148886   6.652   1.685  15.571  0.3579  3.1589  0.0234
 9157TIP3    H248887   6.737   1.725  15.690  1.6197 -0.1890  0.3608
 9158TIP3   OH248888   5.017   4.127   4.034 -0.1632  0.0523 -0.6569
 9158TIP3    H148889   5.041   4.190   4.103  0.6774  1.1049 -1.8649
 9158TIP3    H248890   5.028   4.176   3.953  0.7760 -1.7619 -1.6636
 9159TIP3   OH248891   2.936   4.509   0.377 -0.6395 -0.0226  0.2592
 9159TIP3    H148892   2.967   4.457   0.452 -1.0262 -0.0821  0.3788
 9159TIP3    H248893   2.994   4.482   0.305  0.5805  0.9770  0.8207
 9160TIP3   OH248894   3.683   4.960  13.534 -0.0127 -0.5661 -0.1603
 9160TIP3    H148895   3.656   4.974  13.624  1.8849  1.9902  0.1312
 9160TIP3    H248896   3.630   4.887  13.503 -0.6506 -1.5779  3.0279
 9161TIP3   OH248897   3.319   2.360   0.189  0.1933 -0.3819  0.0141
 9161TIP3    H148898   3.390   2.299   0.171  0.1703 -0.2283 -0.6533
 9161TIP3    H248899   3.239   2.307   0.184  0.2350 -0.4812  0.3907
 9162TIP3   OH248900   3.320   2.977  10.606 -0.3515  0.0289  0.2075
 9162TIP3    H148901   3.319   3.055  10.663  1.1460  0.7424 -0.6782
 9162TIP3    H248902   3.311   3.012  10.517  1.8029 -0.6278 -0.3322
 9163TIP3   OH248903   5.671   4.297  17.038 -0.1051  0.0743  0.3104
 9163TIP3    H148904   5.577   4.316  17.039 -0.2097  0.5658 -3.5324
 9163TIP3    H248905   5.681   4.223  17.098 -2.3762  1.7769  3.0590
 9164TIP3   OH248906   3.343   4.553   5.952  0.1383  0.0184 -0.0559
 9164TIP3    H148907   3.355   4.646   5.967  0.1082 -0.1173  0.8640
 9164TIP3    H248908   3.250   4.544   5.931  0.6601  0.5329 -3.0144
 9165TIP3   OH248909   5.983   2.050   4.093  0.5514 -0.0557  0.0950
 9165TIP3    H148910   5.968   2.115   4.161  1.2263 -0.2129  0.4048
 9165TIP3    H248911   6.075   2.025   4.103  1.0551  0.8764 -1.6924
 9166TIP3   OH248912   4.365   3.270  15.178 -0.0156 -0.3003  0.2484
 9166TIP3    H148913   4.351   3.361  15.207 -0.4208  0.2250 -1.4806
 9166TIP3    H248914   4.322   3.266  15.093  1.2814 -1.7071 -0.3730
 9167TIP3   OH248915   1.016   1.923  16.715 -0.5393  0.1492 -0.0030
 9167TIP3    H148916   1.070   1.861  16.666 -1.1787 -0.2674 -0.1914
 9167TIP3    H248917   1.074   1.957  16.783 -0.0334 -0.2625 -0.2252
 9168TIP3   OH248918   1.166   5.050   4.635 -0.2113 -0.9019 -0.3008
 9168TIP3    H148919   1.136   4.971   4.591 -0.5469 -0.6686 -0.4912
 9168TIP3    H248920   1.143   5.037   4.727 -0.3951 -0.9629 -0.3554
 9169TIP3   OH248921   5.830   4.400  16.179 -0.3395  0.6736  0.6828
 9169TIP3    H148922   5.797   4.469  16.122  0.8081  0.6283 -0.0659
 9169TIP3    H248923   5.781   4.411  16.261 -1.0841  1.5554  0.1403
 9170TIP3   OH248924   3.972   4.934  13.561 -0.0142  0.2795  0.1919
 9170TIP3    H148925   3.972   5.008  13.623  0.5532  0.8344 -0.4499
 9170TIP3    H248926   3.883   4.933  13.526 -0.3574 -0.0700  1.0386
 9171TIP3   OH248927   6.538   1.558  12.902 -0.3055 -0.3228 -0.0280
 9171TIP3    H148928   6.611   1.578  12.960 -1.2766  0.1922  1.0395
 9171TIP3    H248929   6.527   1.463  12.910 -0.3336 -0.2767  0.5169
 9172TIP3   OH248930   4.283   1.685   5.102 -0.3443  0.1506  0.0686
 9172TIP3    H148931   4.314   1.594   5.098 -2.0515 -0.4671 -0.1759
 9172TIP3    H248932   4.306   1.722   5.017  3.0755  0.9673  1.1952
 9173TIP3   OH248933   4.934   5.633  10.508 -0.0183 -0.4207 -0.0681
 9173TIP3    H148934   4.973   5.612  10.592  1.2400  0.3365 -0.4349
 9173TIP3    H248935   4.840   5.617  10.520  0.2390 -1.0875  1.2158
 9174TIP3   OH248936   3.360   3.955   0.237  0.1870 -0.4880  0.1220
 9174TIP3    H148937   3.330   3.864   0.227 -0.3506 -0.1650 -1.4355
 9174TIP3    H248938   3.408   3.974   0.157 -0.4818  0.8923  0.0155
 9175TIP3   OH248939   2.730   3.995  11.904 -0.1101 -0.0576 -0.2020
 9175TIP3    H148940   2.718   4.024  11.814  0.6406 -1.3507 -0.7491
 9175TIP3    H248941   2.690   4.063  11.957 -0.3876  0.8247 -1.5055
 9176TIP3   OH248942   6.460   2.568   5.843  0.3477  0.0639  0.5899
 9176TIP3    H148943   6.388   2.505   5.839 -0.0314  0.5611 -0.8760
 9176TIP3    H248944   6.432   2.632   5.908 -0.2341 -0.1024  0.5050
 9177TIP3   OH248945   6.747   1.147  17.140 -0.3480 -0.3615  0.3052
 9177TIP3    H148946   6.797   1.111  17.066 -0.7642  0.9596 -0.6573
 9177TIP3    H248947   6.704   1.071  17.179  3.3947 -1.8245  2.0400
 9178TIP3   OH248948   4.576   2.599  14.827  0.0565  0.6073 -0.0331
 9178TIP3    H148949   4.626   2.578  14.905 -0.9443 -1.7910  0.0559
 9178TIP3    H248950   4.642   2.617  14.760  0.9530  1.0100  0.9410
 9179TIP3   OH248951   4.084   0.809  17.175 -0.4202 -0.3440 -0.3691
 9179TIP3    H148952   4.106   0.862  17.098 -1.0684 -1.0234 -1.0473
 9179TIP3    H248953   4.156   0.746  17.183 -0.1547 -0.0159 -0.1789
 9180TIP3   OH248954   0.742   5.725   5.790  0.1083 -0.2513  0.1373
 9180TIP3    H148955   0.704   5.806   5.823  0.5173 -0.1072  0.2567
 9180TIP3    H248956   0.832   5.748   5.768 -0.1078 -0.3706 -0.9621
 9181TIP3   OH248957   6.413   6.703  11.782 -0.0614 -0.1374  0.3464
 9181TIP3    H148958   6.486   6.693  11.721 -0.5564 -3.5936  0.1094
 9181TIP3    H248959   6.453   6.736  11.862  1.1953  0.9184 -0.6638
 9182TIP3   OH248960   6.709   5.195   1.733  0.2847 -0.5702  0.2755
 9182TIP3    H148961   6.652   5.221   1.805  1.9249  0.4551  1.2655
 9182TIP3    H248962   6.658   5.213   1.654  0.2776  3.2978  0.9714
 9183TIP3   OH248963   2.124   6.436  12.930 -0.1557  0.4338 -0.6316
 9183TIP3    H148964   2.124   6.504  12.997  0.4376  0.6645 -0.8613
 9183TIP3    H248965   2.196   6.378  12.954 -1.5690 -1.0024  0.4277
 9184TIP3   OH248966   6.584   3.689  11.966  0.4102 -0.5678  0.1035
 9184TIP3    H148967   6.609   3.729  12.049  2.2995  0.3086 -0.8351
 9184TIP3    H248968   6.503   3.734  11.942 -1.1956 -2.0792  2.2483
 9185TIP3   OH248969   4.172   3.274  11.893 -0.4433  0.2739 -0.0994
 9185TIP3    H148970   4.211   3.264  11.806  0.4299 -0.6363  0.3761
 9185TIP3    H248971   4.241   3.245  11.953 -1.5217 -0.4578  0.8180
 9186TIP3   OH248972   1.332   6.452   3.607 -0.0385 -0.5845  0.1059
 9186TIP3    H148973   1.361   6.543   3.605 -2.9996  0.4873 -2.0993
 9186TIP3    H248974   1.239   6.457   3.630  0.2251 -3.3095  2.2305
 9187TIP3   OH248975   0.023   2.306  15.584 -0.5431 -0.4547  0.5568
 9187TIP3    H148976   0.021   2.221  15.540  1.6736 -0.4706  0.3969
 9187TIP3    H248977   0.047   2.369  15.516  3.3276 -0.5395  1.6555
 9188TIP3   OH248978   4.134   0.407   3.295  0.5746  0.2623 -0.4243
 9188TIP3    H148979   4.185   0.336   3.332  0.4191  0.7134  0.6859
 9188TIP3    H248980   4.196   0.480   3.288  1.0241 -0.2375 -2.5583
 9189TIP3   OH248981   5.336   1.512   0.016 -0.6005 -0.1680 -0.3928
 9189TIP3    H148982   5.408   1.474  -0.034  0.1766  0.2867  0.3466
 9189TIP3    H248983   5.370   1.597   0.046 -1.7570  0.4363 -0.7479
 9190TIP3   OH248984   1.232   1.898  15.622 -0.6323 -0.2729  0.2869
 9190TIP3    H148985   1.193   1.816  15.592  0.2342 -0.6295  0.1282
 9190TIP3    H248986   1.163   1.964  15.608 -1.6645 -1.1072  1.2660
 9191TIP3   OH248987   6.041   5.074  16.914  0.2227  0.2418 -0.0709
 9191TIP3    H148988   5.982   5.126  16.968  0.6258 -0.1198  0.7346
 9191TIP3    H248989   6.124   5.074  16.962  0.6283  0.0113 -0.7509
 9192TIP3   OH248990   3.063   6.239   3.297  0.2197  0.0858 -0.4606
 9192TIP3    H148991   3.116   6.164   3.325 -0.0736  0.6125  1.7451
 9192TIP3    H248992   3.052   6.291   3.377 -2.3674  0.7686 -1.1551
 9193TIP3   OH248993   6.591   5.338   5.798  0.6582  0.6298  0.3754
 9193TIP3    H148994   6.572   5.382   5.715  1.2513 -0.5171 -0.4103
 9193TIP3    H248995   6.639   5.259   5.772  0.9297  0.2896  1.8281
 9194TIP3   OH248996   4.803   6.679   5.006 -0.4074 -0.3638 -0.4124
 9194TIP3    H148997   4.897   6.665   5.011 -0.1871  0.7742 -1.1440
 9194TIP3    H248998   4.779   6.719   5.089 -0.4784 -1.8087  0.2947
 9195TIP3   OH248999   4.750   5.155   1.280  0.1761  0.0691  0.2488
 9195TIP3    H149000   4.814   5.102   1.233  1.4472 -1.1057  3.1183
 9195TIP3    H249001   4.801   5.204   1.345 -1.4075  2.1646  0.0399
 9196TIP3   OH249002   0.988   0.570   5.183  0.1322  0.4502 -0.8119
 9196TIP3    H149003   0.976   0.482   5.148  2.2858 -0.2639  0.0664
 9196TIP3    H249004   0.902   0.595   5.217 -0.5342 -1.2702 -1.1605
 9197TIP3   OH249005   4.707   3.828  14.678 -0.1553 -0.0125  0.0551
 9197TIP3    H149006   4.622   3.824  14.635  0.0920  1.2461 -0.6175
 9197TIP3    H249007   4.702   3.906  14.734 -0.1571 -1.1176  1.6551
 9198TIP3   OH249008   1.659   5.350  11.334 -0.8035 -0.5679  0.5925
 9198TIP3    H149009   1.705   5.266  11.334  0.0043 -0.1318  0.3126
 9198TIP3    H249010   1.656   5.376  11.242 -1.4986 -0.5238  0.6206
 9199TIP3   OH249011   3.061   5.424  12.465 -0.2893  0.4855 -0.2277
 9199TIP3    H149012   3.025   5.366  12.398  0.3105 -0.5171  0.2887
 9199TIP3    H249013   3.118   5.484  12.417  0.9126 -0.8448 -0.5531
 9200TIP3   OH249014   2.195   0.824  15.067 -0.0351  0.5889  0.1104
 9200TIP3    H149015   2.111   0.841  15.026 -0.4012 -0.9659  0.1468
 9200TIP3    H249016   2.181   0.846  15.159 -0.7823 -0.7208  0.3398
 9201TIP3   OH249017   6.382   2.023   1.608 -0.0587  0.1858  0.0046
 9201TIP3    H149018   6.474   2.016   1.635 -0.1209  1.3104  0.5441
 9201TIP3    H249019   6.370   2.115   1.588 -1.0810  0.0515 -0.0362
 9202TIP3   OH249020   6.677   1.168   4.029 -0.7523 -0.1398  0.3223
 9202TIP3    H149021   6.697   1.155   4.121 -0.0708 -0.2678  0.1605
 9202TIP3    H249022   6.645   1.258   4.024  0.5318  0.3478  0.4830
 9203TIP3   OH249023   0.537   0.246   3.615 -0.3910 -0.1798 -0.3637
 9203TIP3    H149024   0.552   0.153   3.630  0.6093  0.0019 -0.0918
 9203TIP3    H249025   0.570   0.262   3.527 -0.4984 -0.0759 -0.3847
 9204TIP3   OH249026   4.380   4.841   4.331 -0.6140  0.3397  0.0058
 9204TIP3    H149027   4.453   4.817   4.275  0.2193  1.7019  0.4639
 9204TIP3    H249028   4.306   4.850   4.272 -0.0964  0.3057 -0.6577
 9205TIP3   OH249029   2.914   0.418  12.028 -0.1607  0.7640  0.6674
 9205TIP3    H149030   2.861   0.487  11.988 -0.6663  0.4227  0.7423
 9205TIP3    H249031   2.871   0.400  12.111 -0.0887  0.2824  0.6014
 9206TIP3   OH249032   1.854   5.075  16.426  0.0471  0.5193 -0.2280
 9206TIP3    H149033   1.772   5.108  16.462 -0.5727  0.5846 -1.6240
 9206TIP3    H249034   1.919   5.142  16.449 -0.7188  1.5372 -0.9099
 9207TIP3   OH249035   6.585   6.255   5.107 -0.1427  0.2289  0.3785
 9207TIP3    H149036   6.554   6.181   5.159  0.6700  0.3143  1.0024
 9207TIP3    H249037   6.667   6.226   5.068 -0.4141  0.3983 -0.3394
 9208TIP3   OH249038   1.801   2.483   6.431 -0.5888 -0.4578  0.4630
 9208TIP3    H149039   1.815   2.450   6.520 -1.4146 -0.9840  0.3978
 9208TIP3    H249040   1.843   2.418   6.374  0.3377  0.1049  0.4686
 9209TIP3   OH249041   3.232   2.351  12.301  0.1740 -0.0662 -0.1917
 9209TIP3    H149042   3.175   2.422  12.271  0.1783 -0.0863 -0.2480
 9209TIP3    H249043   3.244   2.367  12.394 -1.5061 -1.1467  0.2620
 9210TIP3   OH249044   4.129   1.808  11.830 -0.5720  0.0576 -0.1938
 9210TIP3    H149045   4.110   1.728  11.780  0.8057  0.6003 -1.6718
 9210TIP3    H249046   4.084   1.877  11.782 -1.4719  0.2330  0.8865
 9211TIP3   OH249047   0.209   0.760   0.516  0.8675  0.4983  0.2373
 9211TIP3    H149048   0.251   0.846   0.514 -0.0841  0.9874  0.5122
 9211TIP3    H249049   0.244   0.714   0.440 -0.8059  2.2164 -1.7026
 9212TIP3   OH249050   0.252   4.193  12.270 -0.1606  0.1550  0.5427
 9212TIP3    H149051   0.158   4.205  12.288 -0.4905  0.9696 -1.4864
 9212TIP3    H249052   0.269   4.247  12.193  2.0792  0.2864  1.0639
 9213TIP3   OH249053   6.171   0.771   3.122  0.5002  0.5227  0.0258
 9213TIP3    H149054   6.203   0.791   3.034 -1.4168  1.5920 -0.5093
 9213TIP3    H249055   6.229   0.818   3.181  1.3284  0.4483 -0.7191
 9214TIP3   OH249056   0.400   0.733   5.834  0.0193 -0.0815  0.2788
 9214TIP3    H149057   0.462   0.794   5.795 -0.2233 -1.0335 -1.6979
 9214TIP3    H249058   0.314   0.773   5.821 -0.2118 -1.1018 -1.6875
 9215TIP3   OH249059   0.767   1.336   5.766 -0.0208  0.2848 -0.0701
 9215TIP3    H149060   0.778   1.395   5.691  0.1490 -0.2025 -0.4340
 9215TIP3    H249061   0.843   1.354   5.821  1.6556 -1.6357 -1.5992
 9216TIP3   OH249062   0.849   3.405   4.762 -0.0280  0.6108  0.1288
 9216TIP3    H149063   0.872   3.387   4.853 -0.1772 -1.4608 -0.2080
 9216TIP3    H249064   0.764   3.449   4.768 -0.2675  0.0506  0.9752
 9217TIP3   OH249065   4.146   2.642   5.303 -0.0296  0.8712  0.2345
 9217TIP3    H149066   4.200   2.700   5.357 -0.2481 -0.0315  1.4831
 9217TIP3    H249067   4.201   2.565   5.287 -0.7208  0.1656  1.0859
 9218TIP3   OH249068   1.593   6.649  16.117  0.4731  0.1144 -0.7662
 9218TIP3    H149069   1.640   6.732  16.116  0.0711  0.4046  1.3452
 9218TIP3    H249070   1.660   6.584  16.139  0.6765 -0.0789 -1.8808
 9219TIP3   OH249071   3.261   4.471  11.717  0.1458  0.2980 -0.3806
 9219TIP3    H149072   3.245   4.402  11.781 -2.1764  1.5713  0.5401
 9219TIP3    H249073   3.357   4.474  11.708  0.3684 -2.4227  0.1343
 9220TIP3   OH249074   6.554   5.385  10.844  0.5038  0.2265  0.6163
 9220TIP3    H149075   6.570   5.445  10.917  2.4370 -0.1633  0.5802
 9220TIP3    H249076   6.612   5.311  10.862  0.2989 -0.3080 -0.8170
 9221TIP3   OH249077   2.236   3.629   4.910 -0.0621  0.1641  0.3148
 9221TIP3    H149078   2.302   3.593   4.850  1.6394  1.4511  1.3099
 9221TIP3    H249079   2.215   3.715   4.873  0.8784  0.8990  1.4087
 9222TIP3   OH249080   6.244   5.682  15.827  0.4115 -0.1173  0.5812
 9222TIP3    H149081   6.316   5.623  15.851  0.1883 -0.0915  1.3646
 9222TIP3    H249082   6.217   5.653  15.740 -0.4089 -1.9276  1.3639
 9223TIP3   OH249083   5.840   3.236   5.370 -0.4636  0.5298  0.4242
 9223TIP3    H149084   5.788   3.316   5.364  1.5517  2.0386  1.6951
 9223TIP3    H249085   5.888   3.233   5.287  1.5482  2.2785  1.4306
 9224TIP3   OH249086   2.167   5.976  11.931  0.0397  0.3349 -0.3015
 9224TIP3    H149087   2.182   5.957  12.023  0.3698  1.1270 -0.1870
 9224TIP3    H249088   2.253   6.003  11.898 -0.5820  2.5382 -0.2323
 9225TIP3   OH249089   1.798   1.586  11.722 -0.2998  0.7019  0.2479
 9225TIP3    H149090   1.799   1.534  11.642  0.7388  1.2305 -0.1051
 9225TIP3    H249091   1.707   1.582  11.752 -0.5742  0.0006 -0.6277
 9226TIP3   OH249092   2.000   2.930   4.078 -0.7544  0.2976  0.4591
 9226TIP3    H149093   2.048   2.910   4.158 -2.2754 -1.8853  0.9270
 9226TIP3    H249094   2.040   2.874   4.011 -1.5788 -0.3611  0.4955
 9227TIP3   OH249095   1.786   0.511   5.478 -0.2936  0.0317  0.3533
 9227TIP3    H149096   1.725   0.498   5.405  0.0143  0.2369  0.0533
 9227TIP3    H249097   1.771   0.601   5.506 -1.6501 -0.5792  1.7084
 9228TIP3   OH249098   0.535   2.504  12.539 -0.3060  0.0275 -0.0664
 9228TIP3    H149099   0.472   2.436  12.518 -1.3621  0.4208  1.6265
 9228TIP3    H249100   0.608   2.457  12.579  0.4870 -0.4172 -1.9331
 9229TIP3   OH249101   1.733   3.367   0.763  0.1192  0.5404  0.2944
 9229TIP3    H149102   1.674   3.380   0.837  0.0088  0.4788  0.2178
 9229TIP3    H249103   1.675   3.358   0.687 -0.0611 -3.3534  0.6867
 9230TIP3   OH249104   6.385   3.748   0.389  0.8754 -0.0176  0.5705
 9230TIP3    H149105   6.438   3.718   0.462 -0.2664 -0.0600  1.4008
 9230TIP3    H249106   6.317   3.681   0.378 -0.7393  1.3894  1.4126
 9231TIP3   OH249107   2.499   1.445  12.475  0.0217  0.5247 -0.1953
 9231TIP3    H149108   2.472   1.354  12.470 -1.6960  0.8901  1.4481
 9231TIP3    H249109   2.595   1.443  12.467  0.0767 -1.4735  0.6335
 9232TIP3   OH249110   6.174   3.443  13.284  0.6321 -0.2840 -0.2988
 9232TIP3    H149111   6.143   3.526  13.320  0.8448 -0.3894  0.1399
 9232TIP3    H249112   6.198   3.463  13.194 -0.1475 -0.0681 -0.4701
 9233TIP3   OH249113   2.202   0.292  13.026  0.1570 -0.1681  0.1549
 9233TIP3    H149114   2.112   0.279  13.056  0.1878 -0.3547  0.1705
 9233TIP3    H249115   2.193   0.339  12.943  0.0742  0.3440  0.4494
 9234TIP3   OH249116   3.303   1.780  17.063  0.2868  0.4260 -0.8680
 9234TIP3    H149117   3.386   1.733  17.057  1.0984  1.7542 -0.5803
 9234TIP3    H249118   3.271   1.760  17.151  0.3789  0.0471 -0.9159
 9235TIP3   OH249119   5.342   2.136   3.295 -0.0272 -0.0335  0.2274
 9235TIP3    H149120   5.271   2.173   3.348  0.3312  0.5576  0.3084
 9235TIP3    H249121   5.404   2.208   3.285  1.0067 -0.7949  0.9338
 9236TIP3   OH249122   1.461   1.800  11.346 -0.2052  0.8820  0.4881
 9236TIP3    H149123   1.498   1.881  11.382  1.1221  0.5274 -0.0187
 9236TIP3    H249124   1.442   1.821  11.255  0.1950  0.6073  0.3409
 9237TIP3   OH249125   3.207   5.249   2.171  0.0732  0.1751 -0.3500
 9237TIP3    H149126   3.274   5.215   2.111  0.9342  1.9272 -0.4445
 9237TIP3    H249127   3.249   5.325   2.212 -0.8652 -0.3535  1.7113
 9238TIP3   OH249128   1.279   2.337  12.824  0.4425  1.0949  0.4251
 9238TIP3    H149129   1.361   2.287  12.827 -0.6572 -0.8031  0.2562
 9238TIP3    H249130   1.285   2.389  12.744  0.2877 -1.2871 -1.2504
 9239TIP3   OH249131   2.945   5.319  13.212 -0.5539  0.3327 -0.3454
 9239TIP3    H149132   2.863   5.325  13.261 -0.6819 -2.2565 -0.1147
 9239TIP3    H249133   2.987   5.240  13.245  0.4126 -0.2721 -2.8143
 9240TIP3   OH249134   6.295   1.787   5.278  0.4542 -0.2252 -0.1007
 9240TIP3    H149135   6.212   1.739   5.277 -0.7388  1.6743 -2.5232
 9240TIP3    H249136   6.316   1.795   5.371 -1.8197 -1.2259  0.5753
 9241TIP3   OH249137   2.677   3.570  13.210  0.0227  0.7906 -0.8028
 9241TIP3    H149138   2.588   3.546  13.234 -0.1008  0.4492 -1.5657
 9241TIP3    H249139   2.722   3.486  13.196  0.9590  0.9023  1.2358
 9242TIP3   OH249140   4.818   2.390   0.408  0.5476 -0.0132 -0.0354
 9242TIP3    H149141   4.896   2.445   0.412  0.2032  0.4410  1.0561
 9242TIP3    H249142   4.766   2.417   0.484 -0.3627 -0.7677 -0.3626
 9243TIP3   OH249143   4.842   1.945   3.178  0.0545 -1.2235  0.3578
 9243TIP3    H149144   4.747   1.947   3.172 -0.2020  0.6347  3.0964
 9243TIP3    H249145   4.873   1.998   3.104 -1.1916 -0.0370  0.6461
 9244TIP3   OH249146   3.238   6.039  14.402 -0.0179 -0.3926  0.3731
 9244TIP3    H149147   3.238   6.093  14.323 -0.2333  1.3500  1.5068
 9244TIP3    H249148   3.150   6.003  14.407 -0.0074 -0.5098 -0.1516
 9245TIP3   OH249149   1.070   5.280   0.151 -0.3873 -0.0710  0.5311
 9245TIP3    H149150   1.093   5.373   0.155 -1.4838  0.2496 -0.1942
 9245TIP3    H249151   1.145   5.239   0.108  0.2957  0.3945  1.2352
 9246TIP3   OH249152   5.073   5.937   5.230  0.0715  0.0380 -0.0412
 9246TIP3    H149153   5.142   5.881   5.195 -0.8813 -0.2193 -1.6245
 9246TIP3    H249154   5.014   5.951   5.156 -2.6226 -1.3358  1.6525
 9247TIP3   OH249155   6.515   2.185   2.291  0.2247 -0.5020  0.3099
 9247TIP3    H149156   6.568   2.106   2.304  1.2825 -0.1887 -1.7613
 9247TIP3    H249157   6.441   2.157   2.239  0.0112 -0.3241  0.5129
 9248TIP3   OH249158   0.631   4.624   0.169 -0.5820 -0.0654  0.2179
 9248TIP3    H149159   0.607   4.665   0.251  0.7345 -0.4940  0.8448
 9248TIP3    H249160   0.705   4.567   0.191 -1.5173 -1.7994 -0.8539
 9249TIP3   OH249161   2.236   0.128  15.664 -0.2031  0.1770  0.1324
 9249TIP3    H149162   2.279   0.046  15.689 -1.3569 -2.2172 -4.5723
 9249TIP3    H249163   2.144   0.114  15.686 -0.2128  0.8260  0.5376
 9250TIP3   OH249164   3.504   6.596   5.826  0.1452  0.1087 -0.1251
 9250TIP3    H149165   3.458   6.626   5.747  1.4284 -1.2936 -1.4881
 9250TIP3    H249166   3.434   6.566   5.884 -0.8499  1.3099 -0.6611
 9251TIP3   OH249167   0.157   4.683   2.825 -0.6654 -0.0925  0.4517
 9251TIP3    H149168   0.168   4.644   2.911 -0.3535 -0.7643  0.1121
 9251TIP3    H249169   0.103   4.621   2.776  0.3429 -0.4127 -0.2887
 9252TIP3   OH249170   2.162   2.270   5.680  0.6318  0.8017 -0.2617
 9252TIP3    H149171   2.231   2.210   5.707 -0.6700 -0.1164  1.2462
 9252TIP3    H249172   2.146   2.325   5.757  0.9620  2.3073 -1.2205
 9253TIP3   OH249173   2.768   2.832  16.268 -0.0810  0.2961 -0.5764
 9253TIP3    H149174   2.730   2.750  16.299  2.4125  0.0869  2.4965
 9253TIP3    H249175   2.828   2.806  16.198  1.5656 -0.7945  1.1413
 9254TIP3   OH249176   4.754   0.932  14.639  0.3825 -0.4620 -0.0027
 9254TIP3    H149177   4.791   1.011  14.679 -0.3860 -0.3163  0.4340
 9254TIP3    H249178   4.822   0.866  14.649  0.2812 -0.3761  1.3889
 9255TIP3   OH249179   4.502   4.640   5.505 -0.7337 -0.4140  0.1038
 9255TIP3    H149180   4.545   4.643   5.591  0.9721 -0.6767 -0.6813
 9255TIP3    H249181   4.560   4.585   5.452 -0.3844  1.7426 -1.9290
 9256TIP3   OH249182   6.205   1.873   1.765 -0.3100 -0.0934 -0.6561
 9256TIP3    H149183   6.149   1.932   1.815 -0.2487 -0.2706 -0.3731
 9256TIP3    H249184   6.254   1.930   1.707 -1.4873 -0.0132 -1.6178
 9257TIP3   OH249185   4.293   6.137   6.276 -0.6974  0.7348 -0.0403
 9257TIP3    H149186   4.358   6.085   6.229 -0.1948  0.7884  0.5798
 9257TIP3    H249187   4.225   6.074   6.300  1.6373 -0.6027  4.0158
 9258TIP3   OH249188   4.992   3.692   1.608  0.0732 -0.2272  0.0772
 9258TIP3    H149189   5.064   3.716   1.549 -1.0519  0.2039 -1.1513
 9258TIP3    H249190   5.021   3.610   1.648  2.1537  0.9582  1.2001
 9259TIP3   OH249191   4.891   0.094   1.082 -0.6851 -0.0879 -0.1587
 9259TIP3    H149192   4.900   0.018   1.025  1.7364  0.6022 -0.8314
 9259TIP3    H249193   4.980   0.125   1.094 -1.3595  1.1284  2.2343
 9260TIP3   OH249194   5.667   4.227  11.117 -0.0735  0.4615 -0.0531
 9260TIP3    H149195   5.658   4.250  11.209  1.3208  2.3970 -0.3394
 9260TIP3    H249196   5.578   4.208  11.088 -0.7639  1.4725  1.3050
 9261TIP3   OH249197   6.417   5.017   5.855 -0.1750 -0.1433 -0.3624
 9261TIP3    H149198   6.358   5.082   5.895  0.8542  0.3210  0.4455
 9261TIP3    H249199   6.494   5.017   5.912  0.0082 -1.8060 -0.5632
 9262TIP3   OH249200   5.092   3.207   3.544  0.1354 -0.2942 -0.0165
 9262TIP3    H149201   5.043   3.163   3.475 -1.2005 -0.7125  1.1555
 9262TIP3    H249202   5.025   3.240   3.603  1.2272 -1.9642  2.3008
 9263TIP3   OH249203   2.526   3.308  11.278 -0.7998 -0.0217 -0.1752
 9263TIP3    H149204   2.577   3.238  11.237 -2.5955 -0.3050 -2.0372
 9263TIP3    H249205   2.504   3.274  11.365  1.3051 -0.2582  0.3285
 9264TIP3   OH249206   4.253   3.829  16.013 -0.2758 -0.3948 -0.3380
 9264TIP3    H149207   4.299   3.865  16.089 -0.5503  0.6303 -0.6441
 9264TIP3    H249208   4.181   3.779  16.051 -0.1659 -0.2335  0.0937
 9265TIP3   OH249209   3.651   4.769   1.313  0.0215 -0.1368  0.0246
 9265TIP3    H149210   3.696   4.851   1.333  0.5886 -0.2968 -0.5812
 9265TIP3    H249211   3.558   4.791   1.318  0.1465  0.2286  1.1689
 9266TIP3   OH249212   0.946   2.207  14.430  0.8792 -0.3305 -0.3942
 9266TIP3    H149213   0.947   2.208  14.525  0.8860  2.2514 -0.3669
 9266TIP3    H249214   1.031   2.168  14.406  0.4634 -1.9405  0.5952
 9267TIP3   OH249215   3.963   4.039  14.912 -0.2151  0.2455  0.0121
 9267TIP3    H149216   3.925   4.127  14.909 -2.3402 -0.6224  0.0087
 9267TIP3    H249217   3.924   3.999  14.990  2.1472 -0.1470  1.1068
 9268TIP3   OH249218   4.424   4.424  12.994  0.4815  0.0776  0.2250
 9268TIP3    H149219   4.484   4.412  12.921  0.8163  3.3388 -0.1967
 9268TIP3    H249220   4.481   4.441  13.069  0.1161  0.5353  0.4020
 9269TIP3   OH249221   5.148   5.575   4.668 -0.1029 -0.2273 -0.0498
 9269TIP3    H149222   5.065   5.601   4.708  0.0995  0.4043 -0.0225
 9269TIP3    H249223   5.169   5.491   4.708 -0.2823  0.0335  0.6108
 9270TIP3   OH249224   5.177   4.086   5.291 -0.6327 -0.7832 -0.4353
 9270TIP3    H149225   5.107   4.126   5.343 -0.3486 -0.2490 -0.4607
 9270TIP3    H249226   5.197   4.004   5.338  0.5411  0.3097  1.0852
 9271TIP3   OH249227   4.630   4.393   2.357 -0.0914  0.0427  0.1769
 9271TIP3    H149228   4.613   4.400   2.451 -0.7066  1.1113 -0.0028
 9271TIP3    H249229   4.610   4.301   2.337 -2.9064  0.4730  0.5568
 9272TIP3   OH249230   4.544   0.313   4.231  0.3772  0.2142  0.2648
 9272TIP3    H149231   4.609   0.301   4.301  0.0387  0.1699  0.5748
 9272TIP3    H249232   4.460   0.296   4.274  0.1501  0.4233 -0.0974
 9273TIP3   OH249233   3.250   5.082   0.577 -0.2507 -0.3582  0.2996
 9273TIP3    H149234   3.285   5.151   0.634 -0.0666 -1.4082  1.5274
 9273TIP3    H249235   3.232   5.009   0.637 -0.7154 -1.2756 -0.9105
 9274TIP3   OH249236   1.978   3.308   0.655 -0.6260  0.1929  0.3554
 9274TIP3    H149237   2.043   3.275   0.718 -0.7070  0.7747  0.7548
 9274TIP3    H249238   1.900   3.322   0.708 -1.0193 -0.3182 -0.0884
 9275TIP3   OH249239   5.380   1.827  13.467  0.3344 -0.3127  0.8669
 9275TIP3    H149240   5.289   1.804  13.486 -0.8574  1.0198 -2.4817
 9275TIP3    H249241   5.415   1.750  13.423 -1.2422  1.1252 -3.3475
 9276TIP3   OH249242   5.615   0.356  13.889 -0.5294  0.5685  0.6203
 9276TIP3    H149243   5.645   0.445  13.872 -1.5309  0.7344 -0.3536
 9276TIP3    H249244   5.656   0.333  13.973  1.0995  1.3114  0.0809
 9277TIP3   OH249245   4.513   6.562   2.839  0.4396 -0.3684 -0.5779
 9277TIP3    H149246   4.580   6.494   2.847  0.1874 -0.3625  2.9424
 9277TIP3    H249247   4.431   6.513   2.832  0.4545 -0.4021 -0.5210
 9278TIP3   OH249248   2.764   0.702   5.368  0.8159  0.7767 -0.1329
 9278TIP3    H149249   2.800   0.783   5.405 -2.3288  1.3937  1.9339
 9278TIP3    H249250   2.713   0.664   5.439  0.8506 -2.2437 -1.5674
 9279TIP3   OH249251   0.179   1.880   4.163 -0.7980 -0.0618 -0.4191
 9279TIP3    H149252   0.230   1.957   4.140 -1.4166  0.6322  0.4627
 9279TIP3    H249253   0.154   1.842   4.078 -0.6991  0.8528 -0.8720
 9280TIP3   OH249254   1.070   4.153  14.508 -0.2658  0.1847 -0.5203
 9280TIP3    H149255   1.112   4.141  14.423  1.5399  0.9207  0.2154
 9280TIP3    H249256   1.110   4.086  14.564  0.8076  1.6173  0.4794
 9281TIP3   OH249257   2.875   2.701  12.916  0.4712 -0.3367  0.3949
 9281TIP3    H149258   2.853   2.741  12.833  0.9983  0.7846  0.7794
 9281TIP3    H249259   2.964   2.667  12.904  0.7982  0.4021  0.6972
 9282TIP3   OH249260   1.334   6.456  13.278  0.0466  0.0100 -0.4180
 9282TIP3    H149261   1.385   6.378  13.255 -0.4535 -0.9882  1.5727
 9282TIP3    H249262   1.391   6.505  13.338 -0.4577  0.0120  0.0713
 9283TIP3   OH249263   0.318   2.142   4.085  0.3608  0.4994  0.4530
 9283TIP3    H149264   0.383   2.162   4.153  0.4998 -1.1484  0.8463
 9283TIP3    H249265   0.369   2.101   4.015 -0.3307 -1.9396  1.2701
 9284TIP3   OH249266   3.915   3.971   2.661  0.5406 -1.0094 -0.3112
 9284TIP3    H149267   3.902   3.900   2.724  2.1160 -0.8452  0.2580
 9284TIP3    H249268   4.002   4.005   2.682 -0.4674  1.6075 -0.0302
 9285TIP3   OH249269   5.870   4.015   3.625  0.0149  0.0513  0.1083
 9285TIP3    H149270   5.903   3.943   3.572  1.0351  1.3155 -1.0665
 9285TIP3    H249271   5.837   3.974   3.705 -1.1910 -1.8752 -1.3110
 9286TIP3   OH249272   6.298   1.035   5.543 -0.0141 -0.4115  0.1626
 9286TIP3    H149273   6.375   1.088   5.564  0.0145  1.1961 -3.2957
 9286TIP3    H249274   6.331   0.945   5.538  0.8759 -0.2297  1.8906
 9287TIP3   OH249275   6.530   3.804  15.062 -0.7022 -0.6246  0.4286
 9287TIP3    H149276   6.450   3.843  15.098 -0.3974  1.9901 -1.3909
 9287TIP3    H249277   6.521   3.813  14.967  0.9480 -2.0202  0.0801
 9288TIP3   OH249278   5.201   6.071  13.445  0.0877 -0.0162 -0.1976
 9288TIP3    H149279   5.183   6.077  13.351 -1.6124 -2.8074 -0.1606
 9288TIP3    H249280   5.124   6.028  13.482  0.9662  0.4569  2.3978
 9289TIP3   OH249281   4.747   5.472  16.097  0.8816 -0.7006  0.5749
 9289TIP3    H149282   4.681   5.540  16.110  1.5485  0.0275  0.2638
 9289TIP3    H249283   4.805   5.482  16.172  0.6499 -1.3201  0.8358
 9290TIP3   OH249284   1.700   0.296   0.558  0.0182 -0.2293  0.1248
 9290TIP3    H149285   1.759   0.307   0.632 -0.0671 -1.1802  0.3454
 9290TIP3    H249286   1.618   0.338   0.586  0.7699  1.7418 -0.4641
 9291TIP3   OH249287   3.421   4.310  15.976 -0.0114  0.3562 -0.2381
 9291TIP3    H149288   3.350   4.268  16.025 -0.1275  2.5898  1.6615
 9291TIP3    H249289   3.395   4.402  15.971  3.4183  1.6260  1.9917
 9292TIP3   OH249290   0.009   2.438  16.489 -0.1760 -0.0422  0.6255
 9292TIP3    H149291  -0.077   2.417  16.526 -0.8277 -0.1588 -0.8871
 9292TIP3    H249292   0.044   2.505  16.548 -1.8319  0.8839  0.6244
 9293TIP3   OH249293   2.601   2.350   0.740  0.2801  0.5854  0.2828
 9293TIP3    H149294   2.585   2.424   0.799 -0.2772 -0.2285  1.1763
 9293TIP3    H249295   2.527   2.351   0.679 -1.2956 -0.8918  2.0543
 9294TIP3   OH249296   4.389   5.962  12.851  0.5025 -0.7764  0.4729
 9294TIP3    H149297   4.335   5.948  12.773  1.0336  2.3450 -0.5758
 9294TIP3    H249298   4.477   5.934  12.825  1.0067  1.6606 -0.6762
 9295TIP3   OH249299   5.886   4.281   2.977 -0.2369  0.0765  0.6181
 9295TIP3    H149300   5.833   4.228   3.037 -0.9331 -0.4666 -0.4550
 9295TIP3    H249301   5.975   4.246   2.987 -0.7858 -1.7576 -0.5286
 9296TIP3   OH249302   3.046   2.454  11.447 -0.0177 -0.1904  0.2410
 9296TIP3    H149303   3.091   2.444  11.532  4.2636  0.2563 -1.7086
 9296TIP3    H249304   3.009   2.368  11.430  1.6100 -1.1886  1.3291
 9297TIP3   OH249305   5.502   1.504   2.123 -0.4543 -0.1399  0.6856
 9297TIP3    H149306   5.498   1.593   2.089 -2.6481 -0.2806  0.4054
 9297TIP3    H249307   5.575   1.505   2.184  0.4126  1.4712 -0.2946
 9298TIP3   OH249308   0.648   0.087   4.536 -0.2776 -0.2568 -0.0139
 9298TIP3    H149309   0.646   0.101   4.441 -0.5055  2.3036  0.2894
 9298TIP3    H249310   0.558   0.063   4.558 -0.1560 -1.1529 -0.4727
 9299TIP3   OH249311   1.893   6.071   6.080  0.5599 -0.5484  0.4004
 9299TIP3    H149312   1.883   6.141   6.144 -0.8935  1.3700 -1.7617
 9299TIP3    H249313   1.981   6.082   6.046 -0.4714  2.0929 -1.7872
 9300TIP3   OH249314   5.871   1.649  12.400 -0.5200 -0.1667  0.0276
 9300TIP3    H149315   5.839   1.649  12.491 -3.1538  1.9605 -0.7753
 9300TIP3    H249316   5.892   1.741  12.382 -1.7398 -0.2333 -2.0265
 9301TIP3   OH249317   0.274   3.932  15.167  0.4142 -0.2814  0.1533
 9301TIP3    H149318   0.262   4.024  15.190 -2.1921 -0.7822  1.0301
 9301TIP3    H249319   0.326   3.935  15.086  0.0277  1.9659 -0.0929
 9302TIP3   OH249320   0.333   6.022  12.880 -0.1631 -0.4646  0.3046
 9302TIP3    H149321   0.309   5.940  12.836 -1.7458 -2.0287  3.6434
 9302TIP3    H249322   0.254   6.075  12.877 -0.0263 -0.2462  0.5292
 9303TIP3   OH249323   6.419   4.539   2.672 -0.3907  0.2442  0.0581
 9303TIP3    H149324   6.443   4.563   2.761 -2.2461  0.4783  0.5445
 9303TIP3    H249325   6.331   4.576   2.660 -0.5416 -0.5393 -1.5587
 9304TIP3   OH249326   5.126   5.712  13.234 -0.2210  1.2991 -0.2595
 9304TIP3    H149327   5.102   5.784  13.177 -2.0866  0.8249 -0.1167
 9304TIP3    H249328   5.091   5.634  13.192  1.0398  0.5576  0.0075
 9305TIP3   OH249329   4.750   2.391  12.705  0.1743 -0.3764 -0.2866
 9305TIP3    H149330   4.669   2.409  12.657 -0.0113  1.5927  0.6683
 9305TIP3    H249331   4.801   2.472  12.697  0.4841 -0.2860  2.1073
 9306TIP3   OH249332   5.309   2.146  16.697  0.1067  0.1921 -0.5502
 9306TIP3    H149333   5.250   2.221  16.684  2.2736  2.2629  0.8313
 9306TIP3    H249334   5.338   2.154  16.787  1.0420 -1.9079 -0.6156
 9307TIP3   OH249335   0.869   3.228   1.174 -0.0272  0.1283 -0.4431
 9307TIP3    H149336   0.797   3.209   1.114  0.4626 -1.6202 -0.5238
 9307TIP3    H249337   0.844   3.310   1.216 -1.2135  0.4760 -1.7541
 9308TIP3   OH249338   6.654   0.749  13.201 -0.6593  0.4334 -0.0049
 9308TIP3    H149339   6.602   0.827  13.179  1.5175  1.5776 -1.5955
 9308TIP3    H249340   6.733   0.785  13.242  0.2526 -0.9409 -0.4952
 9309TIP3   OH249341   6.451   0.883  15.116  0.3915  0.2188 -0.7981
 9309TIP3    H149342   6.434   0.920  15.029  1.4913  1.7910 -0.3762
 9309TIP3    H249343   6.468   0.958  15.172 -0.3855 -0.7667  0.8315
 9310TIP3   OH249344   1.378   1.330  11.602 -0.1022  0.2951 -0.4511
 9310TIP3    H149345   1.391   1.355  11.693 -3.3554 -1.4217  0.6507
 9310TIP3    H249346   1.385   1.412  11.553 -2.6734  2.1296  1.9750
 9311TIP3   OH249347   5.012   6.021   4.400  0.7420 -0.3077  0.6151
 9311TIP3    H149348   4.918   6.031   4.412  0.5974 -0.2114 -0.5517
 9311TIP3    H249349   5.022   5.954   4.333  1.4891  0.0897  0.3088
 9312TIP3   OH249350   4.056   5.603  10.945 -0.3711 -0.0859 -0.2928
 9312TIP3    H149351   4.118   5.655  10.894 -0.5035 -0.8774 -1.2815
 9312TIP3    H249352   4.022   5.538  10.884 -0.8153 -0.8268  0.7048
 9313TIP3   OH249353   0.571   6.731  12.681 -0.3809  0.2114 -0.7177
 9313TIP3    H149354   0.635   6.777  12.734  0.3191 -1.0551 -0.4128
 9313TIP3    H249355   0.550   6.652  12.732  0.9253 -1.4760 -2.5937
 9314TIP3   OH249356   6.202   4.649  11.728  0.1625  0.9825 -0.2998
 9314TIP3    H149357   6.151   4.677  11.652  0.5338 -0.1541 -0.9762
 9314TIP3    H249358   6.146   4.585  11.772  1.0725 -0.4482 -1.1746
 9315TIP3   OH249359   6.530   4.043   4.357 -0.7233  0.5901 -0.2598
 9315TIP3    H149360   6.478   4.058   4.279  1.7114  2.7392 -1.6615
 9315TIP3    H249361   6.577   3.962   4.339 -2.8255 -0.9027  0.6539
 9316TIP3   OH249362   5.865   2.323   5.693 -0.2049 -0.3552 -1.1342
 9316TIP3    H149363   5.809   2.247   5.712  0.4659 -1.0056 -1.6861
 9316TIP3    H249364   5.890   2.356   5.779 -1.5156  0.0176 -0.8773
 9317TIP3   OH249365   5.420   5.092   0.313 -0.2242  0.2647  0.3503
 9317TIP3    H149366   5.426   5.043   0.395  0.4188 -0.7019 -0.2384
 9317TIP3    H249367   5.332   5.072   0.280  0.0056 -0.4674  0.1498
 9318TIP3   OH249368   2.775   1.942   0.205 -0.3678  0.9768 -0.6705
 9318TIP3    H149369   2.845   1.979   0.260 -1.0139  0.3746  0.6016
 9318TIP3    H249370   2.719   1.895   0.267  0.2523 -1.9137 -2.1465
 9319TIP3   OH249371   2.989   2.843  11.813  0.4899  0.0951 -0.4895
 9319TIP3    H149372   2.980   2.828  11.907 -0.6566  1.0966 -0.4074
 9319TIP3    H249373   2.904   2.881  11.787  1.0926  0.6223 -1.7526
 9320TIP3   OH249374   2.059   2.712   0.259 -0.0158  0.1984 -0.0555
 9320TIP3    H149375   2.121   2.640   0.273 -0.8582 -0.1934  1.9547
 9320TIP3    H249376   2.006   2.684   0.184  0.2539 -0.8770  0.1404
 9321TIP3   OH249377   4.105   1.772   5.601 -0.2791  1.0432  0.7477
 9321TIP3    H149378   4.196   1.757   5.628  0.5393  2.6019 -0.9699
 9321TIP3    H249379   4.061   1.689   5.620  1.4215  0.3399  1.8745
 9322TIP3   OH249380   3.393   0.270  11.266 -0.2381 -0.0682  0.0276
 9322TIP3    H149381   3.485   0.256  11.242 -0.1227  0.4255  0.1881
 9322TIP3    H249382   3.346   0.265  11.183 -0.0320 -0.0034 -0.0929
 9323TIP3   OH249383   1.179   0.461   4.050  0.0879 -0.0274  0.5232
 9323TIP3    H149384   1.126   0.383   4.033  2.3684 -1.4760 -0.3789
 9323TIP3    H249385   1.140   0.499   4.129 -1.0424 -2.1244  1.0538
 9324TIP3   OH249386   2.731   6.581   4.134  0.1237  0.5276  0.2063
 9324TIP3    H149387   2.785   6.609   4.060 -1.4523 -0.8500 -1.5557
 9324TIP3    H249388   2.781   6.510   4.174  0.8067  1.0126  0.2232
 9325TIP3   OH249389   4.699   3.741   3.486 -0.0517  0.1218  0.4749
 9325TIP3    H149390   4.790   3.714   3.495 -0.5473 -1.8544  0.1404
 9325TIP3    H249391   4.672   3.768   3.574  1.2891  2.4160  0.2591
 9326TIP3   OH249392   5.589   4.234  15.112  0.4096  0.5951  0.2524
 9326TIP3    H149393   5.683   4.236  15.129  0.6814  1.4373 -1.1979
 9326TIP3    H249394   5.573   4.312  15.060 -0.8002 -0.4266 -0.9711
 9327TIP3   OH249395   3.253   1.787   0.138 -0.4214 -0.7816 -0.2615
 9327TIP3    H149396   3.159   1.792   0.157 -0.4274 -2.1792  0.1704
 9327TIP3    H249397   3.281   1.705   0.178  0.7903 -0.8593 -1.2202
 9328TIP3   OH249398   5.557   5.421   0.615 -0.8736  0.0143  0.1160
 9328TIP3    H149399   5.492   5.376   0.668 -0.0444  0.8072  1.8925
 9328TIP3    H249400   5.512   5.498   0.581 -1.3039 -0.2965 -0.0226
 9329TIP3   OH249401   0.432   1.720  15.723  0.2310  0.5462  0.1903
 9329TIP3    H149402   0.479   1.693  15.644  0.6992  0.5044  0.4807
 9329TIP3    H249403   0.353   1.666  15.723  1.1062 -0.7769  0.7059
 9330TIP3   OH249404   6.150   6.737   2.241  0.7172 -0.6245  0.5757
 9330TIP3    H149405   6.060   6.708   2.223  0.4336  1.2711 -1.6630
 9330TIP3    H249406   6.191   6.740   2.154  2.2736  0.5377  1.3148
 9331TIP3   OH249407   6.543   4.858   0.414  0.2246  0.2761  0.1974
 9331TIP3    H149408   6.618   4.799   0.424 -1.1658 -1.8410 -1.1649
 9331TIP3    H249409   6.494   4.847   0.496 -0.3683 -1.0354 -0.3052
 9332TIP3   OH249410   5.177   1.415   5.414 -0.1948  0.5003  0.1883
 9332TIP3    H149411   5.243   1.429   5.481 -2.2186  0.6150  2.2682
 9332TIP3    H249412   5.210   1.462   5.337  1.2085  2.1767  1.7337
 9333TIP3   OH249413   1.378   2.561  15.929  0.1509  0.7261  1.0320
 9333TIP3    H149414   1.462   2.524  15.901  1.5353  4.1427  0.1365
 9333TIP3    H249415   1.394   2.593  16.018 -0.7638 -0.0355  1.4930
 9334TIP3   OH249416   6.549   0.659  15.766 -0.3127  0.5446  0.0187
 9334TIP3    H149417   6.592   0.635  15.848 -0.6165 -2.7932 -0.6470
 9334TIP3    H249418   6.457   0.669  15.788 -0.4292 -0.5679  0.1136
 9335TIP3   OH249419   5.663   5.227   6.694  0.2403 -0.6966 -0.9177
 9335TIP3    H149420   5.601   5.300   6.707  0.2680 -0.6914 -0.8114
 9335TIP3    H249421   5.727   5.261   6.632  0.4108 -0.5326 -0.6538
 9336TIP3   OH249422   5.953   5.309   0.856  0.0981 -0.1381  0.2053
 9336TIP3    H149423   5.917   5.220   0.851  0.1825 -0.2916  1.8448
 9336TIP3    H249424   5.929   5.349   0.772 -0.5029 -1.4929 -0.2986
 9337TIP3   OH249425   3.173   2.668  14.767  0.2138  0.3776 -0.0582
 9337TIP3    H149426   3.135   2.731  14.705 -0.1617  0.7443  0.5347
 9337TIP3    H249427   3.127   2.684  14.849 -1.6344 -2.2504 -0.4367
 9338TIP3   OH249428   6.682   5.266   1.409  0.1288 -0.3825 -0.0606
 9338TIP3    H149429   6.676   5.172   1.394  0.2810 -0.6026  1.1605
 9338TIP3    H249430   6.753   5.296   1.352  0.3647 -1.0787 -0.1362
 9339TIP3   OH249431   6.163   3.705   1.613 -0.2711  0.3423  0.8108
 9339TIP3    H149432   6.215   3.654   1.675 -0.5329  0.7086  1.3316
 9339TIP3    H249433   6.228   3.745   1.554 -0.0292 -0.0658  0.7982
 9340TIP3   OH249434   5.287   1.349   2.101 -0.5399  0.5680 -0.0842
 9340TIP3    H149435   5.361   1.408   2.120  0.0136  0.7405 -2.3842
 9340TIP3    H249436   5.211   1.391   2.141  0.1440  1.9514 -0.1910
 9341TIP3   OH249437   5.703   5.784   1.038 -0.5907  0.1779 -0.0516
 9341TIP3    H149438   5.618   5.803   1.000 -1.2934 -0.8533  0.9383
 9341TIP3    H249439   5.699   5.819   1.127 -0.7750 -1.6538  0.7150
 9342TIP3   OH249440   3.617   6.130   3.789 -0.5815  0.2720 -0.2011
 9342TIP3    H149441   3.532   6.143   3.831 -0.5651  1.1795 -0.4395
 9342TIP3    H249442   3.614   6.184   3.711 -0.3271 -0.8214 -0.9952
 9343TIP3   OH249443   5.413   0.011   3.318 -0.8247 -0.0388 -0.3057
 9343TIP3    H149444   5.409   0.106   3.327 -0.4066 -0.0970  0.6155
 9343TIP3    H249445   5.447  -0.003   3.230 -0.9388  0.6648 -0.4674
 9344TIP3   OH249446   5.655   2.616  11.611 -0.1279  0.0052 -0.7425
 9344TIP3    H149447   5.742   2.649  11.635  0.1272 -1.2463  0.1323
 9344TIP3    H249448   5.614   2.593  11.694 -0.1068 -2.2829 -1.2952
 9345TIP3   OH249449   1.608   5.050   5.457 -0.0113 -0.4083  0.1902
 9345TIP3    H149450   1.656   4.976   5.420 -0.3949  0.2357 -1.6707
 9345TIP3    H249451   1.537   5.067   5.395 -1.1596  0.2374  1.6271
 9346TIP3   OH249452   0.813   0.414   4.867  0.6231  0.7288 -0.1776
 9346TIP3    H149453   0.866   0.486   4.833  1.9441  0.1294  0.5425
 9346TIP3    H249454   0.866   0.335   4.850 -0.7957 -0.1025 -0.9799
 9347TIP3   OH249455   5.684   0.197   0.862  0.8454 -0.0994  0.1927
 9347TIP3    H149456   5.747   0.233   0.800 -0.6911 -0.8844 -1.9008
 9347TIP3    H249457   5.667   0.108   0.832  0.0949 -0.5498  1.7908
 9348TIP3   OH249458   4.366   6.337  12.899  0.1979  0.3153 -0.0638
 9348TIP3    H149459   4.291   6.283  12.875  0.5626  0.0535 -0.6285
 9348TIP3    H249460   4.375   6.326  12.994 -1.5101  1.6843  0.3065
 9349TIP3   OH249461   3.233   3.653   0.285 -0.1680  0.1246  0.2778
 9349TIP3    H149462   3.310   3.609   0.251 -0.2160  1.4380 -1.6644
 9349TIP3    H249463   3.161   3.592   0.271  0.3066 -0.5977  0.9408
 9350TIP3   OH249464   6.087   0.154   5.603 -1.0011 -0.3416  0.4938
 9350TIP3    H149465   6.035   0.137   5.525 -0.6955 -0.4329  0.3074
 9350TIP3    H249466   6.154   0.085   5.603 -1.3447 -0.6881  1.1456
 9351TIP3   OH249467   4.823   0.278   3.150 -0.3752 -0.0721 -0.3504
 9351TIP3    H149468   4.913   0.255   3.174 -0.1860  2.6984  2.2472
 9351TIP3    H249469   4.774   0.196   3.157  1.4155 -1.0878  1.1607
 9352TIP3   OH249470   6.339   3.823   0.128 -0.2994 -0.9953  0.3118
 9352TIP3    H149471   6.433   3.836   0.119 -0.2225 -1.1439  0.8431
 9352TIP3    H249472   6.318   3.857   0.216 -0.8030 -0.6150  0.0529
 9353TIP3   OH249473   3.916   4.238   0.301 -0.1720  0.2432  0.0484
 9353TIP3    H149474   3.821   4.234   0.313 -0.0236  0.2520  1.4229
 9353TIP3    H249475   3.928   4.274   0.213 -1.4338 -0.2706 -0.3556
 9354TIP3   OH249476   5.770   6.653   1.371  0.0363 -0.3187  0.2092
 9354TIP3    H149477   5.755   6.614   1.458 -0.6689 -0.9891 -0.1987
 9354TIP3    H249478   5.865   6.657   1.362  0.2270  2.3578  2.1509
 9355TIP3   OH249479   4.064   0.114   5.350 -0.3873 -0.1199  0.7813
 9355TIP3    H149480   4.010   0.168   5.293  0.5503 -1.3362 -1.3792
 9355TIP3    H249481   4.018   0.030   5.354  0.5137 -0.6668  0.1712
 9356TIP3   OH249482   5.911   2.289  13.059  0.2024  0.2761  0.2093
 9356TIP3    H149483   5.943   2.292  13.150  1.5488  0.3692 -0.2399
 9356TIP3    H249484   5.907   2.381  13.032 -2.0372  0.3836  0.7513
 9357TIP3   OH249485   4.603   6.786  13.665  0.2265  0.1739 -0.2325
 9357TIP3    H149486   4.610   6.840  13.743 -0.5883  0.4126 -0.3152
 9357TIP3    H249487   4.676   6.813  13.609  2.1861 -1.5400  1.3425
 9358TIP3   OH249488   0.609   6.556   4.920  0.0354  0.0281 -0.2111
 9358TIP3    H149489   0.695   6.578   4.956 -0.8939  0.5537  1.8397
 9358TIP3    H249490   0.574   6.490   4.979 -0.0266 -2.0530 -2.4185
 9359TIP3   OH249491   3.210   0.439   3.659 -0.0831 -0.3739 -0.0109
 9359TIP3    H149492   3.201   0.387   3.739  0.4687 -3.0382 -1.5558
 9359TIP3    H249493   3.304   0.453   3.651 -0.2502  1.1749  0.5315
 9360TIP3   OH249494   2.937   3.613  11.517  0.3907  0.3417  0.4980
 9360TIP3    H149495   2.933   3.518  11.514  1.0343  0.2752  1.2767
 9360TIP3    H249496   2.931   3.634  11.610  0.5656  1.0443  0.3573
 9361TIP3   OH249497   4.552   3.909  14.975 -0.2052 -0.4401  0.3724
 9361TIP3    H149498   4.637   3.930  15.013 -1.9107  1.2071  3.6905
 9361TIP3    H249499   4.523   3.990  14.934  0.5779 -1.5659 -2.6611
 9362TIP3   OH249500   3.183   1.784  13.458 -0.1424 -0.3170  0.2339
 9362TIP3    H149501   3.163   1.728  13.533  1.5358 -0.4798  0.5902
 9362TIP3    H249502   3.274   1.763  13.436 -0.7123 -0.5923 -2.1312
 9363TIP3   OH249503   6.166   4.279  11.781 -0.2671 -0.0955  0.4950
 9363TIP3    H149504   6.163   4.321  11.695  1.2746 -0.0693  0.4355
 9363TIP3    H249505   6.150   4.187  11.762  0.7600 -0.2000  0.0834
 9364TIP3   OH249506   0.133   0.162  15.197 -0.2257 -0.3143 -0.3672
 9364TIP3    H149507   0.209   0.170  15.139  1.2903  0.4969  1.6333
 9364TIP3    H249508   0.098   0.251  15.202 -1.2117 -0.6392 -1.0802
 9365TIP3   OH249509   0.339   3.556  13.103  0.0694  0.1818  0.7165
 9365TIP3    H149510   0.385   3.513  13.175  0.7479 -1.5648 -0.6614
 9365TIP3    H249511   0.283   3.487  13.066  1.3576  0.3181 -1.7048
 9366TIP3   OH249512   4.149   3.546  14.227 -0.1589  0.8671  0.3401
 9366TIP3    H149513   4.173   3.454  14.216  1.3837  1.2158  0.5277
 9366TIP3    H249514   4.161   3.584  14.140 -1.3560  0.7779  0.1290
 9367TIP3   OH249515   1.466   5.062   4.834  0.1323  0.0145  0.0465
 9367TIP3    H149516   1.445   5.155   4.846  1.4842  0.5588 -1.4465
 9367TIP3    H249517   1.540   5.047   4.893 -0.2901 -0.2115  0.5251
 9368TIP3   OH249518   0.979   1.711  16.148  0.3600 -0.1442  0.1282
 9368TIP3    H149519   0.890   1.682  16.130  0.7589 -1.6160  0.3571
 9368TIP3    H249520   1.033   1.635  16.127  1.6336  0.9139 -0.6046
 9369TIP3   OH249521   1.067   6.269  15.407  0.6718 -0.0183  0.0337
 9369TIP3    H149522   1.082   6.340  15.470  0.3575 -0.3873  0.5327
 9369TIP3    H249523   1.129   6.201  15.432  0.4996 -0.1918 -0.0070
 9370TIP3   OH249524   6.032   2.436   6.546 -0.1002  0.1988 -0.0285
 9370TIP3    H149525   6.102   2.390   6.498 -0.8354 -0.1763 -0.7673
 9370TIP3    H249526   5.952   2.415   6.497 -0.3492  3.2008 -1.1450
 9371TIP3   OH249527   2.107   2.504   4.614 -0.0232 -0.0838  0.0893
 9371TIP3    H149528   2.042   2.559   4.570  0.4974 -0.3114 -0.9994
 9371TIP3    H249529   2.121   2.547   4.699  0.4578  1.5451 -0.7678
 9372TIP3   OH249530   0.154   3.420   3.058  0.4519  0.3437  0.0297
 9372TIP3    H149531   0.222   3.363   3.092  0.6897  0.5919 -0.0236
 9372TIP3    H249532   0.108   3.366   2.993  0.0629 -0.0919  0.6589
 9373TIP3   OH249533   3.775   5.583  11.449  0.0826 -0.0961 -0.2098
 9373TIP3    H149534   3.848   5.522  11.458  0.3364  0.3210  0.7178
 9373TIP3    H249535   3.774   5.606  11.356  2.2328  1.2362  0.0332
 9374TIP3   OH249536   0.271   4.872  11.648 -0.3369 -0.5509  0.8019
 9374TIP3    H149537   0.208   4.873  11.576 -1.1926  1.8876  1.5029
 9374TIP3    H249538   0.305   4.961  11.652  0.2294 -0.8015  2.9625
 9375TIP3   OH249539   4.159   2.566  16.837  0.3801  0.3859 -0.2202
 9375TIP3    H149540   4.232   2.532  16.889  1.2454 -0.4042 -1.8875
 9375TIP3    H249541   4.110   2.488  16.810 -0.7713  0.8676  0.3804
 9376TIP3   OH249542   0.810   2.923   4.173 -0.0760  0.1168 -0.2023
 9376TIP3    H149543   0.718   2.918   4.200 -0.4300  1.2410 -1.1345
 9376TIP3    H249544   0.849   2.841   4.205 -2.2401 -2.1729 -2.9553
 9377TIP3   OH249545   2.405   4.480  13.710 -0.7162 -0.6868  0.3973
 9377TIP3    H149546   2.337   4.546  13.699 -1.1386 -1.2343 -0.3968
 9377TIP3    H249547   2.433   4.488  13.801  1.0056  2.2726 -0.2712
 9378TIP3   OH249548   1.107   6.339   3.339 -0.1896  0.2257  0.3634
 9378TIP3    H149549   1.049   6.271   3.374 -1.9970  0.6963 -1.5228
 9378TIP3    H249550   1.195   6.306   3.356 -0.9783 -0.9374  2.5550
 9379TIP3   OH249551   6.151   5.179   4.802 -0.1564  0.5339 -0.2692
 9379TIP3    H149552   6.107   5.232   4.868  1.0433 -1.4506  2.3120
 9379TIP3    H249553   6.241   5.213   4.800  0.4883 -0.9276  1.0545
 9380TIP3   OH249554   4.096   0.371  13.552 -0.2460  0.5461  0.0320
 9380TIP3    H149555   4.001   0.371  13.564 -0.0518 -0.3907  1.9522
 9380TIP3    H249556   4.126   0.446  13.604  0.1330  0.2595  0.2323
 9381TIP3   OH249557   1.379   4.067  16.156 -0.2813 -0.0194 -0.6445
 9381TIP3    H149558   1.291   4.094  16.183  1.0178  3.1941  1.0087
 9381TIP3    H249559   1.404   3.999  16.218 -1.2502 -0.2404 -0.4922
 9382TIP3   OH249560   1.410   1.106   1.244  0.0086  0.2478 -0.2429
 9382TIP3    H149561   1.463   1.099   1.323  0.3949 -1.9715 -0.6444
 9382TIP3    H249562   1.335   1.049   1.259 -0.3220  0.4114 -1.1702
 9383TIP3   OH249563   0.501   4.751   2.831 -0.0773 -0.1757  0.3373
 9383TIP3    H149564   0.520   4.785   2.918  2.1861  0.5898 -0.3731
 9383TIP3    H249565   0.409   4.772   2.816  0.1044  1.8097  1.6403
 9384TIP3   OH249566   0.206   4.641   3.102  0.5402 -0.3735 -0.3335
 9384TIP3    H149567   0.254   4.656   3.184  0.9330  0.8756 -0.7547
 9384TIP3    H249568   0.171   4.728   3.079 -1.2109 -1.0925 -0.4926
 9385TIP3   OH249569   4.093   0.109  13.468 -0.2480 -0.1341  0.2097
 9385TIP3    H149570   4.122   0.195  13.499 -1.0356 -0.0220  0.6641
 9385TIP3    H249571   4.003   0.123  13.438 -0.4977 -0.8617  0.5846
 9386TIP3   OH249572   0.042   3.869   3.090 -0.2566 -0.0006  0.2845
 9386TIP3    H149573   0.048   3.832   3.178 -0.9348 -2.7022 -0.6906
 9386TIP3    H249574   0.118   3.926   3.082  0.9194 -1.2374  1.9730
 9387TIP3   OH249575   4.573   2.737   3.902  0.1941  0.0209 -0.1181
 9387TIP3    H149576   4.544   2.826   3.923 -0.0856 -0.7171  3.0763
 9387TIP3    H249577   4.512   2.709   3.833 -0.7370  1.7344 -0.0674
 9388TIP3   OH249578   3.094   2.053  13.431 -0.7635  0.0113  0.0685
 9388TIP3    H149579   3.146   1.977  13.457  0.4453  1.2323  1.3673
 9388TIP3    H249580   3.146   2.097  13.364 -2.0626 -0.9512 -1.6672
 9389TIP3   OH249581   2.860   4.719  12.094 -0.4302  0.2200  0.0077
 9389TIP3    H149582   2.871   4.625  12.083 -0.4946  0.1282  0.7280
 9389TIP3    H249583   2.947   4.756  12.082 -0.2758 -0.0011  0.4431
 9390TIP3   OH249584   2.999   0.323   0.846  0.3770 -0.3024  0.1250
 9390TIP3    H149585   2.930   0.360   0.790 -0.2034  0.0700  1.0635
 9390TIP3    H249586   3.034   0.250   0.795  1.6921  1.5891 -1.8884
 9391TIP3   OH249587   2.420   0.917  13.832  0.0296 -0.2638  0.5431
 9391TIP3    H149588   2.412   1.010  13.853  1.2694 -0.2856  1.1909
 9391TIP3    H249589   2.513   0.898  13.844  0.4808 -0.7977 -2.9249
 9392TIP3   OH249590   0.639   6.541  14.995 -0.4742  0.0287  0.4815
 9392TIP3    H149591   0.600   6.454  15.007 -1.8160  0.4439 -0.5816
 9392TIP3    H249592   0.612   6.590  15.073  2.4074 -1.1459  2.3887
 9393TIP3   OH249593   3.743   6.093  14.126  0.3732 -0.1815  0.4593
 9393TIP3    H149594   3.769   6.166  14.069 -0.0902  0.7237  1.3881
 9393TIP3    H249595   3.697   6.033  14.067 -1.5163  1.4808  0.1086
 9394TIP3   OH249596   3.093   2.265  15.102 -0.3315 -0.3202 -0.2160
 9394TIP3    H149597   3.127   2.304  15.022  0.1605 -1.6106 -0.6730
 9394TIP3    H249598   3.167   2.217  15.140 -1.3085 -2.3364 -0.6863
 9395TIP3   OH249599   3.326   2.911  11.017  0.2768 -0.0299  0.5180
 9395TIP3    H149600   3.281   2.877  11.094  1.7104  1.2023  1.9800
 9395TIP3    H249601   3.383   2.981  11.051  0.3501  1.1318 -1.7828
 9396TIP3   OH249602   6.321   2.727  11.020  0.4332 -0.2138  0.9686
 9396TIP3    H149603   6.238   2.692  11.052 -0.0207 -1.5217 -1.3888
 9396TIP3    H249604   6.310   2.822  11.022 -0.3276 -0.3045  2.5712
 9397TIP3   OH249605   4.459   2.038  12.090 -0.4803 -0.6977 -0.4043
 9397TIP3    H149606   4.531   2.081  12.045 -0.6753  0.8169  0.6736
 9397TIP3    H249607   4.380   2.073  12.048 -0.6351 -1.0697 -0.4368
 9398TIP3   OH249608   1.181   5.963  13.435 -0.9139  0.0102 -0.8786
 9398TIP3    H149609   1.139   6.007  13.508 -1.1912 -0.5910 -0.6637
 9398TIP3    H249610   1.159   5.870  13.447  0.3231 -0.2978 -0.8615
 9399TIP3   OH249611   6.431   0.807   5.593  0.1076  0.0641  0.0656
 9399TIP3    H149612   6.523   0.810   5.568 -0.0673 -0.8874 -0.7435
 9399TIP3    H249613   6.429   0.841   5.683  1.5672 -2.1795  1.0154
 9400TIP3   OH249614   0.317   6.651   3.231  0.1806  0.3580  0.5780
 9400TIP3    H149615   0.384   6.690   3.288  1.7735 -1.4105  0.0232
 9400TIP3    H249616   0.281   6.578   3.282 -0.0481  0.1994  0.1985
 9401TIP3   OH249617   2.940   1.032   6.654 -0.2160  0.2234  0.3973
 9401TIP3    H149618   2.935   0.948   6.608 -2.5985  1.2005 -1.3270
 9401TIP3    H249619   2.849   1.051   6.678  0.2627  2.3372  0.6793
 9402TIP3   OH249620   5.685   5.311   4.271  0.0877  0.4123 -0.1462
 9402TIP3    H149621   5.679   5.385   4.211 -0.1683 -0.3153 -1.0420
 9402TIP3    H249622   5.615   5.326   4.335  0.3582  1.1905 -0.0260
 9403TIP3   OH249623   1.509   1.414   3.448 -0.0542  0.0544  0.2602
 9403TIP3    H149624   1.549   1.499   3.429 -0.3623 -0.0822 -1.0882
 9403TIP3    H249625   1.441   1.433   3.512  0.3260  0.7223  0.4730
 9404TIP3   OH249626   2.756   6.359   3.250 -0.1367  0.2203 -0.0520
 9404TIP3    H149627   2.816   6.414   3.300  1.2361  1.8945 -3.2137
 9404TIP3    H249628   2.689   6.420   3.219 -1.5402 -0.9640  0.5570
 9405TIP3   OH249629   3.843   0.583  11.482 -0.1286  0.0982  0.2692
 9405TIP3    H149630   3.917   0.551  11.432  0.3714  0.7969  0.5531
 9405TIP3    H249631   3.769   0.529  11.452 -0.1309  1.3078 -2.1616
 9406TIP3   OH249632   4.234   3.855   3.406  0.1781 -0.3305  0.8849
 9406TIP3    H149633   4.182   3.781   3.373 -0.1447  0.5582 -0.6785
 9406TIP3    H249634   4.308   3.862   3.346  0.2372  0.5825  1.0472
 9407TIP3   OH249635   2.210   2.379   2.156 -0.3167  0.0666 -1.1016
 9407TIP3    H149636   2.240   2.355   2.068 -1.7020  2.1068 -2.2047
 9407TIP3    H249637   2.137   2.320   2.174  0.4415 -0.8627 -0.9498
 9408TIP3   OH249638   2.493   6.440  13.883  0.0698 -0.6022 -0.3688
 9408TIP3    H149639   2.415   6.403  13.923 -0.6092  2.4931  1.5489
 9408TIP3    H249640   2.461   6.485  13.805  0.6208 -2.4963 -1.7447
 9409TIP3   OH249641   1.285   0.689  13.023  0.0767 -0.3096 -0.5509
 9409TIP3    H149642   1.302   0.650  13.108 -0.7429 -0.1519 -0.3078
 9409TIP3    H249643   1.198   0.660  13.000  0.2845 -0.3318 -1.3327
 9410TIP3   OH249644   6.452   6.330  15.017 -0.4509 -0.5449  0.1981
 9410TIP3    H149645   6.384   6.298  15.076 -0.6576 -1.7238 -0.6562
 9410TIP3    H249646   6.519   6.365  15.075 -0.7585 -1.4516  1.1240
 9411TIP3   OH249647   0.309   6.213   5.880  0.2906 -0.0835  0.0668
 9411TIP3    H149648   0.401   6.234   5.899  0.4890 -0.1634 -0.7889
 9411TIP3    H249649   0.293   6.253   5.795 -0.4383 -0.1834  0.1587
 9412TIP3   OH249650   1.646   1.493   1.851 -0.4533  0.8391  0.1947
 9412TIP3    H149651   1.684   1.405   1.846 -1.9215  0.1316  0.7070
 9412TIP3    H249652   1.607   1.507   1.765  0.0500  1.1391  0.0084
 9413TIP3   OH249653   0.664   0.136   0.088 -0.1012 -0.3190 -0.6506
 9413TIP3    H149654   0.688   0.228   0.103 -0.6928 -0.4712  1.5283
 9413TIP3    H249655   0.569   0.134   0.100 -0.5933 -0.7312 -3.6966
 9414TIP3   OH249656   0.600   0.086  11.551 -0.1251  0.0879 -0.0589
 9414TIP3    H149657   0.567   0.058  11.466  1.4497  0.0019 -0.6617
 9414TIP3    H249658   0.523   0.121  11.596 -0.6752  1.9373 -2.2425
 9415TIP3   OH249659   3.927   4.984  14.789  0.2829  0.0964 -0.3751
 9415TIP3    H149660   4.004   4.933  14.812  0.1741  0.7623  1.6039
 9415TIP3    H249661   3.932   5.062  14.844 -2.5179 -0.5022  0.8745
 9416TIP3   OH249662   3.477   6.382   1.886  0.3372  0.2525  0.4056
 9416TIP3    H149663   3.396   6.332   1.903  0.6262 -1.3846 -2.4314
 9416TIP3    H249664   3.547   6.320   1.905  0.9078  1.2183  1.5128
 9417TIP3   OH249665   2.926   1.899   6.728 -0.0228 -0.8819 -0.2081
 9417TIP3    H149666   2.870   1.839   6.778 -1.0134 -0.2301 -0.5089
 9417TIP3    H249667   2.930   1.978   6.782  2.5626 -1.6941  0.9505
 9418TIP3   OH249668   4.594   6.521  12.884 -0.2539 -0.5123 -0.2359
 9418TIP3    H149669   4.515   6.470  12.865 -1.2320  0.2230  1.5698
 9418TIP3    H249670   4.652   6.459  12.929 -0.6189 -0.5810  0.1553
 9419TIP3   OH249671   0.090   3.871  15.376 -0.1125  0.7561  0.1296
 9419TIP3    H149672   0.184   3.886  15.366 -0.2195  0.0957 -3.1989
 9419TIP3    H249673   0.083   3.781  15.406  0.2802  1.2902  1.9349
 9420TIP3   OH249674   3.223   6.707  11.347  0.4899 -0.8406  0.4766
 9420TIP3    H149675   3.156   6.695  11.279  0.4142  0.3141  0.3300
 9420TIP3    H249676   3.218   6.800  11.370 -0.1657 -1.3944  2.8011
 9421TIP3   OH249677   0.033   4.362   6.214 -0.3209 -0.5085  0.0040
 9421TIP3    H149678   0.122   4.337   6.240 -0.7642 -1.6278  0.5355
 9421TIP3    H249679   0.013   4.439   6.269 -0.5638 -1.7386  1.7354
 9422TIP3   OH249680   6.506   2.367  10.661 -0.4260  0.0107  0.3204
 9422TIP3    H149681   6.417   2.331  10.661 -0.3213 -0.2642 -0.8977
 9422TIP3    H249682   6.493   2.462  10.658 -0.6995 -0.0503 -1.4675
 9423TIP3   OH249683   2.702   5.704  16.548  1.1117  0.3629  0.3424
 9423TIP3    H149684   2.704   5.795  16.520  0.5761  0.2436 -0.0787
 9423TIP3    H249685   2.611   5.687  16.570  0.6551 -0.8196 -2.1052
 9424TIP3   OH249686   2.974   1.616   4.800  0.4193  0.1967 -0.1609
 9424TIP3    H149687   2.886   1.589   4.827 -0.3516  1.9880 -0.7502
 9424TIP3    H249688   3.028   1.602   4.877 -0.1405 -1.8730 -0.0856
 9425TIP3   OH249689   2.561   2.571   0.919  0.0971 -0.0409  0.1688
 9425TIP3    H149690   2.654   2.553   0.931 -0.3760 -1.7472  1.7393
 9425TIP3    H249691   2.520   2.543   1.001 -1.9686 -0.5941 -0.9842
 9426TIP3   OH249692   6.060   1.786   2.559 -0.0001 -0.3862 -0.3358
 9426TIP3    H149693   6.052   1.830   2.643 -2.0380 -1.7356  0.2566
 9426TIP3    H249694   6.136   1.728   2.569  1.5018  1.4451 -0.4691
 9427TIP3   OH249695   1.585   3.460   2.962 -0.2080  0.4728 -0.3036
 9427TIP3    H149696   1.659   3.516   2.985 -0.9112  1.3182 -0.0628
 9427TIP3    H249697   1.580   3.397   3.034  1.4312 -0.8159 -1.2333
 9428TIP3   OH249698   2.136   2.489   5.209 -0.5054  0.6972 -0.4421
 9428TIP3    H149699   2.081   2.474   5.286  0.6858  2.0480  0.7209
 9428TIP3    H249700   2.222   2.510   5.244  1.0661 -2.1847 -2.2151
 9429TIP3   OH249701   5.373   1.011  12.910  0.0181  0.1248 -0.1694
 9429TIP3    H149702   5.448   1.046  12.959 -0.0456  0.6052 -0.4091
 9429TIP3    H249703   5.410   0.938  12.860  0.0088 -0.5912  0.8537
 9430TIP3   OH249704   4.840   3.066   5.640 -0.0858 -0.0433 -0.4265
 9430TIP3    H149705   4.763   3.081   5.695 -0.2678  0.1386 -0.7299
 9430TIP3    H249706   4.912   3.107   5.687  0.2604 -2.1312  0.9908
 9431TIP3   OH249707   0.598   4.112   2.249  0.4769 -0.0157 -0.3012
 9431TIP3    H149708   0.668   4.151   2.301  0.2444  0.4207 -0.3215
 9431TIP3    H249709   0.517   4.149   2.283  0.3195  0.2505 -0.9465
 9432TIP3   OH249710   0.654   0.266   5.292  0.7300 -0.4579 -0.2379
 9432TIP3    H149711   0.564   0.296   5.292  0.9342  0.3674 -2.6676
 9432TIP3    H249712   0.651   0.178   5.255  0.9496 -0.2531 -0.7561
 9433TIP3   OH249713   3.350   0.284   5.571  0.0577 -0.3394 -0.0234
 9433TIP3    H149714   3.341   0.327   5.486  0.4049  1.6392  0.8861
 9433TIP3    H249715   3.283   0.325   5.626  0.9693 -0.3316  1.1189
 9434TIP3   OH249716   1.695   2.318  11.885  0.0170  0.1864 -0.6727
 9434TIP3    H149717   1.767   2.302  11.946  1.3384  1.9114 -1.7091
 9434TIP3    H249718   1.624   2.263  11.918  1.6730 -1.3235  0.5699
 9435TIP3   OH249719   2.908   4.117  14.228  0.1002 -0.1191 -0.5724
 9435TIP3    H149720   2.825   4.069  14.232 -0.8379  1.1225 -2.9452
 9435TIP3    H249721   2.922   4.149  14.317 -3.8584  2.5942 -0.6778
 9436TIP3   OH249722   0.024   2.766  16.454  0.1388 -0.3691  0.3502
 9436TIP3    H149723  -0.015   2.724  16.377 -1.0045  0.7847  0.2888
 9436TIP3    H249724   0.049   2.853  16.425  1.9179 -0.7234  0.6599
 9437TIP3   OH249725   1.156   0.759   1.271 -0.2890  0.3523 -0.2428
 9437TIP3    H149726   1.155   0.833   1.331  2.5947  1.7463 -1.7160
 9437TIP3    H249727   1.104   0.788   1.196  2.1704  1.7251 -1.5496
 9438TIP3   OH249728   1.134   5.765   3.373  0.2566  0.1941 -0.0976
 9438TIP3    H149729   1.134   5.821   3.451 -2.2439  0.4387 -0.1948
 9438TIP3    H249730   1.148   5.677   3.408 -0.3587  0.3566  0.5986
 9439TIP3   OH249731   2.471   3.088  16.882  0.2165  0.2276  0.4067
 9439TIP3    H149732   2.390   3.085  16.934 -0.9790  0.4571 -1.3813
 9439TIP3    H249733   2.533   3.035  16.933 -0.8233  0.5917  2.1532
 9440TIP3   OH249734   0.532   2.593  13.013  0.7134 -0.3485 -0.1920
 9440TIP3    H149735   0.612   2.551  13.045  0.2596 -1.6146 -0.6495
 9440TIP3    H249736   0.476   2.520  12.988 -1.5249  0.3791  2.2559
 9441TIP3   OH249737   3.527   3.645   3.917  0.2813 -0.3681 -0.4834
 9441TIP3    H149738   3.588   3.691   3.975  0.2066  0.5089 -1.0836
 9441TIP3    H249739   3.579   3.575   3.878  0.4354 -0.7201  0.3384
 9442TIP3   OH249740   0.583   4.275  12.712 -0.5407 -0.3391  0.0461
 9442TIP3    H149741   0.617   4.356  12.749  0.1288 -0.7629  0.3805
 9442TIP3    H249742   0.491   4.294  12.692 -1.0461 -0.1893  2.2517
 9443TIP3   OH249743   4.956   5.343  11.448  0.1304 -0.2248  0.1695
 9443TIP3    H149744   4.986   5.381  11.366  0.6424 -1.0549 -0.0424
 9443TIP3    H249745   4.868   5.378  11.460  0.2491  0.3017 -0.4734
 9444TIP3   OH249746   3.846   0.906   0.046 -0.4539 -0.1367  0.6400
 9444TIP3    H149747   3.786   0.843   0.085 -1.5564  0.1776 -0.4782
 9444TIP3    H249748   3.920   0.854   0.016 -1.6594 -1.0562 -0.9127
 9445TIP3   OH249749   2.146   5.658  10.501 -0.0818 -0.2613 -0.5816
 9445TIP3    H149750   2.163   5.748  10.530  0.1339 -0.7080  0.6982
 9445TIP3    H249751   2.215   5.640  10.437  1.0685 -0.1967  0.6172
 9446TIP3   OH249752   2.127   4.266  15.570 -0.8007 -0.2282  0.3664
 9446TIP3    H149753   2.078   4.278  15.488  0.6479 -1.1431 -0.6591
 9446TIP3    H249754   2.084   4.192  15.613 -0.0292 -1.3857 -0.7923
 9447TIP3   OH249755   2.682   6.107   5.046 -0.0789 -0.2770 -0.1118
 9447TIP3    H149756   2.652   6.194   5.019  0.8633 -0.0085 -0.3533
 9447TIP3    H249757   2.612   6.074   5.102 -0.3625  0.7295  0.1609
 9448TIP3   OH249758   0.428   2.661   0.249 -0.1550  0.1050  0.1496
 9448TIP3    H149759   0.448   2.717   0.174 -0.5519  1.7855  1.2395
 9448TIP3    H249760   0.339   2.630   0.234  0.0986 -0.3126 -0.5081
 9449TIP3   OH249761   2.201   3.260  12.485 -0.4362  0.2550 -0.1495
 9449TIP3    H149762   2.276   3.216  12.525  0.4755 -0.6827 -2.6751
 9449TIP3    H249763   2.223   3.353  12.491  0.8542  0.0048 -0.6604
 9450TIP3   OH249764   5.145   2.549  13.164 -0.4377 -0.2068 -0.7478
 9450TIP3    H149765   5.217   2.611  13.157 -0.3025 -0.4659 -1.8913
 9450TIP3    H249766   5.066   2.603  13.168 -0.2736  0.0522 -1.0197
 9451TIP3   OH249767   0.596   4.763   0.450 -0.2745 -0.1429 -0.1500
 9451TIP3    H149768   0.623   4.852   0.473 -0.9371  0.3524 -1.2330
 9451TIP3    H249769   0.506   4.756   0.481  0.0545 -0.7553  0.7185
 9452TIP3   OH249770   5.333   4.599   6.436 -0.0564 -0.1282 -0.5489
 9452TIP3    H149771   5.367   4.674   6.389  1.5691  0.2579  1.1484
 9452TIP3    H249772   5.315   4.631   6.524  1.4950 -1.8858  0.4741
 9453TIP3   OH249773   2.091   5.042   1.852  0.5485  0.3912  0.2355
 9453TIP3    H149774   2.178   5.082   1.857  1.3091 -0.4975 -3.0039
 9453TIP3    H249775   2.042   5.099   1.791  0.4383 -1.4517 -1.5205
 9454TIP3   OH249776   4.595   5.210  13.785 -0.0279 -0.0837  0.3226
 9454TIP3    H149777   4.678   5.203  13.833  0.6021  3.2424  0.0097
 9454TIP3    H249778   4.597   5.138  13.722  1.9668 -0.9363  1.2755
 9455TIP3   OH249779   3.243   3.777  10.334  0.1485  0.6786 -0.3317
 9455TIP3    H149780   3.322   3.723  10.331  0.0946  0.6053 -2.7833
 9455TIP3    H249781   3.274   3.865  10.310 -0.2865  0.9827  0.2046
 9456TIP3   OH249782   5.147   5.297   2.102  0.7997  0.3771 -0.2285
 9456TIP3    H149783   5.219   5.333   2.051  0.6614  0.6334 -0.2393
 9456TIP3    H249784   5.068   5.338   2.067  0.6862  0.4051  0.0568
 9457TIP3   OH249785   0.257   1.437  11.091 -0.0526 -0.4849  0.0786
 9457TIP3    H149786   0.352   1.431  11.099 -0.1493 -1.1644  0.9463
 9457TIP3    H249787   0.230   1.351  11.060 -0.2392  0.3239 -2.2002
 9458TIP3   OH249788   4.336   6.110   0.496 -0.1120  0.0687 -0.1490
 9458TIP3    H149789   4.284   6.161   0.558  1.1288  0.7047  0.3865
 9458TIP3    H249790   4.286   6.029   0.484 -1.4542  0.8547 -0.0139
 9459TIP3   OH249791   1.670   2.119   3.598 -0.2568 -0.4386  0.3885
 9459TIP3    H149792   1.742   2.174   3.629 -1.2016  0.6619  0.7126
 9459TIP3    H249793   1.591   2.161   3.633 -1.0929 -1.3256 -0.3728
 9460TIP3   OH249794   5.491   6.579  17.098 -0.3080  0.6665 -0.0504
 9460TIP3    H149795   5.406   6.623  17.089 -0.6867 -0.1947 -0.9187
 9460TIP3    H249796   5.472   6.488  17.077  0.7885  0.4152  0.0209
 9461TIP3   OH249797   0.416   5.144  15.747  0.7248 -0.1036  0.1644
 9461TIP3    H149798   0.407   5.228  15.703 -2.7481 -0.4129  0.0138
 9461TIP3    H249799   0.327   5.110  15.754  1.8700 -3.3980  1.0032
 9462TIP3   OH249800   2.600   5.406  12.199  0.3594 -0.3843  0.1492
 9462TIP3    H149801   2.624   5.441  12.113 -0.4071  0.3022  0.1991
 9462TIP3    H249802   2.635   5.317  12.200 -0.2010 -0.6318 -1.1383
 9463TIP3   OH249803   2.487   3.835  14.031  0.4660 -0.8646 -0.2460
 9463TIP3    H149804   2.471   3.912  13.975 -3.0558 -0.3210  1.2598
 9463TIP3    H249805   2.454   3.861  14.117  2.6530 -2.8507  1.3081
 9464TIP3   OH249806   2.969   4.816  12.588 -0.1610 -0.0800  0.0112
 9464TIP3    H149807   3.034   4.885  12.599 -0.8380  0.2806  2.0598
 9464TIP3    H249808   2.886   4.857  12.612 -0.8374 -1.1194 -0.4957
 9465TIP3   OH249809   1.722   2.231   0.508 -0.1497  0.2319  0.0876
 9465TIP3    H149810   1.811   2.242   0.476  0.2840 -0.3658  1.0588
 9465TIP3    H249811   1.667   2.270   0.439  0.9648  3.5481  0.8628
 9466TIP3   OH249812   5.866   4.587   1.320 -0.5660  0.4035  0.2622
 9466TIP3    H149813   5.908   4.531   1.254  0.5731  0.9431  0.4932
 9466TIP3    H249814   5.812   4.647   1.269 -0.6273  0.0520 -0.0952
 9467TIP3   OH249815   6.688   5.631  13.608  0.5222  0.8058 -0.4120
 9467TIP3    H149816   6.722   5.606  13.522 -1.2808  0.4009 -1.0412
 9467TIP3    H249817   6.639   5.712  13.591 -2.8041 -1.0914 -0.5125
 9468TIP3   OH249818   1.735   3.913   4.939  0.7369 -0.5830 -0.1473
 9468TIP3    H149819   1.647   3.893   4.970  0.1617 -0.1233 -1.3937
 9468TIP3    H249820   1.780   3.947   5.016 -0.2541 -0.5812  0.4559
 9469TIP3   OH249821   4.192   5.872   4.435 -0.5505  0.7588 -0.0595
 9469TIP3    H149822   4.191   5.930   4.511  1.8771  0.0491  0.5971
 9469TIP3    H249823   4.114   5.818   4.445 -1.3315  1.9858  0.8291
 9470TIP3   OH249824   0.157   5.635   3.052  0.0793 -0.1861 -0.0365
 9470TIP3    H149825   0.064   5.612   3.045 -0.2448  0.6223  1.2883
 9470TIP3    H249826   0.163   5.722   3.013  0.0913  0.1621  0.7254
 9471TIP3   OH249827   4.998   2.084   2.243 -0.0898  0.1386  0.4127
 9471TIP3    H149828   5.047   2.055   2.320  0.2576  1.3809  0.6900
 9471TIP3    H249829   5.051   2.055   2.168 -0.2129 -0.6986  0.6354
 9472TIP3   OH249830   2.640   3.483  10.411  0.2381 -0.2183 -0.1136
 9472TIP3    H149831   2.582   3.507  10.338 -0.7114  0.1867  0.7443
 9472TIP3    H249832   2.593   3.512  10.489  1.6640  0.2353  0.6144
 9473TIP3   OH249833   3.044   0.652   2.650  0.4628  0.1035  0.4113
 9473TIP3    H149834   3.093   0.635   2.569  1.7378 -0.5896  1.3030
 9473TIP3    H249835   3.077   0.737   2.681  0.1261  0.2673  0.3352
 9474TIP3   OH249836   4.576   1.435   5.517  0.9301  0.4082 -0.4725
 9474TIP3    H149837   4.564   1.341   5.532  0.3376  0.5233 -0.2124
 9474TIP3    H249838   4.644   1.460   5.580  0.9315  0.1963 -0.3873
 9475TIP3   OH249839   2.687   0.674   1.779  0.1255  0.0668  0.0193
 9475TIP3    H149840   2.667   0.664   1.872 -0.1790  0.7522  0.0312
 9475TIP3    H249841   2.744   0.600   1.759 -0.2420 -0.3881  0.6235
 9476TIP3   OH249842   4.804   5.149  13.388  0.2343 -0.0588 -0.1156
 9476TIP3    H149843   4.748   5.184  13.457  1.0700 -0.0001  0.5482
 9476TIP3    H249844   4.880   5.112  13.434  1.0708  0.4667 -1.0250
 9477TIP3   OH249845   2.537   5.749   5.889  0.1530  0.3490  0.4932
 9477TIP3    H149846   2.477   5.818   5.919  0.2016  0.0881  1.2215
 9477TIP3    H249847   2.494   5.668   5.915  1.3512  0.1819  2.1168
 9478TIP3   OH249848   5.257   6.719   2.413  0.4626  0.4262 -0.3622
 9478TIP3    H149849   5.173   6.740   2.372 -1.3819 -1.3849  2.1973
 9478TIP3    H249850   5.272   6.627   2.392  1.4432  0.5253 -0.1549
 9479TIP3   OH249851   4.179   4.285  13.841  0.5436 -0.9991 -0.6781
 9479TIP3    H149852   4.173   4.191  13.824 -0.1077 -1.3463  1.2704
 9479TIP3    H249853   4.121   4.300  13.916  2.5293  0.5009  0.6686
 9480TIP3   OH249854   1.931   1.032   3.482 -0.0003  0.5090  0.0267
 9480TIP3    H149855   1.863   1.092   3.452 -0.2712  0.2499  0.1266
 9480TIP3    H249856   1.984   1.085   3.542 -0.9118  0.3220  1.0021
 9481TIP3   OH249857   3.576   2.858  17.032  0.5282 -0.0968 -0.0904
 9481TIP3    H149858   3.536   2.917  17.097 -0.4566 -2.2761  1.3815
 9481TIP3    H249859   3.512   2.788  17.021  3.1202 -2.8585  1.0433
 9482TIP3   OH249860   1.687   2.940  13.411  0.5522 -0.0884 -0.0172
 9482TIP3    H149861   1.654   2.903  13.329  1.2780  2.8731 -1.8182
 9482TIP3    H249862   1.609   2.976  13.454  0.5924  2.3712 -1.7699
 9483TIP3   OH249863   6.520   5.757  16.562 -0.1358  0.3274 -0.1619
 9483TIP3    H149864   6.425   5.759  16.575 -0.0761  2.1507  0.2687
 9483TIP3    H249865   6.541   5.664  16.555 -2.1125 -0.0929 -1.5247
 9484TIP3   OH249866   4.714   4.787   1.539 -0.4694  0.3656  0.0935
 9484TIP3    H149867   4.668   4.708   1.568  1.8612 -1.4024 -0.7166
 9484TIP3    H249868   4.661   4.820   1.467 -1.4523 -0.5177  0.3808
 9485TIP3   OH249869   6.091   2.990  12.328  0.1686  0.2402 -0.8866
 9485TIP3    H149870   6.098   3.082  12.300  0.3187  1.1873  1.9465
 9485TIP3    H249871   6.181   2.964  12.346 -0.0327  0.1691  0.0621
 9486TIP3   OH249872   5.267   3.407  13.507 -0.2604  0.0671  0.5874
 9486TIP3    H149873   5.340   3.400  13.569  0.4077 -2.2448 -0.3304
 9486TIP3    H249874   5.307   3.441  13.427 -0.2986 -0.5665  0.2894
 9487TIP3   OH249875   5.597   5.511  15.765 -0.0273 -0.2573  0.3479
 9487TIP3    H149876   5.632   5.467  15.687  1.4877 -0.1349  0.9197
 9487TIP3    H249877   5.506   5.529  15.743  0.5249  0.3874 -1.6668
 9488TIP3   OH249878   2.156   6.715   4.220  0.2832  0.2815 -0.5171
 9488TIP3    H149879   2.143   6.800   4.178  0.4949  0.0591 -1.0489
 9488TIP3    H249880   2.106   6.654   4.165  0.6845 -0.0389 -0.5304
 9489TIP3   OH249881   3.518   0.549   5.938 -0.9946 -0.2798  0.2979
 9489TIP3    H149882   3.519   0.462   5.979 -1.5242 -0.8078 -0.7731
 9489TIP3    H249883   3.425   0.573   5.937 -0.9553 -0.1546 -0.3353
 9490TIP3   OH249884   0.175   1.474   4.184  0.0712  0.3144  0.3696
 9490TIP3    H149885   0.200   1.383   4.202  0.9601 -0.1057 -2.4641
 9490TIP3    H249886   0.177   1.517   4.270 -0.4262 -2.3069  1.8040
 9491TIP3   OH249887   2.414   6.584  14.408  0.7115 -0.0140 -0.3553
 9491TIP3    H149888   2.373   6.538  14.335 -1.8365 -0.3718  1.1777
 9491TIP3    H249889   2.381   6.674  14.401 -1.9330 -0.7092  1.8830
 9492TIP3   OH249890   3.543   4.932   2.797  0.1244  0.5850 -0.6832
 9492TIP3    H149891   3.599   4.855   2.793 -2.2470 -1.1812 -1.6447
 9492TIP3    H249892   3.600   5.004   2.770  2.4396 -0.7372  0.3593
 9493TIP3   OH249893   0.404   3.962  13.470  0.2603 -0.1188 -0.3896
 9493TIP3    H149894   0.352   3.991  13.395  0.0785 -2.1112 -1.1193
 9493TIP3    H249895   0.492   3.949  13.435  0.4141 -0.0997 -0.0116
 9494TIP3   OH249896   6.453   1.735  15.753  0.4924  0.5987  0.8102
 9494TIP3    H149897   6.429   1.722  15.662  0.5942  1.8115  0.5885
 9494TIP3    H249898   6.535   1.784  15.749  0.9721 -0.1184  1.5581
 9495TIP3   OH249899   3.308   2.317   0.596 -0.0154  0.2821 -0.9038
 9495TIP3    H149900   3.225   2.275   0.620  0.9921 -0.5015  1.5288
 9495TIP3    H249901   3.372   2.246   0.597  0.8726  1.0344 -1.8178
 9496TIP3   OH249902   2.082   4.406   1.453  0.0477  0.0317 -0.2090
 9496TIP3    H149903   1.995   4.408   1.413  0.3972  1.4993 -0.9561
 9496TIP3    H249904   2.074   4.342   1.524 -1.9409  0.9088  0.4258
 9497TIP3   OH249905   5.487   6.789  12.551 -0.2814  0.1691  0.1886
 9497TIP3    H149906   5.445   6.763  12.468 -0.9788 -0.6694  0.7926
 9497TIP3    H249907   5.578   6.804  12.527 -0.3150 -0.7694 -0.6037
 9498TIP3   OH249908   5.006   6.267   5.849 -0.3505 -0.5102  0.8454
 9498TIP3    H149909   5.055   6.349   5.858 -1.4720  0.1782  0.7923
 9498TIP3    H249910   4.916   6.294   5.834 -0.1903 -1.6042 -3.7670
 9499TIP3   OH249911   6.749   6.669  13.255  0.4989  0.0699 -0.7315
 9499TIP3    H149912   6.666   6.658  13.209  0.2240 -0.2707 -0.1709
 9499TIP3    H249913   6.737   6.622  13.338  0.9531  0.7382 -0.2784
 9500TIP3   OH249914   5.154   3.040   0.421  0.2856  0.3011 -0.7535
 9500TIP3    H149915   5.094   2.994   0.479  2.3346 -0.9918  0.4489
 9500TIP3    H249916   5.136   3.133   0.437 -1.3085 -0.0448 -0.3936
 9501TIP3   OH249917   5.386   6.465   5.674  0.2204  0.2160  0.4373
 9501TIP3    H149918   5.351   6.405   5.608 -1.0145  1.0575  0.2888
 9501TIP3    H249919   5.460   6.507   5.632  0.5349 -0.5326  0.2221
 9502TIP3   OH249920   0.517   3.837   1.763  0.3835 -0.1357  0.7728
 9502TIP3    H149921   0.585   3.771   1.777 -0.4799 -1.0730  0.6757
 9502TIP3    H249922   0.474   3.845   1.848 -0.2419 -0.5368  0.4988
 9503TIP3   OH249923   2.691   2.862   4.716 -0.3563  0.0713  0.2070
 9503TIP3    H149924   2.705   2.902   4.801  0.3995 -0.5927  0.4123
 9503TIP3    H249925   2.735   2.921   4.654 -1.2584  0.7679  0.2165
 9504TIP3   OH249926   3.300   0.959   0.592 -0.6350 -0.1599  0.2711
 9504TIP3    H149927   3.357   1.036   0.583  0.2396 -0.9063 -0.9731
 9504TIP3    H249928   3.211   0.995   0.587 -0.2696  0.8725  0.7870
 9505TIP3   OH249929   3.317   5.881   1.430  0.9793  0.3270  0.1556
 9505TIP3    H149930   3.315   5.807   1.490  1.2102  0.4111  0.2677
 9505TIP3    H249931   3.405   5.879   1.393  0.6747 -0.0431 -0.5774
 9506TIP3   OH249932   4.875   3.913  12.196  0.3217 -0.2870  0.5464
 9506TIP3    H149933   4.848   3.938  12.108  1.3922  1.3959  0.6431
 9506TIP3    H249934   4.970   3.900  12.189  1.0470  3.1104  2.0158
 9507TIP3   OH249935   0.949   0.147   2.815 -0.1304 -0.4925 -0.0663
 9507TIP3    H149936   0.912   0.204   2.882  1.5401  0.5279  0.0405
 9507TIP3    H249937   0.983   0.072   2.864  0.4993 -0.0609  0.1667
 9508TIP3   OH249938   3.842   1.158   2.445  0.8216  0.7249  0.2777
 9508TIP3    H149939   3.850   1.241   2.399 -2.3433  0.1333 -1.6604
 9508TIP3    H249940   3.903   1.099   2.399  1.8105  1.5097  0.5525
 9509TIP3   OH249941   3.571   3.744   4.535 -0.3239  0.0197  0.2454
 9509TIP3    H149942   3.556   3.662   4.582  1.4214  0.1874  1.1699
 9509TIP3    H249943   3.486   3.767   4.498 -1.4548 -0.8391  2.1880
 9510TIP3   OH249944   0.885   6.232  15.684  0.3095 -0.3347 -0.0546
 9510TIP3    H149945   0.953   6.256  15.621 -0.2020 -1.1169 -0.9291
 9510TIP3    H249946   0.855   6.316  15.719  0.1202  0.1826 -1.3844
 9511TIP3   OH249947   2.309   1.151  13.361  0.3413 -0.2700  0.3686
 9511TIP3    H149948   2.273   1.079  13.309  0.5108  0.9602 -1.5553
 9511TIP3    H249949   2.402   1.153  13.338  0.6155 -0.2853  1.4481
 9512TIP3   OH249950   1.994   1.012   1.487 -0.3721  0.0070  0.1649
 9512TIP3    H149951   2.067   0.954   1.510 -0.6702 -0.2924  0.3758
 9512TIP3    H249952   1.964   1.046   1.572 -0.9494 -0.4536  0.1524
 9513TIP3   OH249953   0.722   2.521   4.876  0.6265  0.7714  0.1026
 9513TIP3    H149954   0.674   2.442   4.850  1.2084  0.5893 -0.4187
 9513TIP3    H249955   0.775   2.493   4.950 -1.7430  1.5112  2.2398
 9514TIP3   OH249956   2.816   1.976  13.370  0.3690  0.1038 -0.1397
 9514TIP3    H149957   2.900   2.015  13.397  0.8427 -1.2597  0.4540
 9514TIP3    H249958   2.823   1.884  13.397 -0.2598 -0.6935 -2.4364
 9515TIP3   OH249959   1.956   3.063   1.649  0.0602  0.5064  0.1182
 9515TIP3    H149960   1.955   3.159   1.641 -1.1471  0.4080 -1.3873
 9515TIP3    H249961   1.970   3.032   1.559  0.2009 -0.7251  0.5557
 9516TIP3   OH249962   0.993   2.009   3.636 -0.0125  0.0255 -0.3451
 9516TIP3    H149963   1.018   1.982   3.548 -1.8196 -1.3013 -0.5060
 9516TIP3    H249964   0.909   1.967   3.651  0.3469  0.0230  2.1087
 9517TIP3   OH249965   0.759   2.055  14.269  1.3717 -0.3204 -0.1663
 9517TIP3    H149966   0.798   2.095  14.347  0.6044  0.2245 -0.0486
 9517TIP3    H249967   0.817   2.081  14.198  1.0081  0.8604 -0.0601
 9518TIP3   OH249968   3.016   5.340  11.609  0.6354  0.5725 -0.0314
 9518TIP3    H149969   3.099   5.366  11.650 -0.9850  2.1686  2.4919
 9518TIP3    H249970   2.983   5.270  11.665 -0.6074  1.2729  0.1335
 9519TIP3   OH249971   0.142   4.693  15.523  0.1133  0.9202 -0.3056
 9519TIP3    H149972   0.235   4.717  15.532  0.7200 -1.1971 -0.2151
 9519TIP3    H249973   0.141   4.627  15.454 -1.5824  2.0295 -1.3949
 9520TIP3   OH249974   2.208   4.852   0.159  0.2648 -0.2717 -0.5059
 9520TIP3    H149975   2.194   4.759   0.175 -0.7929  0.1559  1.3588
 9520TIP3    H249976   2.222   4.889   0.246 -3.5916  1.9693 -0.6154
 9521TIP3   OH249977   0.722   1.210  16.968  0.3107  0.2261 -0.2423
 9521TIP3    H149978   0.769   1.250  16.895  0.7845 -1.5699 -1.0011
 9521TIP3    H249979   0.789   1.199  17.035  1.0162 -2.0534 -1.2120
 9522TIP3   OH249980   3.684   6.478   2.323 -0.6350 -0.3024  0.0673
 9522TIP3    H149981   3.673   6.572   2.308  0.5274 -0.3884 -1.6829
 9522TIP3    H249982   3.614   6.455   2.384 -1.1895  1.6165  0.2325
 9523TIP3   OH249983   1.636   2.637  13.112 -0.0078  0.5747 -0.5408
 9523TIP3    H149984   1.618   2.543  13.112  1.2100  0.3260 -0.8498
 9523TIP3    H249985   1.724   2.645  13.075  0.3975  1.7528  0.6019
 9524TIP3   OH249986   0.026   5.032  15.308 -0.6254  0.2867 -0.9967
 9524TIP3    H149987   0.104   5.056  15.358  0.9943 -3.6840 -1.2361
 9524TIP3    H249988  -0.020   5.114  15.293  0.3711  2.1693  4.2589
 9525TIP3   OH249989   0.804   1.608   2.173  0.2424 -0.2240  0.4001
 9525TIP3    H149990   0.836   1.578   2.088  0.2057  0.9913 -0.0687
 9525TIP3    H249991   0.709   1.609   2.165  0.2429 -0.0004  0.4210
 9526TIP3   OH249992   1.383   1.997  17.121 -0.2640 -0.4686  0.3258
 9526TIP3    H149993   1.368   1.961  17.208 -0.2254 -0.1297  0.4743
 9526TIP3    H249994   1.323   2.071  17.115  0.9785  0.6131  0.7445
 9527TIP3   OH249995   5.246   1.311  15.328 -0.0298  0.1933  0.3218
 9527TIP3    H149996   5.189   1.329  15.254 -0.1162 -0.1232  0.3117
 9527TIP3    H249997   5.209   1.233  15.369  0.8685 -0.5129 -0.1794
 9528TIP3   OH249998   5.341   2.170  13.773  0.1590  0.5833 -0.0992
 9528TIP3    H149999   5.305   2.107  13.837  1.6661  0.5811  0.7999
 9528TIP3    H250000   5.265   2.221  13.744 -1.0729 -1.4468 -0.6537
 9529TIP3   OH250001   1.989   5.842  13.872  0.2878 -0.4455  0.3386
 9529TIP3    H150002   2.025   5.755  13.856  0.7914  0.0230 -1.2289
 9529TIP3    H250003   2.053   5.884  13.930 -0.1126 -1.2004  1.3578
 9530TIP3   OH250004   2.329   0.828   0.342  0.4589 -0.1665 -0.0321
 9530TIP3    H150005   2.265   0.834   0.413  1.0905 -1.8376  0.7197
 9530TIP3    H250006   2.356   0.919   0.327 -0.6175  0.3563  0.9761
 9531TIP3   OH250007   6.375   2.560  11.875  0.0856  0.0383  0.2882
 9531TIP3    H150008   6.469   2.573  11.887  0.5366 -0.6758 -2.0785
 9531TIP3    H250009   6.338   2.573  11.963  2.2544  1.2543  1.0915
 9532TIP3   OH250010   1.936   6.211  14.690  0.1106  0.0940  0.0597
 9532TIP3    H150011   1.974   6.193  14.776  1.7626  1.3077 -0.3705
 9532TIP3    H250012   2.008   6.201  14.629 -1.5236 -2.9916 -1.5588
 9533TIP3   OH250013   5.988   2.960  10.521  0.0361 -0.1193  0.0900
 9533TIP3    H150014   6.009   3.039  10.571 -0.9826  0.9501 -1.1084
 9533TIP3    H250015   5.910   2.924  10.563  1.6500 -1.7156  1.9176
 9534TIP3   OH250016   1.138   2.885  11.779  0.1659 -0.5693 -0.0326
 9534TIP3    H150017   1.159   2.794  11.760  0.8203 -0.1195 -1.5667
 9534TIP3    H250018   1.184   2.935  11.712 -3.1681  0.6723 -1.6126
 9535TIP3   OH250019   2.576   5.389  15.883  0.4790  0.1491 -0.3685
 9535TIP3    H150020   2.545   5.302  15.859  0.3174 -0.1336  0.8135
 9535TIP3    H250021   2.626   5.375  15.964 -0.6959  1.3392  0.5967
 9536TIP3   OH250022   0.674   0.165  12.292  0.2712 -0.1824  0.4649
 9536TIP3    H150023   0.695   0.078  12.259  0.5944 -0.7161  1.9742
 9536TIP3    H250024   0.759   0.204  12.312  0.0880  0.0419  0.8263
 9537TIP3   OH250025   2.746   4.187  14.810  0.1375 -0.4596 -0.6483
 9537TIP3    H150026   2.683   4.257  14.831  0.5490 -0.2174 -0.1987
 9537TIP3    H250027   2.691   4.112  14.787 -0.3076  0.0494 -1.2844
 9538TIP3   OH250028   1.084   5.684  12.210  0.1205  0.5840  0.6501
 9538TIP3    H150029   1.127   5.741  12.146  0.6083  2.8084  2.7956
 9538TIP3    H250030   1.154   5.657  12.269 -0.1636 -2.0905 -0.0731
 9539TIP3   OH250031   4.383   2.716  12.756 -0.3278 -0.0432  0.0873
 9539TIP3    H150032   4.372   2.808  12.779  2.4302  0.6995 -1.1311
 9539TIP3    H250033   4.295   2.679  12.762 -1.3545  2.4124  1.5815
 9540TIP3   OH250034   1.263   2.616   1.203 -0.1261  0.1730  0.1595
 9540TIP3    H150035   1.249   2.538   1.148 -1.2036  0.0207  0.6165
 9540TIP3    H250036   1.242   2.689   1.145 -1.2936  0.0109  0.3477
 9541TIP3   OH250037   5.601   3.557   3.070 -0.2903 -1.0050  0.5807
 9541TIP3    H150038   5.579   3.634   3.122 -1.3177 -0.8231 -0.0977
 9541TIP3    H250039   5.654   3.502   3.128 -1.7522 -1.0125  1.9668
 9542TIP3   OH250040   4.997   4.698  14.085  0.5415 -0.0158  0.6454
 9542TIP3    H150041   5.030   4.694  14.175 -0.0103  0.8491  0.8951
 9542TIP3    H250042   5.070   4.734  14.035  0.4959  0.4817  0.9312
 9543TIP3   OH250043   3.950   5.623   6.456 -0.6490 -0.5801  0.3198
 9543TIP3    H150044   3.946   5.716   6.477 -0.6031 -0.1445 -1.4937
 9543TIP3    H250045   3.897   5.582   6.525 -1.9252  0.9312  0.3059
 9544TIP3   OH250046   1.363   1.827   5.173  0.8356 -0.4190 -0.1150
 9544TIP3    H150047   1.275   1.864   5.185  1.1388  0.9778 -1.6483
 9544TIP3    H250048   1.422   1.899   5.194  1.5797 -1.0156 -0.1264
 9545TIP3   OH250049   1.160   6.500  14.012  0.0971 -0.7411 -0.3683
 9545TIP3    H150050   1.073   6.516  13.975  1.0470  0.4350 -2.2234
 9545TIP3    H250051   1.151   6.416  14.057 -1.3880 -1.9021 -2.6059
 9546TIP3   OH250052   5.176   1.990   0.787 -0.9021 -0.3115 -0.4970
 9546TIP3    H150053   5.104   1.932   0.763 -0.5172 -2.0594  2.1671
 9546TIP3    H250054   5.164   2.005   0.881  2.0364 -0.4628 -0.0109
 9547TIP3   OH250055   4.509   3.488   4.866  0.1450 -0.2850 -0.1844
 9547TIP3    H150056   4.449   3.561   4.853  1.9969  1.3307 -0.1818
 9547TIP3    H250057   4.563   3.515   4.941  0.5211 -1.9264  0.1762
 9548TIP3   OH250058   1.828   4.358   0.873  0.0518  0.2241  0.9716
 9548TIP3    H150059   1.914   4.400   0.868 -0.0193  0.3426  0.7253
 9548TIP3    H250060   1.783   4.386   0.793  0.2709 -0.9056  0.4382
 9549TIP3   OH250061   0.266   5.638  13.610 -0.5792  0.3453  0.3474
 9549TIP3    H150062   0.211   5.696  13.663  1.3008  2.0988  0.5010
 9549TIP3    H250063   0.279   5.560  13.665 -1.3139  0.7271  1.0815
 9550TIP3   OH250064   2.262   0.925   5.022  0.1279  0.2252 -0.1640
 9550TIP3    H150065   2.199   0.997   5.024 -0.4295 -0.2614  0.0819
 9550TIP3    H250066   2.288   0.919   4.930 -0.0360  0.5636 -0.2331
 9551TIP3   OH250067   2.155   3.214   3.702 -0.6670  0.9728  0.0169
 9551TIP3    H150068   2.217   3.250   3.638 -0.2597 -0.3811 -0.3698
 9551TIP3    H250069   2.075   3.198   3.652 -0.6265  0.7035  0.0399
 9552TIP3   OH250070   4.661   5.767   3.385  0.4519 -0.1440 -0.4350
 9552TIP3    H150071   4.648   5.700   3.452  0.5339 -1.6115 -1.8418
 9552TIP3    H250072   4.691   5.719   3.308 -1.5219  1.2049 -2.1510
 9553TIP3   OH250073   3.139   0.029  13.983 -0.2866 -0.7862  0.1332
 9553TIP3    H150074   3.170   0.119  13.976 -1.3226 -0.5232 -1.5047
 9553TIP3    H250075   3.124   0.001  13.893 -0.2726 -2.5083  0.6339
 9554TIP3   OH250076   4.217   1.841  13.421 -0.6522 -0.0955 -0.1220
 9554TIP3    H150077   4.288   1.828  13.359 -0.8088  0.1043 -0.3421
 9554TIP3    H250078   4.197   1.753  13.453 -2.0602 -0.5130 -1.9852
 9555TIP3   OH250079   4.150   2.066   2.090 -0.1672 -0.0888  0.2746
 9555TIP3    H150080   4.061   2.035   2.069 -0.8969  0.3950  2.3950
 9555TIP3    H250081   4.163   2.141   2.032 -0.5134 -1.0445 -1.1168
 9556TIP3   OH250082   1.799   0.005   6.124  0.0494  0.4110  0.4404
 9556TIP3    H150083   1.842   0.061   6.188  0.7926  0.2581  0.0795
 9556TIP3    H250084   1.792   0.059   6.045 -0.3271  0.3994  0.4634
 9557TIP3   OH250085   5.997   5.608   5.824  0.1399  0.0549 -0.2331
 9557TIP3    H150086   5.992   5.643   5.913  1.8093  0.7457 -0.3664
 9557TIP3    H250087   6.079   5.558   5.822 -1.1235 -2.1226 -0.6863
 9558TIP3   OH250088   2.101   1.892  15.320  0.0460 -0.1555 -0.4297
 9558TIP3    H150089   2.141   1.977  15.300  0.7086 -0.3698 -0.0488
 9558TIP3    H250090   2.074   1.857  15.236 -3.7912  2.1180 -0.3751
 9559TIP3   OH250091   5.266   2.827   4.654  0.2209 -0.0571  0.0387
 9559TIP3    H150092   5.230   2.856   4.737  0.3907 -0.7963  0.3788
 9559TIP3    H250093   5.234   2.737   4.644  1.7616 -0.6646  0.2501
 9560TIP3   OH250094   2.296   3.820   2.895  0.6053  0.3090  0.0231
 9560TIP3    H150095   2.319   3.744   2.950 -0.2601  0.5492  0.7494
 9560TIP3    H250096   2.201   3.828   2.905  0.6223  1.1870 -0.4524
 9561TIP3   OH250097   5.712   0.312  15.314 -0.3027  0.3521  0.2423
 9561TIP3    H150098   5.803   0.286  15.302 -0.9825 -1.2857 -2.3147
 9561TIP3    H250099   5.698   0.382  15.251 -1.5153 -1.5980 -1.8207
 9562TIP3   OH250100   5.197   2.883  12.860 -0.0541 -0.6786 -0.4296
 9562TIP3    H150101   5.113   2.860  12.821 -0.6220  0.1616  0.2656
 9562TIP3    H250102   5.175   2.914  12.948  0.9183  0.1707 -0.4672
 9563TIP3   OH250103   2.799   4.556  12.886  0.2249 -0.5347  0.6147
 9563TIP3    H150104   2.869   4.618  12.865  0.3068 -0.9496 -0.3869
 9563TIP3    H250105   2.843   4.483  12.928  0.4456 -0.9283 -0.2823
 9564TIP3   OH250106   0.016   3.353  11.432 -0.5765  0.1027  0.4508
 9564TIP3    H150107  -0.054   3.309  11.479 -0.4045 -1.2525 -0.5165
 9564TIP3    H250108   0.061   3.405  11.499  0.7273 -3.0658  2.2339
 9565TIP3   OH250109   5.783   4.068   2.204 -0.9002 -0.5192 -0.2944
 9565TIP3    H150110   5.802   4.022   2.122 -1.1933  0.4052 -0.8977
 9565TIP3    H250111   5.854   4.132   2.213 -1.4281  0.1012 -0.3976
 9566TIP3   OH250112   3.954   2.266   3.509 -0.4041  0.5988 -0.4018
 9566TIP3    H150113   3.936   2.196   3.447  0.0891 -0.3468  0.4827
 9566TIP3    H250114   3.910   2.343   3.473  0.2281  0.1802 -2.1125
 9567TIP3   OH250115   4.950   3.532  12.306 -0.1350  0.1187  0.5836
 9567TIP3    H150116   4.902   3.455  12.277 -0.6368 -0.0993  1.9022
 9567TIP3    H250117   4.985   3.571  12.226 -0.5533 -1.0209 -0.1758
 9568TIP3   OH250118   6.356   1.557   1.672 -0.5635  0.4059  0.3713
 9568TIP3    H150119   6.278   1.547   1.727 -0.5571 -0.6304  0.2129
 9568TIP3    H250120   6.325   1.603   1.595 -0.8001  0.9156  0.7666
 9569TIP3   OH250121   5.134   2.121   1.552 -0.1718  0.1337 -0.1226
 9569TIP3    H150122   5.099   2.158   1.633  0.5578  2.1621 -0.6681
 9569TIP3    H250123   5.091   2.036   1.543  0.4550 -0.6025  2.8741
 9570TIP3   OH250124   2.625   2.822  15.674 -0.0504 -0.5974  0.1608
 9570TIP3    H150125   2.599   2.832  15.583 -0.0679 -1.3781  0.0674
 9570TIP3    H250126   2.719   2.804  15.670 -0.1474 -1.1652  0.2458
 9571TIP3   OH250127   6.746   5.102  12.880 -0.2739 -0.1742 -0.1777
 9571TIP3    H150128   6.675   5.150  12.837 -1.2927 -0.8880  0.6394
 9571TIP3    H250129   6.745   5.132  12.971  0.0560 -0.6471 -0.0095
 9572TIP3   OH250130   1.848   1.577  17.063  0.3771 -0.3006  0.6646
 9572TIP3    H150131   1.869   1.550  16.973 -1.2572  0.3396  0.0505
 9572TIP3    H250132   1.872   1.502  17.117  2.8480 -0.1509 -0.0660
 9573TIP3   OH250133   3.145   1.212  11.914 -0.6263  0.6422  0.0826
 9573TIP3    H150134   3.131   1.172  12.000  0.2919  0.3819  0.1249
 9573TIP3    H250135   3.231   1.181  11.887 -1.9088 -1.3349 -2.0848
 9574TIP3   OH250136   2.745   1.463   6.110 -0.0279 -0.8951 -0.4068
 9574TIP3    H150137   2.821   1.521   6.118  0.1795 -1.1836 -0.2217
 9574TIP3    H250138   2.669   1.521   6.113  0.1672 -0.6540  0.0627
 9575TIP3   OH250139   4.737   5.280  16.543  0.4235 -0.8040 -0.2176
 9575TIP3    H150140   4.689   5.271  16.461 -0.0448  1.2400 -0.2256
 9575TIP3    H250141   4.687   5.345  16.593  1.5826 -0.8063  1.0023
 9576TIP3   OH250142   0.462   3.321  14.198  0.1107  0.4110 -0.0070
 9576TIP3    H150143   0.547   3.326  14.154  1.0641 -0.9021  1.5934
 9576TIP3    H250144   0.482   3.294  14.287 -1.9108  1.2765  0.7625
 9577TIP3   OH250145   0.845   5.426   2.128  0.0319 -0.2752  0.4987
 9577TIP3    H150146   0.789   5.407   2.053  0.2060  0.5502  0.1518
 9577TIP3    H250147   0.857   5.521   2.126 -2.6178  0.2778  3.4235
 9578TIP3   OH250148   3.555   2.939   5.211 -0.0574 -0.3544 -0.2571
 9578TIP3    H150149   3.645   2.909   5.204 -0.0162 -0.4958  0.7094
 9578TIP3    H250150   3.558   3.031   5.185 -0.1467 -1.0511 -3.0138
 9579TIP3   OH250151   5.419   3.504  12.820  0.2537 -0.6942  0.4701
 9579TIP3    H150152   5.478   3.512  12.896  1.8632  1.8943 -0.8945
 9579TIP3    H250153   5.336   3.540  12.852  0.9381  0.4724  1.0299
 9580TIP3   OH250154   0.437   2.517   1.589 -0.0962 -0.3823  0.5096
 9580TIP3    H150155   0.501   2.585   1.566 -2.2491  2.2992  1.9017
 9580TIP3    H250156   0.395   2.495   1.506 -0.1033  0.8078  0.1822
 9581TIP3   OH250157   3.957   4.380   0.060  0.2201  0.7321 -0.4777
 9581TIP3    H150158   3.951   4.476   0.064  0.9776  0.7656  0.2609
 9581TIP3    H250159   3.896   4.355  -0.009  1.9463  1.9521 -2.6001
 9582TIP3   OH250160   2.652   5.133  13.598 -0.4051  0.4794  0.0738
 9582TIP3    H150161   2.719   5.064  13.605 -2.1112 -1.2834 -0.1469
 9582TIP3    H250162   2.589   5.098  13.535 -1.5200  2.1077  0.2390
 9583TIP3   OH250163   4.054   6.613   1.518  0.3641  0.6370 -0.0160
 9583TIP3    H150164   3.982   6.561   1.554  0.4558  0.0441 -0.6865
 9583TIP3    H250165   4.095   6.557   1.452 -0.7842  2.2427 -2.2262
 9584TIP3   OH250166   3.590   5.900  10.769 -0.2280 -0.0821  0.5382
 9584TIP3    H150167   3.527   5.833  10.739  1.4765 -0.5931 -2.3344
 9584TIP3    H250168   3.562   5.980  10.725  2.1040 -0.7604 -2.5672
 9585TIP3   OH250169   0.811   2.705   2.125 -0.3475 -1.4543  0.1099
 9585TIP3    H150170   0.731   2.666   2.160 -0.0412 -1.9970  0.2175
 9585TIP3    H250171   0.845   2.639   2.064  0.6679 -1.7706  0.9800
 9586TIP3   OH250172   4.738   1.818   1.679 -0.2903  0.3386 -0.2912
 9586TIP3    H150173   4.683   1.889   1.646  1.5469  0.8669 -2.4357
 9586TIP3    H250174   4.795   1.795   1.605  1.8494 -0.6762  1.5511
 9587TIP3   OH250175   3.438   1.504   5.464 -0.3213 -0.0050 -0.5724
 9587TIP3    H150176   3.431   1.451   5.385 -1.3788  1.1978 -1.3077
 9587TIP3    H250177   3.383   1.458   5.528  2.0697 -2.0746  0.1594
 9588TIP3   OH250178   0.705   5.619   1.496  0.1861  0.7113 -0.5857
 9588TIP3    H150179   0.757   5.692   1.463 -0.6974  0.6574 -2.2318
 9588TIP3    H250180   0.696   5.560   1.420 -2.1615  0.6934 -0.3659
 9589TIP3   OH250181   0.924   3.927   0.637  0.0353 -0.4393  0.1994
 9589TIP3    H150182   0.976   3.959   0.710  0.0959  0.5254 -0.2450
 9589TIP3    H250183   0.879   3.849   0.670 -0.2997  0.2472  1.4073
 9590TIP3   OH250184   1.378   0.589   3.574 -0.0089 -0.4092  0.5173
 9590TIP3    H150185   1.459   0.572   3.525 -0.4786  0.8067 -0.7586
 9590TIP3    H250186   1.405   0.589   3.665  1.5386  0.3812  0.0995
 9591TIP3   OH250187   4.726   0.738   3.024  0.2427 -0.0058 -0.1074
 9591TIP3    H150188   4.709   0.660   3.078  0.6917 -0.8215 -1.1022
 9591TIP3    H250189   4.640   0.778   3.012  0.2261  0.6420  1.8222
 9592TIP3   OH250190   1.676   4.142  14.843  0.4202 -0.4014 -0.6983
 9592TIP3    H150191   1.613   4.112  14.908 -0.0016  1.9669  0.0962
 9592TIP3    H250192   1.759   4.146  14.889  0.0501  1.6417 -0.1016
 9593TIP3   OH250193   4.947   2.386   4.082  0.1056  0.2200 -0.0608
 9593TIP3    H150194   4.996   2.304   4.088 -0.2062  0.0784  0.6452
 9593TIP3    H250195   4.868   2.371   4.134  0.8237  1.5147  1.5191
 9594TIP3   OH250196   4.801   2.705   3.748  0.0854 -0.4712 -0.1762
 9594TIP3    H150197   4.734   2.746   3.802  2.1172  2.2378  0.5428
 9594TIP3    H250198   4.797   2.752   3.665  0.3692 -1.0501 -0.5261
 9595TIP3   OH250199   6.266   2.994   4.864 -0.6147 -0.1012 -0.5726
 9595TIP3    H150200   6.239   2.947   4.943  2.2347 -0.0503  0.5509
 9595TIP3    H250201   6.203   3.066   4.857 -0.0376  0.8948  2.6633
 9596TIP3   OH250202   5.153   0.790  13.237 -0.0859 -0.1262 -0.1624
 9596TIP3    H150203   5.227   0.742  13.275  0.7162  0.7481 -0.5844
 9596TIP3    H250204   5.094   0.804  13.311  1.2975  1.2605  0.7477
 9597TIP3   OH250205   5.601   6.022   1.230  0.0216 -0.2632 -0.6179
 9597TIP3    H150206   5.660   5.981   1.293 -0.7952  1.7222  1.6134
 9597TIP3    H250207   5.533   5.957   1.214 -0.1392 -0.5761  1.1668
 9598TIP3   OH250208   4.676   0.493  12.928 -0.9737 -0.2345  0.2822
 9598TIP3    H150209   4.642   0.565  12.875 -0.0556 -0.0440 -0.0794
 9598TIP3    H250210   4.760   0.471  12.887 -0.8354 -0.9321  0.9092
 9599TIP3   OH250211   3.897   6.671   6.453  0.5329  0.5108  0.1684
 9599TIP3    H150212   3.808   6.709   6.455  0.9774  1.6433 -0.5488
 9599TIP3    H250213   3.951   6.737   6.495  0.9304 -0.5531  1.3814
 9600TIP3   OH250214   6.055   0.735  12.034 -0.1340 -0.2802  0.7108
 9600TIP3    H150215   6.041   0.671  11.964 -0.1852  0.5992 -0.1075
 9600TIP3    H250216   6.098   0.809  11.991 -2.2305  1.2620  1.0701
 9601TIP3   OH250217   5.710   5.878   6.031 -0.5942  0.8509 -0.4079
 9601TIP3    H150218   5.798   5.848   6.053 -0.1234  1.0601 -1.8946
 9601TIP3    H250219   5.657   5.854   6.107  0.8068  1.0551  0.6689
 9602TIP3   OH250220   0.668   0.856  12.764 -0.4011  0.5606 -0.0339
 9602TIP3    H150221   0.660   0.761  12.773  2.3016  0.2516 -0.0923
 9602TIP3    H250222   0.625   0.891  12.843 -0.0438 -0.8046  0.8006
 9603TIP3   OH250223   0.415   5.818   1.488 -0.5423  0.1374 -0.2881
 9603TIP3    H150224   0.435   5.861   1.571  0.1951 -0.9180  0.1088
 9603TIP3    H250225   0.362   5.881   1.440 -0.0765  1.1942  0.5466
 9604TIP3   OH250226   1.838   1.644   0.531  0.6453  0.5383 -0.1459
 9604TIP3    H150227   1.880   1.657   0.616  0.4471 -1.4641  0.3127
 9604TIP3    H250228   1.785   1.722   0.518  0.9568  1.0412  1.3931
 9605TIP3   OH250229   5.066   4.192   5.053 -0.2297 -0.0116 -0.0907
 9605TIP3    H150230   5.074   4.278   5.097 -0.0498  0.3479 -0.8158
 9605TIP3    H250231   5.114   4.132   5.110 -0.8320  0.2582  0.7207
 9606TIP3   OH250232   1.306   1.173   0.399 -0.6045  0.0342  0.4934
 9606TIP3    H150233   1.323   1.149   0.490  0.4494  0.2329  0.3621
 9606TIP3    H250234   1.227   1.125   0.376 -0.6054 -0.4056  1.3620
 9607TIP3   OH250235   3.923   0.509  16.259  0.0412  0.2617  0.1829
 9607TIP3    H150236   3.859   0.524  16.189 -2.3156  2.1577  2.5251
 9607TIP3    H250237   3.997   0.565  16.236 -1.0051  1.4180 -0.4671
 9608TIP3   OH250238   0.884   4.313  16.136  0.5975 -0.0138  0.4530
 9608TIP3    H150239   0.928   4.330  16.053 -0.1234 -0.2787 -0.0015
 9608TIP3    H250240   0.946   4.259  16.186  1.1670  0.4175  0.2214
 9609TIP3   OH250241   0.943   6.309   4.819  0.1485  0.0420 -0.5084
 9609TIP3    H150242   0.855   6.313   4.781  0.8897  1.3990 -2.2454
 9609TIP3    H250243   0.983   6.233   4.776 -0.5689 -1.4716  1.3532
 9610TIP3   OH250244   5.802   4.037  13.495 -0.0669 -0.3311 -0.1926
 9610TIP3    H150245   5.836   4.126  13.505 -0.1823 -0.2993 -0.0739
 9610TIP3    H250246   5.842   3.988  13.567 -3.8010  0.7481  2.9554
 9611TIP3   OH250247   2.863   5.342   5.903 -0.1838 -0.2545 -0.3139
 9611TIP3    H150248   2.788   5.397   5.883 -2.9012 -3.1467  1.0333
 9611TIP3    H250249   2.886   5.364   5.993  0.4526  0.4254 -0.6307
 9612TIP3   OH250250   5.211   4.985   0.117 -0.1284 -0.0663 -0.0127
 9612TIP3    H150251   5.122   5.001   0.085  0.0539  0.0342 -0.4797
 9612TIP3    H250252   5.268   5.017   0.047  0.3212  1.7131  1.1094
 9613TIP3   OH250253   6.091   4.453   2.077  0.8159 -0.8127 -0.4667
 9613TIP3    H150254   6.069   4.540   2.108 -0.5441 -0.7296 -1.5645
 9613TIP3    H250255   6.041   4.442   1.996  0.3225 -2.8958  0.0440
 9614TIP3   OH250256   2.817   6.619  16.233 -0.0479  0.5737 -0.4438
 9614TIP3    H150257   2.790   6.639  16.323 -3.0840 -2.3561 -0.4924
 9614TIP3    H250258   2.756   6.669  16.179 -0.7956 -0.5969 -0.7271
 9615TIP3   OH250259   1.515   0.105  15.798  0.8040  0.1847  0.4407
 9615TIP3    H150260   1.460   0.029  15.815  3.2429 -1.5193  1.3134
 9615TIP3    H250261   1.465   0.179  15.829 -1.1651 -1.1877  0.7200
 9616TIP3   OH250262   0.181   1.094  12.323 -0.0935 -0.8981 -0.0504
 9616TIP3    H150263   0.105   1.075  12.379  0.5014  1.1256  1.5845
 9616TIP3    H250264   0.243   1.023  12.343 -1.0539 -1.8750 -0.4598
 9617TIP3   OH250265   6.659   3.311  16.054  0.9805  0.0581  0.3414
 9617TIP3    H150266   6.651   3.325  16.149  0.7308  0.7748  0.2173
 9617TIP3    H250267   6.688   3.396  16.020  0.3346  0.0156 -0.3140
 9618TIP3   OH250268   3.233   2.038  17.224  0.1580  0.1602 -0.4365
 9618TIP3    H150269   3.224   1.943  17.238  4.3944 -0.2449  0.9071
 9618TIP3    H250270   3.178   2.077  17.291 -1.9801 -1.2338 -1.2530
 9619TIP3   OH250271   3.200   3.460  14.443 -0.0095  0.0620 -0.5995
 9619TIP3    H150272   3.125   3.400  14.452 -1.2001  1.6299  0.6333
 9619TIP3    H250273   3.259   3.435  14.514 -0.7275  0.6019  0.2123
 9620TIP3   OH250274   0.241   3.478   2.356  0.4620 -0.4719 -0.0037
 9620TIP3    H150275   0.335   3.462   2.346  0.6255  1.2435 -1.7546
 9620TIP3    H250276   0.235   3.565   2.396 -0.3687 -0.4980 -0.0460
 9621TIP3   OH250277   0.493   0.006   5.524 -0.6330  0.2082  0.0250
 9621TIP3    H150278   0.541   0.019   5.442  0.0184 -2.4961 -0.1119
 9621TIP3    H250279   0.551  -0.048   5.577 -1.2513  1.4975  2.1284
 9622TIP3   OH250280   3.210   5.409   4.575  0.2095 -0.2608 -0.4135
 9622TIP3    H150281   3.151   5.360   4.632  0.8957  0.4949  0.9677
 9622TIP3    H250282   3.151   5.461   4.519 -0.4613 -0.3478  0.1964
 9623TIP3   OH250283   5.503   0.886   2.080  0.1271  0.2400  0.2199
 9623TIP3    H150284   5.470   0.812   2.030  1.1055 -1.6158  2.1716
 9623TIP3    H250285   5.455   0.962   2.046 -0.4411 -1.1509 -2.2824
 9624TIP3   OH250286   5.681   3.647   2.708  0.6925 -0.4380 -0.4823
 9624TIP3    H150287   5.602   3.669   2.758  1.2845  1.7757 -0.3915
 9624TIP3    H250288   5.651   3.588   2.639 -1.0185  0.2540 -0.3633
 9625TIP3   OH250289   6.702   6.432   3.817 -0.4703 -0.1745 -0.7690
 9625TIP3    H150290   6.686   6.344   3.851 -1.1261  0.2105 -0.0428
 9625TIP3    H250291   6.767   6.420   3.747  1.7470 -0.9064  1.2739
 9626TIP3   OH250292   0.862   1.409  14.165 -0.4307 -0.2776 -0.2395
 9626TIP3    H150293   0.830   1.495  14.139 -2.0499 -0.5489  0.7513
 9626TIP3    H250294   0.880   1.417  14.259  1.8750 -0.3312 -0.6148
 9627TIP3   OH250295   3.954   2.183   1.889 -0.0143 -0.1839 -0.3764
 9627TIP3    H150296   3.879   2.157   1.942  1.1863  0.6159  1.8668
 9627TIP3    H250297   3.975   2.106   1.837 -0.8452 -1.2492  0.8110
 9628TIP3   OH250298   4.447   0.012   4.301  0.2842 -0.0819  0.0744
 9628TIP3    H150299   4.445   0.096   4.346 -0.9711  0.7789 -1.4656
 9628TIP3    H250300   4.523  -0.034   4.337  1.5740  2.0947  0.2836
 9629TIP3   OH250301   5.713   5.480   5.712  0.1900  0.5163  0.7161
 9629TIP3    H150302   5.676   5.513   5.793  2.1981 -2.0464  2.8521
 9629TIP3    H250303   5.808   5.489   5.723  0.5605 -0.7937 -0.9109
 9630TIP3   OH250304   2.758   1.831  14.845  0.3028  0.3900 -0.3550
 9630TIP3    H150305   2.833   1.864  14.795  1.1679 -0.3321  0.4232
 9630TIP3    H250306   2.775   1.737  14.852  0.4491  0.5314  1.6633
 9631TIP3   OH250307   2.048   2.765  16.815 -0.0426  0.3356 -0.2554
 9631TIP3    H150308   2.058   2.710  16.737  0.2457  0.6808 -0.4689
 9631TIP3    H250309   2.138   2.783  16.843 -0.0863  1.5952 -0.8365
 9632TIP3   OH250310   6.435   1.783  11.156  0.1882 -0.4294 -0.0285
 9632TIP3    H150311   6.500   1.747  11.216  0.5988  0.4429  0.0748
 9632TIP3    H250312   6.360   1.804  11.212  0.6928  0.6896  0.2683
 9633TIP3   OH250313   1.771   6.389  12.235  0.1765  0.3314  0.3405
 9633TIP3    H150314   1.685   6.413  12.202 -0.3430  2.1101  2.6585
 9633TIP3    H250315   1.753   6.342  12.317  1.4000 -0.5988  0.1059
 9634TIP3   OH250316   4.628   1.326   3.070 -0.3325  0.1384  0.2166
 9634TIP3    H150317   4.717   1.357   3.084  0.5282 -2.2069  0.4302
 9634TIP3    H250318   4.628   1.236   3.103 -2.0333 -0.8610 -2.1658
 9635TIP3   OH250319   4.030   2.984   4.687 -0.3238 -0.2887 -0.0291
 9635TIP3    H150320   3.974   2.996   4.764 -1.0338 -0.5971 -0.4904
 9635TIP3    H250321   4.046   2.889   4.683 -1.0913 -0.3975 -0.8075
 9636TIP3   OH250322   2.890   0.904  13.392 -0.0103  0.4399 -0.3996
 9636TIP3    H150323   2.925   0.914  13.303 -1.4295  1.5769 -0.8790
 9636TIP3    H250324   2.967   0.887  13.446  1.0080  0.6836 -1.6998
 9637TIP3   OH250325   4.695   2.031  14.723  0.2312 -0.0831 -0.0108
 9637TIP3    H150326   4.692   2.079  14.806  0.2338  2.1181 -1.1869
 9637TIP3    H250327   4.733   2.094  14.661  1.7019 -2.1956 -1.3558
 9638TIP3   OH250328   0.450   3.134  12.310  0.3827 -0.2007  0.1172
 9638TIP3    H150329   0.390   3.198  12.272  1.3038 -0.0218 -1.1060
 9638TIP3    H250330   0.423   3.050  12.272 -0.3186 -0.4452  1.1049
 9639TIP3   OH250331   2.000   0.278  14.149 -0.0036 -0.2048  0.2770
 9639TIP3    H150332   2.002   0.183  14.155  0.0836 -0.1100  2.3904
 9639TIP3    H250333   2.066   0.299  14.084 -1.4325 -1.6366 -1.7735
 9640TIP3   OH250334   0.431   2.586  13.912 -0.1764  0.0412  0.7931
 9640TIP3    H150335   0.519   2.623  13.905 -0.7521  1.6168  1.3718
 9640TIP3    H250336   0.418   2.539  13.829  0.8753  0.5230  0.3319
 9641TIP3   OH250337   1.326   3.666  17.029  0.1288 -0.2858 -0.3488
 9641TIP3    H150338   1.393   3.680  16.962 -0.8154  1.1687 -1.0366
 9641TIP3    H250339   1.253   3.721  17.002 -1.6774 -2.4031 -0.0253
 9642TIP3   OH250340   6.273   6.470  12.362 -0.2175 -0.1492 -0.6257
 9642TIP3    H150341   6.345   6.532  12.377 -0.7667  0.2855  0.2934
 9642TIP3    H250342   6.275   6.412  12.438 -0.7686 -0.2007 -0.6451
 9643TIP3   OH250343   2.625   3.766  16.539 -0.3258  0.7491 -0.2122
 9643TIP3    H150344   2.552   3.828  16.535 -1.4792 -0.6111 -0.6828
 9643TIP3    H250345   2.703   3.820  16.524 -1.2423  2.1785  0.0111
 9644TIP3   OH250346   0.473   1.566  13.784 -0.2974  0.3887  0.5017
 9644TIP3    H150347   0.482   1.517  13.702 -1.5457  0.1537  0.4776
 9644TIP3    H250348   0.561   1.599  13.803  0.3363 -0.8785 -0.0971
 9645TIP3   OH250349   2.868   1.310   1.611 -0.2182  0.1930  0.6586
 9645TIP3    H150350   2.870   1.387   1.554  1.8788  0.3660  0.8936
 9645TIP3    H250351   2.899   1.239   1.555  0.6336  0.1121  1.2221
 9646TIP3   OH250352   4.083   5.703   5.495  0.5623  0.0374  0.7721
 9646TIP3    H150353   4.134   5.757   5.556 -0.1854 -0.1108  1.5531
 9646TIP3    H250354   3.993   5.734   5.506  0.5765  0.8591 -1.1881
 9647TIP3   OH250355   1.315   6.657  11.659  0.2165  0.1546 -0.1081
 9647TIP3    H150356   1.405   6.623  11.653  1.5466  2.9726  1.6250
 9647TIP3    H250357   1.294   6.683  11.569  1.6329  0.5215 -0.3659
 9648TIP3   OH250358   4.757   2.530  15.040 -0.4257 -0.1599  0.0838
 9648TIP3    H150359   4.749   2.439  15.009  0.5640 -0.2091 -0.0421
 9648TIP3    H250360   4.731   2.526  15.132  1.8572 -1.0269  0.7460
 9649TIP3   OH250361   1.595   2.182  17.130 -0.5614  0.1615 -0.1012
 9649TIP3    H150362   1.674   2.129  17.144 -0.1446  1.1176  1.4433
 9649TIP3    H250363   1.524   2.118  17.123  0.0332 -0.6375  0.8635
 9650TIP3   OH250364   0.245   5.454   4.250 -0.2466  0.0750 -0.3982
 9650TIP3    H150365   0.321   5.398   4.234 -0.0244  0.5152 -0.9273
 9650TIP3    H250366   0.197   5.451   4.167  0.0358  1.0652 -0.6070
 9651TIP3   OH250367   5.883   3.583  12.629 -0.1743 -0.6807 -0.0166
 9651TIP3    H150368   5.964   3.531  12.619  0.9336  1.1817 -1.2938
 9651TIP3    H250369   5.895   3.657  12.570 -2.0340  0.6372  1.1705
 9652TIP3   OH250370   1.226   0.809   3.479  0.4237 -0.3772 -0.0313
 9652TIP3    H150371   1.297   0.816   3.416  0.4392  0.9896  0.1096
 9652TIP3    H250372   1.247   0.731   3.530  1.4640 -0.3693 -0.4178
 9653TIP3   OH250373   6.595   4.220   4.899  0.3604  0.1871  0.1235
 9653TIP3    H150374   6.511   4.178   4.915  0.1432 -0.1738 -1.6995
 9653TIP3    H250375   6.585   4.308   4.935 -1.3080  0.6149 -1.2367
 9654TIP3   OH250376   4.331   2.081  17.119  0.1043 -0.3577 -0.7155
 9654TIP3    H150377   4.300   2.005  17.070  0.8959 -0.3895 -1.1741
 9654TIP3    H250378   4.251   2.129  17.141 -0.3737 -1.1420 -0.7131
 9655TIP3   OH250379   0.879   6.552   5.793  0.0430  0.0464  0.7201
 9655TIP3    H150380   0.822   6.550   5.870 -2.3579 -1.4451 -0.9651
 9655TIP3    H250381   0.894   6.460   5.771  3.0063  0.3801  0.9228
 9656TIP3   OH250382   0.084   0.657   6.050  0.0019  0.3851  0.3009
 9656TIP3    H150383   0.010   0.625   6.102 -0.8395 -0.1500 -1.1548
 9656TIP3    H250384   0.158   0.657   6.110 -1.1197  0.6824  1.7331
 9657TIP3   OH250385   1.617   6.765   6.350  0.3971  0.2400 -0.1971
 9657TIP3    H150386   1.630   6.805   6.264 -0.9928  2.3090  0.4794
 9657TIP3    H250387   1.541   6.708   6.338  1.1538 -0.7046 -0.6765
 9658TIP3   OH250388   4.756   5.604  15.493  0.1327 -0.4778  0.0414
 9658TIP3    H150389   4.694   5.609  15.565 -1.0339  0.8901 -0.9912
 9658TIP3    H250390   4.772   5.510  15.481  2.1039 -0.7118  3.4375
 9659TIP3   OH250391   2.168   1.295  11.091 -0.1338 -0.2256 -0.2576
 9659TIP3    H150392   2.182   1.232  11.020 -0.2652 -0.3485 -0.1742
 9659TIP3    H250393   2.222   1.370  11.066  0.4840 -0.5926 -0.0656
 9660TIP3   OH250394   1.983   3.252  15.671 -0.1943 -0.9064  0.2109
 9660TIP3    H150395   2.073   3.230  15.647 -0.8123 -3.1199 -0.3369
 9660TIP3    H250396   1.937   3.262  15.588 -0.7106 -0.9991  0.4761
 9661TIP3   OH250397   4.474   6.587  14.852 -0.1534  0.0568  0.3064
 9661TIP3    H150398   4.383   6.560  14.843 -0.3470 -0.0015  2.1019
 9661TIP3    H250399   4.524   6.506  14.852 -0.1172  0.0705 -0.3046
 9662TIP3   OH250400   6.427   0.919  11.422  0.1187 -1.0396  0.5855
 9662TIP3    H150401   6.470   0.867  11.353  0.3930 -2.1726  1.5767
 9662TIP3    H250402   6.488   0.990  11.439 -0.7359  0.3184 -1.5367
 9663TIP3   OH250403   6.520   6.563  15.479 -0.0443  0.7127  0.7635
 9663TIP3    H150404   6.429   6.536  15.473 -0.1765  1.5216 -2.5172
 9663TIP3    H250405   6.517   6.658  15.494  0.1965  0.9650 -0.6657
 9664TIP3   OH250406   2.518   0.855  12.842  0.6763  0.4525 -0.4203
 9664TIP3    H150407   2.595   0.894  12.884 -0.8563  0.4955  2.6079
 9664TIP3    H250408   2.504   0.773  12.889 -0.5912 -0.0154 -1.5484
 9665TIP3   OH250409   3.961   3.182   2.746 -0.0645  0.0879  0.1233
 9665TIP3    H150410   4.028   3.231   2.794  0.5277 -1.3788  0.8554
 9665TIP3    H250411   3.880   3.196   2.797 -0.0822  0.9093 -0.1129
 9666TIP3   OH250412   3.494   2.325  15.295 -0.5651  0.0840 -0.5594
 9666TIP3    H150413   3.589   2.336  15.296 -0.4234 -0.5196 -2.4613
 9666TIP3    H250414   3.468   2.361  15.210 -1.7867 -1.5295 -0.9013
 9667TIP3   OH250415   2.621   2.975   1.849 -0.2796  0.5830  0.7098
 9667TIP3    H150416   2.562   3.009   1.916  0.9701  3.3566  0.5803
 9667TIP3    H250417   2.706   3.013   1.872  1.3162 -2.4454  0.3336
 9668TIP3   OH250418   3.482   1.745   4.982  0.6737 -0.0961  0.1856
 9668TIP3    H150419   3.401   1.764   4.934  0.7779 -0.4881 -0.1476
 9668TIP3    H250420   3.546   1.723   4.914  0.6138 -1.4264  0.5384
 9669TIP3   OH250421   0.787   1.880   1.068 -0.0327  0.4242 -0.0200
 9669TIP3    H150422   0.860   1.930   1.106  0.0892  0.0456  0.2636
 9669TIP3    H250423   0.817   1.856   0.981  0.6261 -0.6103  0.4657
 9670TIP3   OH250424   1.427   5.174   0.382  0.1064  0.1470  0.0519
 9670TIP3    H150425   1.431   5.253   0.436  0.5987 -1.1221  1.9567
 9670TIP3    H250426   1.342   5.136   0.401  0.0999 -0.0783 -0.4242
 9671TIP3   OH250427   6.696   5.743  11.077  0.7741 -0.2242 -0.1145
 9671TIP3    H150428   6.638   5.793  11.020 -0.1254 -0.7302  0.3210
 9671TIP3    H250429   6.718   5.803  11.148  1.7114  0.3325 -0.8502
 9672TIP3   OH250430   2.155   5.073   0.699  0.1547 -0.1498 -0.2232
 9672TIP3    H150431   2.063   5.060   0.724  0.2151  1.0438  0.7263
 9672TIP3    H250432   2.169   5.167   0.709  1.9978 -0.5472  1.5576
 9673TIP3   OH250433   0.372   2.130  15.811 -0.1578 -0.2349 -0.3729
 9673TIP3    H150434   0.396   2.143  15.719 -0.7581 -0.5483 -0.5718
 9673TIP3    H250435   0.456   2.111  15.854  0.1645  0.1642 -0.8033
 9674TIP3   OH250436   0.795   4.645   3.117  0.1400 -0.6052  0.0830
 9674TIP3    H150437   0.699   4.645   3.127  0.1103  0.1325 -0.1612
 9674TIP3    H250438   0.828   4.665   3.204 -0.0165  1.9192 -0.3666
 9675TIP3   OH250439   3.304   3.196  11.391 -0.7878  0.3761  0.0797
 9675TIP3    H150440   3.272   3.126  11.335 -2.1655  1.1347 -0.1328
 9675TIP3    H250441   3.367   3.244  11.337 -1.9907  1.0143 -0.7978
 9676TIP3   OH250442   4.618   4.332   5.715 -0.1300 -0.2941  0.2231
 9676TIP3    H150443   4.620   4.406   5.776  0.8584 -0.3185  0.2357
 9676TIP3    H250444   4.550   4.355   5.652  0.6240  0.9588 -0.1729
 9677TIP3   OH250445   1.769   2.403   5.359 -0.0243  1.0812  0.2666
 9677TIP3    H150446   1.801   2.314   5.342 -2.3811 -0.1486  1.7462
 9677TIP3    H250447   1.841   2.447   5.404  1.5432  0.2846 -1.3573
 9678TIP3   OH250448   5.641   6.204   3.851  0.0018 -0.3171 -0.3915
 9678TIP3    H150449   5.602   6.211   3.764  0.8459 -0.1996 -0.7687
 9678TIP3    H250450   5.568   6.177   3.908 -0.7771  0.5675 -0.9401
 9679TIP3   OH250451   5.442   0.794  11.486  0.0655  0.5873 -0.0508
 9679TIP3    H150452   5.420   0.848  11.562 -1.1570 -2.5145  2.0104
 9679TIP3    H250453   5.393   0.833  11.414 -1.5629  1.6285  1.5236
 9680TIP3   OH250454   2.954   4.917   0.095  0.4167  0.0055 -0.1434
 9680TIP3    H150455   3.005   4.969   0.157  0.1308  0.4061 -0.2379
 9680TIP3    H250456   2.863   4.934   0.118  0.3246 -0.9040  0.1854
 9681TIP3   OH250457   3.169   3.631  16.869 -0.0477  0.4394  0.2908
 9681TIP3    H150458   3.161   3.647  16.963 -1.2512  0.5676  0.1776
 9681TIP3    H250459   3.091   3.670  16.831  0.2047 -0.0014 -0.7206
 9682TIP3   OH250460   6.423   5.047   5.572  0.0892 -0.3299  0.2945
 9682TIP3    H150461   6.396   5.053   5.663 -0.6708  0.5996  0.0271
 9682TIP3    H250462   6.383   4.966   5.540  0.3611 -0.6580  0.7831
 9683TIP3   OH250463   3.660   4.138   1.338  0.5770 -0.1018 -0.0902
 9683TIP3    H150464   3.715   4.207   1.300 -0.4351  0.6984 -0.1558
 9683TIP3    H250465   3.619   4.179   1.414  1.1599 -1.1267  0.7875
 9684TIP3   OH250466   2.446   4.734   3.944  0.5095 -0.2832 -0.6774
 9684TIP3    H150467   2.433   4.782   4.025  1.8369  0.0200 -0.6214
 9684TIP3    H250468   2.413   4.793   3.875  0.6214  0.0198 -0.4725
 9685TIP3   OH250469   2.199   0.753  14.022  0.0377  0.6354 -0.0787
 9685TIP3    H150470   2.219   0.828  13.967  0.8187  0.5469  0.0621
 9685TIP3    H250471   2.123   0.712  13.981 -0.5435  1.6207 -0.0284
 9686TIP3   OH250472   3.399   2.725  16.851 -0.1430  0.3665 -0.1050
 9686TIP3    H150473   3.369   2.655  16.793 -0.5390  0.9307 -0.5941
 9686TIP3    H250474   3.327   2.736  16.914 -1.3076  2.1031 -1.6168
 9687TIP3   OH250475   1.694   0.026  17.085 -0.1291 -0.1421  0.2782
 9687TIP3    H150476   1.622   0.088  17.095 -0.8126 -1.0577  1.3976
 9687TIP3    H250477   1.772   0.074  17.115 -0.9769 -0.4050  3.2533
 9688TIP3   OH250478   4.278   2.218   4.177  0.0049  0.2312  0.2555
 9688TIP3    H150479   4.272   2.269   4.095  0.7969  0.4099  0.3028
 9688TIP3    H250480   4.315   2.279   4.240  0.2841 -0.1956  0.5047
 9689TIP3   OH250481   4.112   5.762   5.250 -0.6518 -0.0747  0.6435
 9689TIP3    H150482   4.084   5.737   5.338 -0.0243  0.9798  1.1724
 9689TIP3    H250483   4.208   5.761   5.254 -0.6171 -0.2699 -0.1066
 9690TIP3   OH250484   6.554   6.340   0.229 -0.9639  0.7040 -0.2757
 9690TIP3    H150485   6.515   6.427   0.232 -0.3434  0.9627  1.3840
 9690TIP3    H250486   6.524   6.297   0.310  0.2603  0.0827 -0.1223
 9691TIP3   OH250487   3.762   3.513  12.763  0.0937 -0.1385  0.4561
 9691TIP3    H150488   3.777   3.598  12.722 -1.7876  0.6094  1.2026
 9691TIP3    H250489   3.842   3.464  12.746  0.9342  1.5101 -0.6425
 9692TIP3   OH250490   0.179   1.554   5.336  0.4415  0.0554 -0.8535
 9692TIP3    H150491   0.132   1.617   5.282  0.0199 -1.1937 -2.0002
 9692TIP3    H250492   0.116   1.483   5.350  1.2726 -0.6490 -0.5964
 9693TIP3   OH250493   1.058   2.278  12.016 -0.2014  0.0098 -0.2747
 9693TIP3    H150494   1.050   2.183  12.012  0.8796 -0.0777 -0.7288
 9693TIP3    H250495   1.081   2.303  11.926  2.0467  0.4279  0.3710
 9694TIP3   OH250496   5.702   5.102   2.756 -0.5204  0.3437  0.4511
 9694TIP3    H150497   5.653   5.029   2.719 -2.1688  1.1427  0.9716
 9694TIP3    H250498   5.746   5.142   2.681 -1.5462  0.2524 -0.2260
 9695TIP3   OH250499   2.678   4.677  16.134 -0.1003 -0.3840  0.0481
 9695TIP3    H150500   2.599   4.699  16.083 -0.0499 -0.2091  0.0463
 9695TIP3    H250501   2.693   4.585  16.115  0.0088 -0.2799 -0.3793
 9696TIP3   OH250502   6.661   6.637  15.067 -0.3349 -0.2911  0.5308
 9696TIP3    H150503   6.720   6.594  15.004  0.8882  1.7058  0.2414
 9696TIP3    H250504   6.620   6.564  15.113  1.4963 -1.8061 -0.0626
 9697TIP3   OH250505   5.872   4.016  15.661  0.3358 -0.2688 -0.1752
 9697TIP3    H150506   5.867   4.020  15.757 -1.0155 -1.6900 -0.1642
 9697TIP3    H250507   5.783   4.035  15.632  0.8227  0.5508 -1.1929
 9698TIP3   OH250508   4.105   2.499   3.327 -0.2687 -0.1798  0.1086
 9698TIP3    H150509   4.050   2.443   3.273  0.6356  0.7689 -1.9150
 9698TIP3    H250510   4.192   2.460   3.320  0.0314  0.4778  0.0907
 9699TIP3   OH250511   0.391   5.507   1.797  0.1588  0.2534  0.7698
 9699TIP3    H150512   0.420   5.518   1.707  1.1375  1.7149  1.2287
 9699TIP3    H250513   0.298   5.484   1.790 -0.1755  1.8772 -0.5651
 9700TIP3   OH250514   1.143   1.444  11.416 -0.6541 -0.5747  0.1880
 9700TIP3    H150515   1.165   1.356  11.384 -0.4373 -0.6665  0.5918
 9700TIP3    H250516   1.225   1.494  11.407 -0.7466 -0.4443  0.0662
 9701TIP3   OH250517   2.960   5.901  16.490 -0.3727 -0.2220 -0.8713
 9701TIP3    H150518   2.899   5.933  16.424  0.9518 -1.0719 -2.5967
 9701TIP3    H250519   2.959   5.806  16.478  1.8248 -0.2182 -1.5188
 9702TIP3   OH250520   1.953   1.329   4.481 -0.1161 -0.0727  0.2723
 9702TIP3    H150521   1.973   1.420   4.504  0.6128  0.7280 -2.9778
 9702TIP3    H250522   1.899   1.336   4.402 -1.8321 -2.5013  1.0872
 9703TIP3   OH250523   3.398   3.990  17.182 -0.0769  0.0724  0.2342
 9703TIP3    H150524   3.334   4.053  17.150  0.9412  0.6011 -0.8453
 9703TIP3    H250525   3.474   4.002  17.125  0.5900 -1.2875  0.7833
 9704TIP3   OH250526   6.043   3.023  15.995 -0.1319  0.5224  0.2314
 9704TIP3    H150527   6.052   3.020  15.899 -0.2822 -1.5775  0.2352
 9704TIP3    H250528   5.964   3.076  16.009  0.2658  1.4202 -0.7598
 9705TIP3   OH250529   5.204   1.351   1.223 -0.5208  0.2663 -0.2581
 9705TIP3    H150530   5.280   1.403   1.247 -0.3020 -0.8162  1.6216
 9705TIP3    H250531   5.238   1.285   1.163  0.0279 -0.1178  0.4525
 9706TIP3   OH250532   4.341   6.014  14.161  0.4807 -0.2092 -0.1048
 9706TIP3    H150533   4.382   5.928  14.173 -0.0750 -0.3319  1.1340
 9706TIP3    H250534   4.413   6.072  14.138  1.2287 -0.6061  1.1044
 9707TIP3   OH250535   0.577   6.653  15.865 -0.3047  0.3150  0.4590
 9707TIP3    H150536   0.619   6.650  15.779  0.2329 -1.4016  0.7495
 9707TIP3    H250537   0.643   6.691  15.923  0.2705 -0.8164  0.5781
 9708TIP3   OH250538   3.008   6.397   1.092  0.3579 -0.7126 -0.2921
 9708TIP3    H150539   3.057   6.333   1.143  3.0935  0.2629 -1.4793
 9708TIP3    H250540   2.986   6.466   1.155 -1.1588 -1.9693  0.6316
 9709TIP3   OH250541   5.229   5.873   0.233  0.0912 -0.3944 -0.3339
 9709TIP3    H150542   5.199   5.959   0.201  1.9667 -0.2074 -1.7138
 9709TIP3    H250543   5.148   5.822   0.241 -1.0850  1.4781  0.5659
 9710TIP3   OH250544   1.551   6.018   2.304  0.5127  0.0132  0.0837
 9710TIP3    H150545   1.520   5.971   2.226 -0.7566  2.0558 -0.7151
 9710TIP3    H250546   1.606   6.088   2.270 -1.0084  1.6561  0.8870
 9711TIP3   OH250547   4.521   6.643   0.372 -0.5099  0.4934 -0.0092
 9711TIP3    H150548   4.467   6.581   0.421 -2.8550  2.0520 -0.4814
 9711TIP3    H250549   4.471   6.725   0.373  1.0901  1.5765 -1.8926
 9712TIP3   OH250550   1.136   0.370  16.767 -0.2913 -0.2627  0.3873
 9712TIP3    H150551   1.101   0.385  16.679  0.7079 -0.7717 -0.1028
 9712TIP3    H250552   1.086   0.295  16.801 -2.4037  1.3987  1.2457
 9713TIP3   OH250553   6.744   3.636  13.988  0.4004  0.6168 -0.6048
 9713TIP3    H150554   6.685   3.700  13.949  0.0126  0.1666 -0.7725
 9713TIP3    H250555   6.774   3.677  14.069 -1.3570  0.2471  0.2697
 9714TIP3   OH250556   0.182   4.343   0.986 -0.4840 -0.1821 -0.1560
 9714TIP3    H150557   0.216   4.256   0.964  2.2671  1.2622 -2.3409
 9714TIP3    H250558   0.140   4.373   0.905 -0.5503  0.8586  0.2542
 9715TIP3   OH250559   5.740   5.153  12.093 -0.6971  0.0063 -0.2047
 9715TIP3    H150560   5.727   5.248  12.095  0.9916  0.2662  0.1475
 9715TIP3    H250561   5.768   5.131  12.182 -2.3171 -1.0525  0.0855
 9716TIP3   OH250562   4.225   5.524   0.035 -0.4061 -0.7366  0.1196
 9716TIP3    H150563   4.194   5.614   0.026 -0.4318 -0.8279 -0.7735
 9716TIP3    H250564   4.148   5.470   0.018  0.1513 -0.9590 -1.9275
 9717TIP3   OH250565   3.386   1.317  16.433 -0.0648  0.4979 -0.3469
 9717TIP3    H150566   3.444   1.295  16.506  0.2425  0.1145 -0.7049
 9717TIP3    H250567   3.417   1.403  16.403 -1.5204  1.6854  1.3064
 9718TIP3   OH250568   0.249   0.662  11.873 -0.1258  0.9163 -0.5005
 9718TIP3    H150569   0.304   0.723  11.823 -1.2586  1.0152 -1.6816
 9718TIP3    H250570   0.294   0.653  11.957 -0.6695  4.6019  0.3813
 9719TIP3   OH250571   4.724   6.480  17.166 -0.1091  0.4137 -0.2006
 9719TIP3    H150572   4.653   6.504  17.107 -1.4056 -1.9798  0.2361
 9719TIP3    H250573   4.686   6.485  17.253 -0.0457 -1.6733 -0.0076
 9720TIP3   OH250574   2.300   6.225   5.532 -0.0337  0.3086  0.0667
 9720TIP3    H150575   2.346   6.299   5.572  0.1173  0.3843 -0.2381
 9720TIP3    H250576   2.314   6.152   5.592 -0.3877  0.5855  0.4918
 9721TIP3   OH250577   4.120   1.637   2.959  0.0591 -0.2421 -0.8201
 9721TIP3    H150578   4.192   1.639   3.023 -0.7619 -1.0643  0.1576
 9721TIP3    H250579   4.143   1.705   2.896  1.9663 -0.8513 -0.8367
 9722TIP3   OH250580   3.093   0.698   4.667 -0.5680 -0.0969  0.0569
 9722TIP3    H150581   3.064   0.610   4.644 -1.2526  0.0720  0.2386
 9722TIP3    H250582   3.119   0.692   4.759  2.3203 -0.8093 -0.7243
 9723TIP3   OH250583   1.905   6.412   1.992  0.6291 -0.3276  0.7080
 9723TIP3    H150584   1.953   6.419   1.909  1.5754 -2.0090  1.0675
 9723TIP3    H250585   1.855   6.331   1.983  0.3946 -0.2890  1.6199
 9724TIP3   OH250586   0.274   4.201   6.273  0.5554 -0.4096 -0.1497
 9724TIP3    H150587   0.285   4.129   6.212  0.7610  1.5298 -2.5274
 9724TIP3    H250588   0.324   4.174   6.350  1.9517 -2.1025 -1.5578
 9725TIP3   OH250589   3.326   3.939   3.555  0.5077  0.1981 -0.2039
 9725TIP3    H150590   3.399   3.882   3.529  1.7363  0.1130  2.9231
 9725TIP3    H250591   3.274   3.884   3.614 -0.4363  1.1970 -0.0865
 9726TIP3   OH250592   5.150   2.484  15.896  0.2144  0.8283  0.8160
 9726TIP3    H150593   5.179   2.403  15.854 -0.9709  0.6692  0.2587
 9726TIP3    H250594   5.176   2.474  15.988 -0.3072 -0.3841  0.8533
 9727TIP3   OH250595   1.132   2.678   2.012 -0.3899 -0.2035 -0.4163
 9727TIP3    H150596   1.106   2.770   2.005 -0.6913 -0.2919 -0.4891
 9727TIP3    H250597   1.208   2.670   1.954  1.1978  0.5613  1.4514
 9728TIP3   OH250598   2.877   1.486   1.390  0.2222  0.1319  0.2845
 9728TIP3    H150599   2.919   1.487   1.304  0.4380  0.6099  0.3938
 9728TIP3    H250600   2.794   1.441   1.376  0.3599  0.0036 -0.1245
 9729TIP3   OH250601   6.051   0.481  12.927 -0.3258 -0.4561 -0.0207
 9729TIP3    H150602   6.094   0.545  12.870 -1.3067 -1.1360 -1.6083
 9729TIP3    H250603   6.018   0.532  13.000 -1.1434  0.9050 -1.2876
 9730TIP3   OH250604   4.592   4.211  14.470 -0.7419 -0.2023  0.1048
 9730TIP3    H150605   4.501   4.181  14.476 -1.8420  3.0019  1.8962
 9730TIP3    H250606   4.640   4.153  14.530 -1.4357 -2.1813 -1.1509
 9731TIP3   OH250607   3.798   3.017   5.468 -0.2008  0.1813 -0.0810
 9731TIP3    H150608   3.707   2.994   5.487 -0.6161  0.8696 -1.1273
 9731TIP3    H250609   3.831   2.943   5.417 -0.2889  0.1074 -0.0312
 9732TIP3   OH250610   5.814   4.848   0.087 -0.3905 -0.0153  0.4964
 9732TIP3    H150611   5.825   4.941   0.110  1.1618 -0.1661  0.4978
 9732TIP3    H250612   5.846   4.843  -0.003  1.6352 -0.8854  1.1959
 9733TIP3   OH250613   5.920   1.423  14.451  0.0857 -0.4459  0.4013
 9733TIP3    H150614   5.937   1.500  14.395  0.1446 -0.9950 -0.3449
 9733TIP3    H250615   5.854   1.373  14.404 -0.6441 -0.3987  1.3408
 9734TIP3   OH250616   4.379   1.672   4.807 -0.0616 -0.2788  0.4161
 9734TIP3    H150617   4.471   1.654   4.792  0.2187  1.3513 -0.0782
 9734TIP3    H250618   4.333   1.616   4.744  0.5981 -0.8203  0.4048
 9735TIP3   OH250619   3.109   1.921  11.581 -0.3912  0.0513  0.2165
 9735TIP3    H150620   3.154   1.842  11.552 -0.0783 -0.1006  1.1099
 9735TIP3    H250621   3.035   1.890  11.632 -0.9796  0.3202 -0.4496
 9736TIP3   OH250622   5.154   3.090  16.374  0.0770  0.6493 -0.4657
 9736TIP3    H150623   5.217   3.158  16.398  0.7916 -0.0733 -0.2360
 9736TIP3    H250624   5.105   3.127  16.301 -0.6271  2.0150  0.6541
 9737TIP3   OH250625   0.463   3.066   4.751  0.7287 -0.1489 -0.0844
 9737TIP3    H150626   0.457   3.045   4.845  0.8835 -0.2506 -0.0974
 9737TIP3    H250627   0.374   3.091   4.727  0.8964  0.9048  0.3326
 9738TIP3   OH250628   6.575   6.175  15.363 -0.0360  0.3318 -0.3183
 9738TIP3    H150629   6.484   6.202  15.349 -1.0168 -0.9317  2.7226
 9738TIP3    H250630   6.574   6.081  15.346  0.6513  0.2715 -0.0478
 9739TIP3   OH250631   6.233   0.892  14.043  0.5014  0.0919 -0.3674
 9739TIP3    H150632   6.245   0.914  14.135  0.3454  0.2056 -0.3741
 9739TIP3    H250633   6.139   0.872  14.036  1.1080 -3.8196  0.3692
 9740TIP3   OH250634   0.180   1.227  10.944 -0.1614 -0.4560 -0.1258
 9740TIP3    H150635   0.249   1.222  10.878 -0.5468  0.2631 -0.5997
 9740TIP3    H250636   0.104   1.186  10.902 -0.4005 -0.0187 -0.1239
 9741TIP3   OH250637   2.639   2.200   1.284 -0.0041  0.2523  0.9097
 9741TIP3    H150638   2.550   2.188   1.249  0.3430 -1.4511  0.4863
 9741TIP3    H250639   2.629   2.262   1.355 -1.3759  0.8649  0.2232
 9742TIP3   OH250640   6.688   2.418  16.855  0.4642 -0.0488 -0.3006
 9742TIP3    H150641   6.669   2.344  16.796  1.3617 -1.4501  1.1092
 9742TIP3    H250642   6.669   2.496  16.802 -1.5411 -1.2587 -1.5120
 9743TIP3   OH250643   5.020   3.117   4.066 -0.0407  0.5189  0.7992
 9743TIP3    H150644   5.068   3.046   4.023  2.4759  1.7316  1.3640
 9743TIP3    H250645   4.994   3.081   4.150 -1.4814 -0.6308 -0.0973
 9744TIP3   OH250646   0.557   3.437   0.149  0.6262  0.1696 -0.4250
 9744TIP3    H150647   0.462   3.433   0.160  0.4450  3.4745  0.3946
 9744TIP3    H250648   0.575   3.529   0.131  3.7256 -0.3169 -0.3869
 9745TIP3   OH250649   4.568   6.311  15.268 -0.7061  0.5580  0.0756
 9745TIP3    H150650   4.599   6.224  15.242  0.4500  0.9184  0.2092
 9745TIP3    H250651   4.517   6.294  15.348  0.2958  0.0948  0.6426
 9746TIP3   OH250652   5.536   0.472   1.408  0.2341 -0.2486 -0.5642
 9746TIP3    H150653   5.506   0.562   1.396 -2.0712 -0.9856 -0.7173
 9746TIP3    H250654   5.500   0.425   1.333  1.3548 -1.3318 -0.4483
 9747TIP3   OH250655   0.877   1.848  14.671  0.2300  0.3114 -0.1414
 9747TIP3    H150656   0.839   1.778  14.723 -1.4115  1.4793  0.3126
 9747TIP3    H250657   0.816   1.921  14.680  1.0992  1.3205 -1.8154
 9748TIP3   OH250658   5.137   1.603   0.389  0.0557 -0.1288 -0.3058
 9748TIP3    H150659   5.140   1.594   0.294  1.0178  1.5230 -0.4690
 9748TIP3    H250660   5.213   1.657   0.411 -0.6489  0.2797  1.3094
 9749TIP3   OH250661   2.594   4.913  11.466 -0.6302 -0.1591  0.2517
 9749TIP3    H150662   2.679   4.899  11.507  0.1796 -3.2306 -2.0747
 9749TIP3    H250663   2.533   4.861  11.519 -0.4743 -0.3743  0.2211
 9750TIP3   OH250664   0.125   3.893   1.165  0.5176 -0.0194 -0.6238
 9750TIP3    H150665   0.070   3.969   1.178  1.0074  0.3547 -0.7020
 9750TIP3    H250666   0.091   3.827   1.226  0.3617  0.4051 -0.2506
 9751TIP3   OH250667   1.152   6.744   1.437  0.1676 -0.0843  0.0005
 9751TIP3    H150668   1.111   6.692   1.368 -0.5246 -0.0023  0.3417
 9751TIP3    H250669   1.164   6.683   1.510 -0.1636  0.0971  0.2122
 9752TIP3   OH250670   5.060   1.462  11.975  0.2881  0.1550 -0.1822
 9752TIP3    H150671   5.082   1.526  12.042  0.1252  0.2388 -0.2075
 9752TIP3    H250672   5.090   1.502  11.893 -1.5973  1.1031 -0.4598
 9753TIP3   OH250673   2.560   3.995  13.572 -0.1085  0.8634  0.1904
 9753TIP3    H150674   2.650   4.027  13.566 -0.6882  2.8151  0.9127
 9753TIP3    H250675   2.553   3.931  13.501  1.8230  0.6568  0.1147
 9754TIP3   OH250676   3.890   1.184   5.271 -0.2632 -0.2795 -0.3265
 9754TIP3    H150677   3.814   1.197   5.328  0.5359  0.6378  0.5752
 9754TIP3    H250678   3.857   1.197   5.182 -1.1637  0.0519  0.0529
 9755TIP3   OH250679   3.219   3.575   3.938 -0.1801 -0.3645 -0.1365
 9755TIP3    H150680   3.306   3.613   3.945 -0.5300  0.6965 -1.2264
 9755TIP3    H250681   3.183   3.579   4.027 -0.3236  2.1948 -0.2499
 9756TIP3   OH250682   6.362   3.888   2.344 -0.3985 -0.3748 -0.0893
 9756TIP3    H150683   6.344   3.905   2.436  0.8092  0.6296 -0.0135
 9756TIP3    H250684   6.348   3.972   2.300 -1.9876 -1.0783 -1.0220
 9757TIP3   OH250685   2.446   4.796  16.404 -0.7150  0.5140  0.1560
 9757TIP3    H150686   2.433   4.702  16.396 -0.0621  0.1865  2.3124
 9757TIP3    H250687   2.420   4.831  16.319 -3.1806 -1.3423  0.0414
 9758TIP3   OH250688   2.204   2.663   4.169 -0.0124 -0.7047  0.0004
 9758TIP3    H150689   2.247   2.581   4.144 -0.9242 -1.5469  1.1018
 9758TIP3    H250690   2.196   2.711   4.086  1.9727 -0.9988 -0.4178
 9759TIP3   OH250691   4.368   0.305  10.924  0.3365  0.0126 -0.3636
 9759TIP3    H150692   4.297   0.326  10.864  0.2035  0.0813 -0.1829
 9759TIP3    H250693   4.325   0.263  10.998  0.6494 -1.4089 -0.9539
 9760TIP3   OH250694   5.311   6.589   6.301  0.2424  0.1214  0.4197
 9760TIP3    H150695   5.357   6.519   6.348 -0.0506  0.3602  1.0676
 9760TIP3    H250696   5.377   6.624   6.241  0.1391 -1.3210 -0.6045
 9761TIP3   OH250697   1.219   3.190  13.458  0.1527  0.5336  0.2680
 9761TIP3    H150698   1.218   3.284  13.472  0.3275  0.2990  2.0913
 9761TIP3    H250699   1.173   3.177  13.375 -1.2758  2.1060  0.7571
 9762TIP3   OH250700   4.046   0.370  15.259  0.3375  0.4244  0.5399
 9762TIP3    H150701   4.037   0.460  15.228  2.3619  0.2151 -0.8451
 9762TIP3    H250702   3.988   0.320  15.201 -0.3352  0.7321  0.9277
 9763TIP3   OH250703   3.973   5.141   0.161 -0.1499  0.1761 -0.0111
 9763TIP3    H150704   3.951   5.224   0.204  1.0077  1.0013 -0.9418
 9763TIP3    H250705   4.066   5.147   0.142  0.4769 -2.2952  1.8384
 9764TIP3   OH250706   0.872   4.534  13.822  0.6876  0.4294 -0.4313
 9764TIP3    H150707   0.880   4.476  13.747  3.8162 -0.8603  0.7467
 9764TIP3    H250708   0.835   4.479  13.891 -0.8650  1.2383 -0.5613
 9765TIP3   OH250709   6.082   1.764   2.022  0.2207 -0.5392 -0.5425
 9765TIP3    H150710   6.074   1.727   1.934 -0.9043  1.5230 -1.3986
 9765TIP3    H250711   6.092   1.689   2.080 -1.4204 -2.1191 -2.1863
 9766TIP3   OH250712   5.065   4.303  14.569  0.3144  0.2211  0.2016
 9766TIP3    H150713   5.112   4.297  14.652 -0.4673 -0.9929  0.5867
 9766TIP3    H250714   5.062   4.214  14.536  0.1501  0.6074 -0.8828
 9767TIP3   OH250715   5.206   4.054   4.368 -0.6256  0.5260  0.0707
 9767TIP3    H150716   5.217   4.123   4.433  1.7080 -0.0618  0.3794
 9767TIP3    H250717   5.258   3.980   4.401  1.6594  0.5942 -2.9115
 9768TIP3   OH250718   2.456   5.026  16.191 -0.2301 -0.0799  0.0156
 9768TIP3    H150719   2.410   5.110  16.191 -1.1199 -0.4807  2.6035
 9768TIP3    H250720   2.534   5.041  16.243  0.0505 -0.6458 -0.2328
 9769TIP3   OH250721   5.538   6.201  15.342  0.6877  0.1162  0.6472
 9769TIP3    H150722   5.451   6.222  15.309  1.2155  1.7381  0.1319
 9769TIP3    H250723   5.524   6.137  15.411 -0.8856  0.2182  0.4553
 9770TIP3   OH250724   3.121   0.148  15.614 -0.4176  0.0457 -0.1039
 9770TIP3    H150725   3.138   0.116  15.526  2.0924 -1.2677  0.7468
 9770TIP3    H250726   3.116   0.068  15.668  2.2762  0.8041  1.5049
 9771TIP3   OH250727   3.988   6.252   3.871  0.2895  0.0087  0.0803
 9771TIP3    H150728   3.953   6.330   3.914 -0.4971 -0.7055  0.7789
 9771TIP3    H250729   4.082   6.267   3.866  0.3055  0.4486  1.3718
 9772TIP3   OH250730   0.321   3.172   0.393  0.1112 -0.1762 -0.0199
 9772TIP3    H150731   0.247   3.132   0.439 -0.0435 -1.0639 -0.9897
 9772TIP3    H250732   0.352   3.240   0.452  0.8190 -2.1523  2.0707
 9773TIP3   OH250733   3.278   2.616  15.263  0.2174 -0.2678  0.1331
 9773TIP3    H150734   3.220   2.619  15.186  0.9231 -0.6477 -0.4253
 9773TIP3    H250735   3.235   2.673  15.327  0.4310  1.4125 -1.1238
 9774TIP3   OH250736   6.395   0.799  11.995 -0.1402  0.2509  0.9293
 9774TIP3    H150737   6.318   0.852  12.018 -0.7927  0.0548 -0.6995
 9774TIP3    H250738   6.358   0.716  11.964  0.6179  0.6650 -1.2418
 9775TIP3   OH250739   1.661   6.573  16.646 -0.4443 -0.2165 -0.3501
 9775TIP3    H150740   1.706   6.609  16.723 -0.3801 -0.2347 -0.3792
 9775TIP3    H250741   1.653   6.479  16.664 -2.7641  0.1198  0.8364
 9776TIP3   OH250742   2.367   6.588  13.668 -0.4415  0.0463  0.2161
 9776TIP3    H150743   2.300   6.553  13.611 -1.7922  1.7795  0.6328
 9776TIP3    H250744   2.385   6.676  13.633  1.9898 -0.5385 -0.1686
 9777TIP3   OH250745   2.091   0.514  15.717 -0.1496 -0.5101  0.2782
 9777TIP3    H150746   2.149   0.581  15.754 -0.0454 -0.0043 -0.7656
 9777TIP3    H250747   2.007   0.557  15.707  0.3186  0.0366 -1.9260
 9778TIP3   OH250748   0.522   1.505  15.928  0.0654  0.7990  0.7542
 9778TIP3    H150749   0.443   1.560  15.929 -0.4885  0.0155  0.7127
 9778TIP3    H250750   0.514   1.452  15.849  1.1397  1.4171  0.2024
 9779TIP3   OH250751   2.179   4.586   1.666 -0.1547  0.0324 -0.2583
 9779TIP3    H150752   2.115   4.647   1.702 -0.8444  0.5790 -2.3212
 9779TIP3    H250753   2.128   4.522   1.616  0.8367  0.1902 -1.5334
 9780TIP3   OH250754   6.753   2.163  16.192 -0.2410  0.0023 -0.1327
 9780TIP3    H150755   6.815   2.136  16.260 -1.7437 -1.3393  0.7839
 9780TIP3    H250756   6.794   2.238  16.150  2.7875 -1.8203 -0.7277
 9781TIP3   OH250757   4.171   0.178  15.424 -0.1410  0.2594  0.0242
 9781TIP3    H150758   4.193   0.128  15.346  2.5487 -0.0832  0.8964
 9781TIP3    H250759   4.160   0.268  15.393  0.1139 -0.0058 -0.8541
 9782TIP3   OH250760   2.293   4.273  12.551 -0.0413 -0.3128  0.2615
 9782TIP3    H150761   2.316   4.186  12.585 -0.3093 -1.2121 -1.7112
 9782TIP3    H250762   2.202   4.265  12.523 -0.1627  0.7099  0.3291
 9783TIP3   OH250763   3.020   2.572   1.845 -0.1959 -0.2156 -0.3216
 9783TIP3    H150764   2.976   2.504   1.896  0.2119  0.2460  0.6954
 9783TIP3    H250765   3.046   2.529   1.764 -0.2373 -1.1821  0.1626
 9784TIP3   OH250766   1.974   2.906  15.648 -0.0592  0.4491  0.0379
 9784TIP3    H150767   2.063   2.880  15.625  0.5562  1.4298  1.1962
 9784TIP3    H250768   1.948   2.967  15.579 -0.6473 -1.3640 -1.4230
 9785TIP3   OH250769   2.033   6.786  13.059 -0.1159  0.7443  0.5334
 9785TIP3    H150770   1.984   6.868  13.066 -0.9126  0.3226  0.0082
 9785TIP3    H250771   1.967   6.720  13.036  0.6539  0.1115  0.0857
 9786TIP3   OH250772   6.081   1.440   4.524  0.1948 -0.0230  0.2327
 9786TIP3    H150773   6.056   1.362   4.573  1.9055 -1.2729 -0.7534
 9786TIP3    H250774   6.011   1.452   4.460 -0.8322  0.1825  1.3624
 9787TIP3   OH250775   2.980   2.024   0.370 -0.4620  0.0211  0.6551
 9787TIP3    H150776   3.027   1.941   0.376 -1.6297 -0.6590  0.7234
 9787TIP3    H250777   2.986   2.061   0.458  1.5775  0.9119  0.2107
 9788TIP3   OH250778   5.264   1.305   4.384  0.0817  0.0667 -0.2797
 9788TIP3    H150779   5.330   1.283   4.450 -1.5776 -2.1922  0.7540
 9788TIP3    H250780   5.311   1.359   4.320  2.7773 -1.0284  0.6284
 9789TIP3   OH250781   4.544   5.277   3.126  0.0915 -0.3248  0.1294
 9789TIP3    H150782   4.551   5.216   3.199  0.9132 -0.1521  0.2037
 9789TIP3    H250783   4.552   5.364   3.166  1.5105 -0.2516 -0.2442
 9790TIP3   OH250784   2.446   1.962  12.179  0.2639  0.0795 -0.1000
 9790TIP3    H150785   2.445   1.868  12.197  1.5621  0.1712  0.5117
 9790TIP3    H250786   2.484   1.969  12.091  0.0374  0.0276 -0.2025
 9791TIP3   OH250787   6.347   5.119   3.566  0.3124  0.6982  0.1048
 9791TIP3    H150788   6.352   5.152   3.656 -0.6770  0.3230  0.3062
 9791TIP3    H250789   6.306   5.033   3.575 -0.5698  1.0192 -0.7889
 9792TIP3   OH250790   6.225   3.681  14.276  0.3545  0.3283  0.0976
 9792TIP3    H150791   6.309   3.672  14.320 -0.3451  0.0314  1.4059
 9792TIP3    H250792   6.193   3.768  14.301 -1.3292 -0.8950  2.5594
 9793TIP3   OH250793   3.332   3.578  15.448 -0.9322  0.3342 -0.4720
 9793TIP3    H150794   3.364   3.503  15.498 -0.7534  0.3734 -0.5275
 9793TIP3    H250795   3.243   3.592  15.481 -0.4868  0.9397  0.4966
 9794TIP3   OH250796   1.893   0.069   0.118  0.3825  0.4454  0.0730
 9794TIP3    H150797   1.866  -0.013   0.160 -0.4015  0.6355 -0.0478
 9794TIP3    H250798   1.854   0.138   0.172 -2.4153  0.6907 -2.0369
 9795TIP3   OH250799   4.837   2.797   4.124 -0.4081 -0.1856 -0.0819
 9795TIP3    H150800   4.763   2.736   4.117 -0.6745  0.2137 -0.8487
 9795TIP3    H250801   4.910   2.743   4.156 -1.4071 -0.2744  2.2744
 9796TIP3   OH250802   0.835   4.952   0.384 -0.5028 -0.0555  0.9587
 9796TIP3    H150803   0.879   4.985   0.463  0.7676  2.1870 -0.5768
 9796TIP3    H250804   0.872   4.865   0.371  1.2441  0.5645  1.4458
 9797TIP3   OH250805   4.783   3.317   2.412  0.0906  0.3520  0.7946
 9797TIP3    H150806   4.699   3.348   2.445  0.1145  0.7768  0.4711
 9797TIP3    H250807   4.762   3.272   2.331  0.1957  0.6618  0.5922
 9798TIP3   OH250808   4.611   1.982   5.183 -0.1143 -1.1906 -0.0310
 9798TIP3    H150809   4.523   2.006   5.150  0.3287  0.6029 -0.0328
 9798TIP3    H250810   4.655   1.945   5.107 -0.4136 -0.7691 -0.4189
 9799TIP3   OH250811   2.106   1.437  15.380  0.4884  0.4812  0.2185
 9799TIP3    H150812   2.045   1.510  15.383 -0.3709 -0.2329  2.6987
 9799TIP3    H250813   2.193   1.477  15.388  0.0192  1.2464  1.7568
 9800TIP3   OH250814   5.597   6.039   0.922 -0.4159 -0.7372  0.3282
 9800TIP3    H150815   5.680   6.079   0.948  0.5131 -0.7584 -2.2942
 9800TIP3    H250816   5.539   6.052   0.997  0.8660  2.4379  0.9239
 9801TIP3   OH250817   2.197   4.653  13.993  0.0669 -0.1777 -0.2749
 9801TIP3    H150818   2.214   4.633  13.901  1.0855  0.5176 -0.2627
 9801TIP3    H250819   2.148   4.735  13.992  3.0692  1.7927 -0.1973
 9802TIP3   OH250820   5.723   2.470   1.618 -0.1204  0.4086  0.0668
 9802TIP3    H150821   5.739   2.397   1.678  0.8003  2.8629  3.0633
 9802TIP3    H250822   5.649   2.441   1.564  1.4481 -3.4574 -0.3455
 9803TIP3   OH250823   5.408   4.180   4.192 -0.1755  0.1190 -0.3066
 9803TIP3    H150824   5.393   4.242   4.121 -0.0831 -0.3175 -0.7165
 9803TIP3    H250825   5.321   4.166   4.230 -0.4732 -0.7292 -1.2604
 9804TIP3   OH250826   3.580   6.388   1.337 -0.0813 -0.1262  0.0022
 9804TIP3    H150827   3.586   6.349   1.424 -0.5365  2.2743  1.1860
 9804TIP3    H250828   3.670   6.393   1.306  0.0511 -1.2985  0.1646
 9805TIP3   OH250829   0.002   5.799   4.258 -0.1313 -0.2634 -0.1226
 9805TIP3    H150830   0.061   5.727   4.283 -0.2187 -0.0137  0.8217
 9805TIP3    H250831   0.001   5.856   4.334  1.2581  1.6383 -1.4370
 9806TIP3   OH250832   0.131   1.064   3.839  0.7285  0.5785 -0.2305
 9806TIP3    H150833   0.077   1.138   3.868  0.2657  0.2554 -0.2613
 9806TIP3    H250834   0.145   1.080   3.746 -0.1469  0.1571 -0.4469
 9807TIP3   OH250835   1.331   0.129   5.388  0.2212 -0.6531 -0.2567
 9807TIP3    H150836   1.270   0.153   5.458  2.1995 -1.0312  1.6916
 9807TIP3    H250837   1.291   0.051   5.348 -1.4094  0.1222 -0.2160
 9808TIP3   OH250838   5.820   4.261   1.893 -0.2410  0.5501 -0.2958
 9808TIP3    H150839   5.811   4.298   1.805  1.3755  2.5460  0.3134
 9808TIP3    H250840   5.750   4.302   1.944 -0.7535 -0.0873 -0.4779
 9809TIP3   OH250841   2.548   4.163  15.229  0.0661  0.5191 -0.0556
 9809TIP3    H150842   2.552   4.141  15.322  2.0744  0.6499 -0.0643
 9809TIP3    H250843   2.636   4.195  15.208  0.3525 -1.5386 -2.4853
 9810TIP3   OH250844   0.218   2.811   3.538 -0.4127 -0.2715  0.0940
 9810TIP3    H150845   0.260   2.756   3.472  1.8380  0.2983  0.9804
 9810TIP3    H250846   0.131   2.772   3.549 -0.8790 -0.4106 -3.1183
 9811TIP3   OH250847   2.253   4.231  15.883 -0.2985  0.3004 -0.2426
 9811TIP3    H150848   2.327   4.278  15.845  0.2232 -0.6892 -0.4939
 9811TIP3    H250849   2.189   4.226  15.812 -0.3087  0.5424 -0.2488
 9812TIP3   OH250850   2.621   4.250   1.206 -0.7690  0.3030  0.3131
 9812TIP3    H150851   2.654   4.162   1.189  1.6837  0.7839  2.0325
 9812TIP3    H250852   2.669   4.279   1.284 -0.1817  3.7821 -1.1508
 9813TIP3   OH250853   4.415   2.212  13.408  0.2185  0.5111  0.5125
 9813TIP3    H150854   4.462   2.291  13.434 -0.2479  0.9619  0.0246
 9813TIP3    H250855   4.421   2.154  13.484 -0.8090  1.6563  1.5260
 9814TIP3   OH250856   2.581   4.450  16.954 -0.1609 -0.3458 -0.0598
 9814TIP3    H150857   2.540   4.434  17.039 -2.9687 -0.1798 -1.2577
 9814TIP3    H250858   2.600   4.543  16.954  0.2504 -0.4221  0.5233
 9815TIP3   OH250859   2.580   3.790  17.067  0.4076  0.5032 -0.2303
 9815TIP3    H150860   2.651   3.814  17.127  0.5547 -0.6703  0.0873
 9815TIP3    H250861   2.623   3.738  16.999  0.4762  2.9086 -2.1479
 9816TIP3   OH250862   3.755   3.069  13.620 -0.0866 -0.6154 -0.5972
 9816TIP3    H150863   3.675   3.077  13.671 -0.1022  1.4887 -0.8364
 9816TIP3    H250864   3.781   3.160  13.603  2.4862 -1.2347 -0.3119
 9817TIP3   OH250865   2.813   2.233  16.530 -0.6408  0.3306  0.3300
 9817TIP3    H150866   2.900   2.217  16.494 -0.1268  0.7625  1.3405
 9817TIP3    H250867   2.753   2.199  16.464  0.2987 -0.3272 -0.2070
 9818TIP3   OH250868   4.118   0.296   5.807  0.0168 -0.2329 -0.5314
 9818TIP3    H150869   4.168   0.284   5.726  2.6861 -2.5421  1.2707
 9818TIP3    H250870   4.069   0.214   5.817  1.5804 -0.9976  1.3009
 9819TIP3   OH250871   6.788   6.079   5.371 -0.5462  0.4154 -0.1631
 9819TIP3    H150872   6.829   5.996   5.345 -1.2116 -1.0408  2.9211
 9819TIP3    H250873   6.789   6.132   5.291  2.0499 -1.6457 -1.7045
 9820TIP3   OH250874   5.899   3.728  14.214  0.5914  0.5014  0.6256
 9820TIP3    H150875   5.848   3.805  14.187 -1.5314 -0.8691  0.5740
 9820TIP3    H250876   5.942   3.756  14.295 -0.8998  1.4803  1.1298
 9821TIP3   OH250877   0.112   2.947  14.680  0.0803 -0.2495  0.3855
 9821TIP3    H150878   0.124   3.022  14.622 -3.4072  1.5498  1.6770
 9821TIP3    H250879   0.146   2.976  14.764 -0.8476 -0.2337  0.7764
 9822TIP3   OH250880   3.381   2.937   0.362  0.2176 -0.2402 -0.1456
 9822TIP3    H150881   3.475   2.952   0.378  0.2054  1.1855 -1.1695
 9822TIP3    H250882   3.340   2.951   0.447  0.7641  0.9675 -0.0539
 9823TIP3   OH250883   2.990   0.772  12.496  0.7967  0.0152 -0.0570
 9823TIP3    H150884   3.042   0.694  12.511  1.6949  0.9786  2.2168
 9823TIP3    H250885   2.915   0.763  12.555  0.7351  0.7228 -0.0171
 9824TIP3   OH250886   1.868   0.622  11.939  0.2139 -0.0743 -0.9630
 9824TIP3    H150887   1.828   0.692  11.887  0.8667 -0.6207 -2.2495
 9824TIP3    H250888   1.876   0.658  12.027 -2.3966  0.3359 -0.8038
 9825TIP3   OH250889   5.711   4.871   4.392 -0.3418  0.0996  0.7283
 9825TIP3    H150890   5.731   4.788   4.349  1.8604  0.6728  0.4870
 9825TIP3    H250891   5.678   4.927   4.322  1.5740  0.4789  0.0472
 9826TIP3   OH250892   6.083   4.938  14.745  0.0048  0.0548 -0.2341
 9826TIP3    H150893   6.152   4.988  14.702  0.7821 -1.9307 -1.4306
 9826TIP3    H250894   6.119   4.850  14.754 -2.4285 -1.1174 -1.1054
 9827TIP3   OH250895   1.915   1.323  11.894 -0.1131 -0.3462  0.5857
 9827TIP3    H150896   1.966   1.307  11.815 -1.2587 -0.9843 -0.0453
 9827TIP3    H250897   1.965   1.390  11.941  0.5354  0.1165 -0.7091
 9828TIP3   OH250898   4.330   3.674   6.054  0.2041 -0.5999 -0.7425
 9828TIP3    H150899   4.288   3.685   6.140  0.3248  1.7909 -0.9303
 9828TIP3    H250900   4.387   3.597   6.065 -0.7111 -1.1012  0.9182
 9829TIP3   OH250901   3.321   4.073   1.304  0.0979  0.6445 -0.0682
 9829TIP3    H150902   3.348   3.982   1.319 -0.5913  0.6736  1.5843
 9829TIP3    H250903   3.396   4.125   1.331 -0.0936  0.6029  0.5605
 9830TIP3   OH250904   4.580   1.595  13.868 -0.2257  0.0675 -0.5980
 9830TIP3    H150905   4.539   1.531  13.926  0.8762 -0.9672 -0.9118
 9830TIP3    H250906   4.617   1.661  13.926 -0.9728  0.1794 -0.2431
 9831TIP3   OH250907   1.606   5.866  12.031 -0.1460 -0.2845  0.1607
 9831TIP3    H150908   1.662   5.835  11.960 -2.1028  0.3560 -1.7627
 9831TIP3    H250909   1.664   5.918  12.086  1.7758 -2.0554 -0.0377
 9832TIP3   OH250910   3.080   1.772   0.900  0.0480 -0.2280  0.3417
 9832TIP3    H150911   3.018   1.782   0.973  0.6916 -1.1256  1.0453
 9832TIP3    H250912   3.135   1.850   0.904 -1.2508  0.7628 -0.5255
 9833TIP3   OH250913   1.822   3.652   2.385 -0.0178  0.1538 -0.1375
 9833TIP3    H150914   1.754   3.603   2.339 -0.9121  0.6782  0.5959
 9833TIP3    H250915   1.799   3.744   2.372  1.7226  0.4341 -1.6214
 9834TIP3   OH250916   2.160   5.436  15.693  0.0992 -0.1174 -0.0257
 9834TIP3    H150917   2.212   5.466  15.767 -0.7079 -1.5677  1.1957
 9834TIP3    H250918   2.222   5.433  15.620  1.0337  0.8757  0.6976
 9835TIP3   OH250919   4.133   2.403  15.573  0.4483 -0.1524 -0.3318
 9835TIP3    H150920   4.076   2.439  15.641 -2.1391 -0.4557 -2.1566
 9835TIP3    H250921   4.165   2.320  15.610 -1.8333 -0.8983  0.1646
 9836TIP3   OH250922   1.134   0.949  16.693 -0.1593 -0.2269 -0.6226
 9836TIP3    H150923   1.105   0.986  16.776  0.3114 -1.5337  0.1344
 9836TIP3    H250924   1.060   0.897  16.662 -0.2592  0.0942 -0.9418
 9837TIP3   OH250925   6.293   0.382   4.007  0.1842  0.1969 -0.1782
 9837TIP3    H150926   6.364   0.359   3.947  0.9981  0.3165  0.7042
 9837TIP3    H250927   6.335   0.383   4.093 -0.9435  0.0672  0.3895
 9838TIP3   OH250928   5.577   4.750   0.525  0.6961 -0.3588  0.3071
 9838TIP3    H150929   5.505   4.790   0.572  1.0381 -0.0551  0.5822
 9838TIP3    H250930   5.543   4.734   0.437  0.5301  0.4821  0.2089
 9839TIP3   OH250931   4.432   1.959   1.141  0.5849 -0.7033 -0.1006
 9839TIP3    H150932   4.512   1.924   1.101  0.5771  1.5847 -2.4270
 9839TIP3    H250933   4.369   1.962   1.068 -1.6221 -2.2144  1.6101
 9840TIP3   OH250934   5.116   2.327  13.723 -0.0752 -0.2233 -0.1034
 9840TIP3    H150935   5.029   2.365  13.728  0.3191  0.7376 -0.2758
 9840TIP3    H250936   5.150   2.332  13.812  0.3890  0.8559 -0.3306
 9841TIP3   OH250937   5.507   0.054  16.296  0.2205 -0.0620 -0.5220
 9841TIP3    H150938   5.417   0.084  16.289  0.6166  1.1141 -0.7681
 9841TIP3    H250939   5.538   0.048  16.206  0.9306  1.3070 -0.3940
 9842TIP3   OH250940   0.801   4.212   2.465  0.8912 -0.2883 -0.2239
 9842TIP3    H150941   0.854   4.144   2.422 -1.8168 -1.4962 -1.9780
 9842TIP3    H250942   0.777   4.174   2.549 -1.1519 -1.9944 -1.4548
 9843TIP3   OH250943   4.194   6.288  12.571  0.1976  0.0417 -0.2342
 9843TIP3    H150944   4.167   6.200  12.546  1.5938 -0.1269 -1.2689
 9843TIP3    H250945   4.196   6.286  12.667 -1.6951 -0.4216 -0.1688
 9844TIP3   OH250946   1.344   1.473   3.652  0.3413  0.0102  0.5459
 9844TIP3    H150947   1.344   1.568   3.667  0.4986  0.0767  0.1165
 9844TIP3    H250948   1.262   1.444   3.693 -1.7771  0.8812 -2.6813
 9845TIP3   OH250949   0.543   2.518  13.387 -0.2639 -0.6695 -0.4646
 9845TIP3    H150950   0.546   2.610  13.360  1.2753 -0.1291  1.3111
 9845TIP3    H250951   0.614   2.476  13.338 -0.6415 -0.8054 -0.8986
 9846TIP3   OH250952   1.419   0.542   2.593 -0.0008  0.2682 -0.0804
 9846TIP3    H150953   1.385   0.542   2.504  0.9716  0.6894 -0.4631
 9846TIP3    H250954   1.357   0.595   2.643 -1.9504 -2.0118  0.0810
 9847TIP3   OH250955   4.451   0.816   0.946  0.3988 -0.5226 -0.0595
 9847TIP3    H150956   4.375   0.758   0.940  1.5991 -2.0182 -2.1973
 9847TIP3    H250957   4.497   0.788   1.025 -0.9799  0.1150  1.0218
 9848TIP3   OH250958   6.258   5.210   2.926  0.2916  0.5304  0.1410
 9848TIP3    H150959   6.266   5.287   2.869  1.1376 -0.1301 -0.6635
 9848TIP3    H250960   6.339   5.210   2.977 -0.5496  1.2352  1.5393
 9849TIP3   OH250961   6.505   4.540  16.074  0.3369  0.2629 -0.1604
 9849TIP3    H150962   6.427   4.507  16.119  0.9894 -0.0457  0.7841
 9849TIP3    H250963   6.496   4.635  16.076 -1.1876  0.2395 -2.2277
 9850TIP3   OH250964   6.198   0.730   1.813  0.5111  0.1425  0.8050
 9850TIP3    H150965   6.154   0.774   1.740 -0.1292 -0.7289  0.6462
 9850TIP3    H250966   6.266   0.677   1.772 -0.9164 -1.6623  0.6231
 9851TIP3   OH250967   4.747   4.402   3.093 -0.4003  0.0256  0.4809
 9851TIP3    H150968   4.684   4.331   3.100 -1.0715  0.7311  2.3569
 9851TIP3    H250969   4.830   4.364   3.121 -0.7949  0.0004  1.6636
 9852TIP3   OH250970   1.089   2.258   3.589  0.3437  0.4809 -0.4465
 9852TIP3    H150971   1.050   2.177   3.622  0.2618 -0.8737 -3.5313
 9852TIP3    H250972   1.141   2.291   3.662  0.5597 -2.4905  0.8954
 9853TIP3   OH250973   5.727   0.295   3.138  0.4958  0.8598  0.2386
 9853TIP3    H150974   5.742   0.324   3.048  0.7689  0.3394  0.1095
 9853TIP3    H250975   5.699   0.204   3.129  1.0465  0.6416  0.7097
 9854TIP3   OH250976   5.326   6.384  14.933  0.0816  0.1982  0.4947
 9854TIP3    H150977   5.300   6.332  14.857 -0.4563  0.8912  0.2003
 9854TIP3    H250978   5.247   6.391  14.986  0.0184  1.1360  0.2862
 9855TIP3   OH250979   3.511   2.300   1.370  0.7610 -0.2766  0.2301
 9855TIP3    H150980   3.588   2.243   1.377  0.0101 -1.1281  2.7009
 9855TIP3    H250981   3.539   2.382   1.413  1.1431  0.4756 -1.3878
 9856TIP3   OH250982   5.572   6.622   0.130 -0.0016  0.2209  0.4706
 9856TIP3    H150983   5.485   6.611   0.167  0.2895 -1.3966  0.7535
 9856TIP3    H250984   5.561   6.605   0.036 -0.0814  0.5179  0.4271
 9857TIP3   OH250985   1.472   4.539   2.476 -0.2276  0.2570 -0.1163
 9857TIP3    H150986   1.481   4.541   2.381 -2.0647  0.2932 -0.3121
 9857TIP3    H250987   1.536   4.603   2.507 -0.0637  0.7273 -1.3638
 9858TIP3   OH250988   5.449   3.162   4.531 -0.6829 -0.0080 -0.6015
 9858TIP3    H150989   5.443   3.081   4.480 -2.7132 -0.8599  0.8103
 9858TIP3    H250990   5.382   3.151   4.599 -0.4583  2.5474  0.1132
 9859TIP3   OH250991   0.854   3.683  11.222 -0.3893 -0.2993  0.3815
 9859TIP3    H150992   0.898   3.688  11.138 -1.7892  2.7229 -0.3062
 9859TIP3    H250993   0.915   3.723  11.284 -1.1718  1.8973 -0.1723
 9860TIP3   OH250994   0.897   6.537  12.220  0.1510  0.1350 -0.1320
 9860TIP3    H150995   0.972   6.591  12.195 -0.1438  1.1812  1.1535
 9860TIP3    H250996   0.821   6.589  12.195 -0.1439  0.7687  1.9366
 9861TIP3   OH250997   1.872   6.049  13.325 -0.4383  0.2331  0.0189
 9861TIP3    H150998   1.864   6.136  13.363 -1.0476 -0.3120  1.1669
 9861TIP3    H250999   1.782   6.019  13.313 -0.2447 -0.8617  1.1233
 9862TIP3   OH251000   5.930   3.767  15.523 -0.5302  0.6023 -0.3125
 9862TIP3    H151001   5.946   3.856  15.556 -0.9644  0.7039 -0.3712
 9862TIP3    H251002   5.992   3.757  15.451 -0.4809  0.8595 -0.3078
 9863TIP3   OH251003   2.647   1.878   3.819  0.3980  0.0107  0.5155
 9863TIP3    H151004   2.656   1.962   3.865  2.0391  0.2877 -0.2171
 9863TIP3    H251005   2.625   1.815   3.887  0.4836  0.8091  1.3003
 9864TIP3   OH251006   1.061   3.139   0.186 -0.0466 -0.1484 -0.2882
 9864TIP3    H151007   1.076   3.222   0.139  0.3632 -0.1521 -0.1660
 9864TIP3    H251008   1.031   3.166   0.273  0.3417 -0.1233 -0.1612
 9865TIP3   OH251009   2.169   2.366  12.438 -0.3338 -0.2794  0.1911
 9865TIP3    H151010   2.204   2.365  12.349 -0.9795  0.2183 -0.0755
 9865TIP3    H251011   2.089   2.419  12.432 -0.7786 -0.8486  0.9181
 9866TIP3   OH251012   0.854   5.309  11.937  0.6107 -0.2345  0.1248
 9866TIP3    H151013   0.894   5.365  11.870  1.4225 -1.0185 -0.0608
 9866TIP3    H251014   0.906   5.229  11.936 -1.4205 -1.6428 -0.6704
 9867TIP3   OH251015   2.309   2.714  16.717  0.2219 -0.1132  0.6935
 9867TIP3    H151016   2.323   2.807  16.695 -0.7038 -0.0149  0.5134
 9867TIP3    H251017   2.386   2.692  16.770  0.9246  0.4958 -0.0280
 9868TIP3   OH251018   4.612   6.737  12.605 -0.4379 -0.0638 -0.5294
 9868TIP3    H151019   4.558   6.658  12.611  0.3642 -0.6011 -0.2117
 9868TIP3    H251020   4.593   6.785  12.685  2.8400 -2.4278  1.9144
 9869TIP3   OH251021   2.390   2.175  12.823 -0.1833 -0.0796  0.1654
 9869TIP3    H151022   2.484   2.162  12.839 -0.3474 -1.2495  0.3081
 9869TIP3    H251023   2.371   2.261  12.859  0.7021 -0.1116  0.7414
 9870TIP3   OH251024   0.238   4.213   4.438 -0.1706  0.3261 -0.2896
 9870TIP3    H151025   0.192   4.184   4.517 -0.2845 -1.6021 -1.0038
 9870TIP3    H251026   0.182   4.281   4.402 -1.8796 -1.0911 -0.4534
 9871TIP3   OH251027   0.801   3.220   5.314  0.3189 -0.5605  0.5603
 9871TIP3    H151028   0.890   3.221   5.281  0.1605  1.3128  0.0743
 9871TIP3    H251029   0.761   3.300   5.279 -0.8535 -0.1701  2.5893
 9872TIP3   OH251030   1.315   3.747  13.813 -0.7260  0.3771 -0.4166
 9872TIP3    H151031   1.397   3.790  13.836 -0.0062 -1.3069  0.3193
 9872TIP3    H251032   1.315   3.746  13.717 -0.0632  0.6805 -0.4266
 9873TIP3   OH251033   2.773   3.684   1.441 -0.0074  0.3121 -0.0848
 9873TIP3    H151034   2.857   3.644   1.465 -0.4911 -0.8255 -0.2374
 9873TIP3    H251035   2.770   3.766   1.492  1.4833  0.7124 -0.5902
 9874TIP3   OH251036   3.340   6.114   3.629  0.1034  0.2625  0.3331
 9874TIP3    H151037   3.385   6.199   3.633  0.5416 -0.0108  1.4146
 9874TIP3    H251038   3.328   6.098   3.535  0.4571  1.2856  0.0997
 9875TIP3   OH251039   1.272   5.248  16.567  0.0426 -0.3050  0.1570
 9875TIP3    H151040   1.314   5.263  16.482  1.8419  1.0566  1.2071
 9875TIP3    H251041   1.187   5.291  16.560  0.5366  0.5839 -0.6708
 9876TIP3   OH251042   0.907   4.848   5.315 -0.1319 -0.3918 -0.5091
 9876TIP3    H151043   0.853   4.924   5.293  0.1048 -0.3324 -0.8991
 9876TIP3    H251044   0.904   4.844   5.411  0.5617  0.6381 -0.4213
 9877TIP3   OH251045   3.011   2.626  12.501 -0.6083  0.4835 -0.3924
 9877TIP3    H151046   3.030   2.583  12.417 -1.0558  0.4707 -0.4901
 9877TIP3    H251047   2.918   2.608  12.516  0.0048 -1.6766  1.3462
 9878TIP3   OH251048   2.634   3.021   4.044  0.2940 -0.3536  0.4032
 9878TIP3    H151049   2.711   3.050   3.996 -0.0270  1.3271  0.8146
 9878TIP3    H251050   2.588   3.103   4.067 -1.0727 -1.2552  1.0285
 9879TIP3   OH251051   5.284   1.318  12.706  0.5625  0.2103 -0.0086
 9879TIP3    H151052   5.235   1.257  12.761  2.5963 -1.4833  0.0279
 9879TIP3    H251053   5.352   1.265  12.665  1.9169  2.3103 -0.6512
 9880TIP3   OH251054   5.882   3.553  13.142 -0.2694 -0.2639 -0.2303
 9880TIP3    H151055   5.896   3.644  13.119 -0.8747 -0.3564 -1.0026
 9880TIP3    H251056   5.968   3.512  13.132  0.1154  0.3139  0.6138
 9881TIP3   OH251057   1.854   1.228  12.204  0.2327 -0.1123  0.1281
 9881TIP3    H151058   1.870   1.269  12.289  0.5135  0.2386 -0.0948
 9881TIP3    H251059   1.904   1.280  12.142 -0.8563  0.3138 -0.4154
 9882TIP3   OH251060   6.430   5.095   0.283  0.0467 -0.1149 -0.0793
 9882TIP3    H151061   6.480   5.095   0.201  0.5701 -0.3194  0.2297
 9882TIP3    H251062   6.475   5.031   0.338 -0.8938 -0.7152  0.0140
 9883TIP3   OH251063   3.991   0.195   3.747  0.1852 -0.0022  0.4537
 9883TIP3    H151064   3.973   0.143   3.826 -0.1404 -0.8133 -0.1369
 9883TIP3    H251065   4.075   0.161   3.715  0.6436  0.7825  0.8122
 9884TIP3   OH251066   6.280   5.599  12.536  0.4837 -0.0575  0.3488
 9884TIP3    H151067   6.203   5.567  12.584 -1.1732  0.7244 -1.6010
 9884TIP3    H251068   6.302   5.682  12.578 -1.1752  0.8063 -0.4022
 9885TIP3   OH251069   1.561   5.811  14.120 -0.3400  0.6901  0.3471
 9885TIP3    H151070   1.650   5.844  14.116 -0.4643  1.1337  0.9827
 9885TIP3    H251071   1.507   5.888  14.139 -0.7231  0.2537  1.0930
 9886TIP3   OH251072   6.244   2.182   4.210 -0.0221 -0.0476 -0.1118
 9886TIP3    H151073   6.218   2.258   4.157 -0.2858  0.1812  0.3363
 9886TIP3    H251074   6.311   2.216   4.269 -0.1076 -0.1778  0.0595
 9887TIP3   OH251075   6.594   0.356  16.588 -0.4131  0.3183 -0.5011
 9887TIP3    H151076   6.564   0.277  16.542 -1.5116  0.4372 -0.0243
 9887TIP3    H251077   6.526   0.372  16.654  0.8868  0.4271  0.8605
 9888TIP3   OH251078   4.186   0.416  15.841  0.0307 -0.2589 -0.2202
 9888TIP3    H151079   4.094   0.395  15.852 -0.3692  1.8448  0.8463
 9888TIP3    H251080   4.232   0.361  15.905 -0.6064 -0.3443  0.1633
 9889TIP3   OH251081   5.165   5.751  14.152 -0.3160 -0.4130  0.3661
 9889TIP3    H151082   5.189   5.677  14.207  1.1523  0.6718  1.2649
 9889TIP3    H251083   5.159   5.825  14.213  0.1379  0.5827 -0.7452
 9890TIP3   OH251084   5.580   4.453  15.505  0.3352  0.1234  0.2265
 9890TIP3    H151085   5.551   4.407  15.426  0.2883  1.2260 -0.4209
 9890TIP3    H251086   5.673   4.472  15.489  0.6609 -0.7378  0.9901
 9891TIP3   OH251087   1.414   0.370  15.855  0.4666 -0.1044  0.3232
 9891TIP3    H151088   1.486   0.392  15.796  0.6465 -0.6893  0.3161
 9891TIP3    H251089   1.429   0.423  15.933  0.7257  0.0151  0.1926
 9892TIP3   OH251090   2.103   2.513   6.293  0.3146  0.1476  0.6977
 9892TIP3    H151091   2.048   2.439   6.319  0.4403  0.2888  1.4003
 9892TIP3    H251092   2.188   2.495   6.332  0.8289 -0.1608 -0.5505
 9893TIP3   OH251093   2.703   1.470   0.006 -0.1742 -0.1362 -0.1042
 9893TIP3    H151094   2.713   1.386   0.050  1.2170  0.6393  1.1406
 9893TIP3    H251095   2.774   1.473  -0.057  0.2262  0.4004  0.3639
 9894TIP3   OH251096   0.921   1.578   1.921  0.1909 -0.1499  0.4317
 9894TIP3    H151097   0.865   1.606   1.848 -0.0123  0.2314  0.7280
 9894TIP3    H251098   1.008   1.569   1.882  0.0216 -0.2548  0.0740
 9895TIP3   OH251099   5.107   1.370  13.960  0.0954  0.0406 -0.1914
 9895TIP3    H151100   5.163   1.334  14.029 -0.3695 -1.1350 -0.3988
 9895TIP3    H251101   5.033   1.410  14.007  0.7820  1.0490  0.0551
 9896TIP3   OH251102   3.203   0.623  13.424  0.2045 -0.5144 -0.3115
 9896TIP3    H151103   3.239   0.618  13.512 -2.1799 -1.0426  0.7047
 9896TIP3    H251104   3.149   0.702  13.425  1.2652  0.2984 -1.8057
 9897TIP3   OH251105   6.197   5.468   0.385  0.3817  0.2770 -0.2247
 9897TIP3    H151106   6.151   5.451   0.467 -1.5326  2.1672 -0.7957
 9897TIP3    H251107   6.238   5.554   0.398 -0.1368  0.7041 -1.2777
 9898TIP3   OH251108   2.653   1.354   4.393  0.8230  0.1292 -0.0866
 9898TIP3    H151109   2.695   1.278   4.352  1.2329  0.0067  0.5499
 9898TIP3    H251110   2.702   1.367   4.474  1.3299  1.6010 -0.5917
 9899TIP3   OH251111   3.255   0.642  12.740 -0.4002 -0.4192 -0.5142
 9899TIP3    H151112   3.213   0.590  12.672 -1.9370 -0.1218  0.1556
 9899TIP3    H251113   3.268   0.580  12.813  1.8328 -0.9025 -1.2368
 9900TIP3   OH251114   1.878   0.663   0.682  0.2541  0.0294  0.1820
 9900TIP3    H151115   1.935   0.632   0.751  2.5397  0.6721 -1.3101
 9900TIP3    H251116   1.834   0.740   0.719  0.7328 -0.1693  1.1866
 9901TIP3   OH251117   5.944   2.755  11.560  0.2702  0.0172  0.0030
 9901TIP3    H151118   5.906   2.763  11.472 -0.0487 -0.5479  0.0849
 9901TIP3    H251119   5.969   2.663  11.567  1.8282  0.4099 -0.1030
 9902TIP3   OH251120   0.445   0.575  12.743 -0.6983  0.1131 -0.2659
 9902TIP3    H151121   0.396   0.653  12.768 -0.5865 -0.3121  1.3610
 9902TIP3    H251122   0.473   0.536  12.826  0.3487 -0.9579 -1.0839
 9903TIP3   OH251123   5.019   1.156  12.836 -0.1561  0.5043 -0.0079
 9903TIP3    H151124   4.937   1.186  12.877 -0.7517  0.3160 -1.0384
 9903TIP3    H251125   5.046   1.082  12.890 -2.4170 -1.5260 -1.4815
 9904TIP3   OH251126   3.750   1.843   5.889  0.2602 -0.3936 -0.5376
 9904TIP3    H151127   3.663   1.877   5.910  0.4301  0.5426 -1.2721
 9904TIP3    H251128   3.783   1.808   5.971  0.0799  1.2795  0.2834
 9905TIP3   OH251129   4.865   1.176   3.447 -0.3647  0.3389  0.1980
 9905TIP3    H151130   4.960   1.174   3.436 -0.3116  1.6609  0.2751
 9905TIP3    H251131   4.834   1.101   3.396  0.6618  0.3024 -0.4102
 9906TIP3   OH251132   5.128   6.100   0.077  0.8166 -0.0899 -0.1282
 9906TIP3    H151133   5.202   6.138   0.124  0.9332 -1.1949  0.6157
 9906TIP3    H251134   5.125   6.149  -0.005  0.6867  1.8185  0.9418
 9907TIP3   OH251135   5.599   4.146  16.771  0.9060 -0.2994  0.1174
 9907TIP3    H151136   5.591   4.053  16.755 -1.0028  0.0783 -1.4245
 9907TIP3    H251137   5.678   4.154  16.826  2.0550 -2.6227 -1.0648
 9908TIP3   OH251138   3.964   2.271  11.955  0.4143 -0.3295 -0.2074
 9908TIP3    H151139   3.927   2.235  12.036  0.6088 -1.3066 -0.5413
 9908TIP3    H251140   3.889   2.283  11.898  0.4143 -0.7579 -0.2995
 9909TIP3   OH251141   0.058   0.149  13.014 -0.0359  0.3159 -0.1814
 9909TIP3    H151142   0.146   0.185  13.029  0.0246 -0.2459  0.9094
 9909TIP3    H251143   0.064   0.058  13.043 -1.1771  0.4756  0.6308
 9910TIP3   OH251144   4.542   3.508   6.698 -0.1385  0.0325 -0.0586
 9910TIP3    H151145   4.544   3.590   6.747  0.0962  0.4690 -0.7768
 9910TIP3    H251146   4.602   3.450   6.745 -0.3326  0.2552  0.4728
 9911TIP3   OH251147   5.771   3.334  11.636 -0.0006  0.3869  0.0516
 9911TIP3    H151148   5.806   3.296  11.717  2.2281  0.3359 -0.8617
 9911TIP3    H251149   5.840   3.394  11.606  0.1062 -1.0238 -2.7926
 9912TIP3   OH251150   1.979   3.608   2.091 -0.1759  0.0364 -0.1631
 9912TIP3    H151151   1.889   3.599   2.123 -0.5058 -0.2830 -1.1315
 9912TIP3    H251152   1.989   3.536   2.028  1.2783 -0.8813  1.0657
 9913TIP3   OH251153   1.362   6.491  14.273  0.3667  0.3813  0.2932
 9913TIP3    H151154   1.401   6.535  14.349 -2.3366 -0.2157  2.1563
 9913TIP3    H251155   1.336   6.563  14.216  1.1468  0.9202  0.5922
 9914TIP3   OH251156   5.526   1.750  15.489  0.4500 -0.0048  0.1467
 9914TIP3    H151157   5.543   1.815  15.420  1.6454  0.7877  1.1498
 9914TIP3    H251158   5.580   1.675  15.465 -2.4329 -1.5674 -2.1245
 9915TIP3   OH251159   4.680   3.980   4.294 -0.5087 -0.8126 -0.1219
 9915TIP3    H151160   4.643   4.063   4.265 -0.5946 -0.7941  0.0389
 9915TIP3    H251161   4.775   3.993   4.291 -0.5271 -0.5113  0.4683
 9916TIP3   OH251162   4.747   4.918   1.798  0.1191  0.1691 -0.5976
 9916TIP3    H151163   4.677   4.980   1.779  0.0374  0.1791 -0.2717
 9916TIP3    H251164   4.772   4.882   1.712 -0.6774 -0.2585 -0.6593
 9917TIP3   OH251165   5.913   3.012   4.810 -0.5368  0.4594 -0.1645
 9917TIP3    H151166   5.887   2.963   4.732  1.4768 -0.1243 -0.5348
 9917TIP3    H251167   5.915   2.946   4.880 -1.1532  0.7355  0.1211
 9918TIP3   OH251168   3.425   0.446   5.291 -0.0714  0.0936 -0.3090
 9918TIP3    H151169   3.486   0.513   5.321  2.4935 -1.6317 -1.2896
 9918TIP3    H251170   3.348   0.494   5.263  0.0388  2.2748  2.6648
 9919TIP3   OH251171   6.557   6.714   1.677 -0.2572  0.1072  0.0009
 9919TIP3    H151172   6.493   6.765   1.726 -1.5330 -1.3907 -0.0368
 9919TIP3    H251173   6.628   6.776   1.658 -1.7390  1.8557 -0.0812
 9920TIP3   OH251174   5.236   4.862   2.359 -0.8802 -0.0216  0.2424
 9920TIP3    H151175   5.188   4.798   2.411 -0.7136 -0.2266  0.1477
 9920TIP3    H251176   5.216   4.946   2.399 -1.8758 -0.0262 -0.2111
 9921TIP3   OH251177   2.997   5.395   4.249 -0.4821 -0.3899  0.3099
 9921TIP3    H151178   3.091   5.391   4.233 -0.9260 -0.5589 -2.9231
 9921TIP3    H251179   2.977   5.314   4.294  0.6323 -1.4284 -0.9826
 9922TIP3   OH251180   4.265   2.748   3.117 -0.1405  0.7128 -0.6346
 9922TIP3    H151181   4.258   2.677   3.180  0.6382  1.5611  0.4391
 9922TIP3    H251182   4.215   2.717   3.041 -0.9840 -0.3942  0.3231
 9923TIP3   OH251183   5.044   3.749   0.297 -0.1617  0.4203 -0.2117
 9923TIP3    H151184   5.001   3.831   0.323  0.8932  1.0167 -0.2764
 9923TIP3    H251185   5.124   3.746   0.350 -0.8164 -1.2492  0.7463
 9924TIP3   OH251186   5.222   0.541   6.600 -0.4626  0.5089 -0.1850
 9924TIP3    H151187   5.236   0.593   6.521 -1.2014  2.0187  0.6203
 9924TIP3    H251188   5.285   0.576   6.663  0.4820 -1.0375 -0.2224
 9925TIP3   OH251189   3.066   1.601   1.162 -0.5205  0.8794  0.0143
 9925TIP3    H151190   2.990   1.651   1.134 -0.8967  0.7324  0.7506
 9925TIP3    H251191   3.121   1.664   1.209 -0.2193  0.9698 -0.4570
 9926TIP3   OH251192   0.193   3.128   0.899 -0.0731 -0.2051  0.3444
 9926TIP3    H151193   0.276   3.110   0.854 -0.2426  0.5266 -0.2892
 9926TIP3    H251194   0.137   3.055   0.876 -0.0601  0.0109 -0.4203
 9927TIP3   OH251195   3.637   2.465   0.964 -0.5237  0.8405 -0.3595
 9927TIP3    H151196   3.645   2.560   0.956 -2.3472  1.0869  0.3352
 9927TIP3    H251197   3.544   2.450   0.980 -0.2609 -1.0715 -0.4171
 9928TIP3   OH251198   3.802   5.727  14.341 -0.4774 -0.2589  0.2264
 9928TIP3    H151199   3.857   5.763  14.271 -1.6095 -0.2144 -0.6715
 9928TIP3    H251200   3.754   5.802  14.376  0.8048 -0.1042  1.7824
 9929TIP3   OH251201   3.009   4.005  11.583  0.0998 -0.0228  0.4304
 9929TIP3    H151202   3.068   3.930  11.581  0.1000 -0.0148 -0.1080
 9929TIP3    H251203   3.065   4.079  11.607  0.0796 -0.2085  1.0609
 9930TIP3   OH251204   1.371   4.511   3.509  0.2934 -0.0554  0.6502
 9930TIP3    H151205   1.304   4.444   3.499  1.6667 -1.3306 -0.5372
 9930TIP3    H251206   1.442   4.466   3.556  0.9656  0.7479  0.4283
 9931TIP3   OH251207   3.764   3.121   4.756  0.1946 -0.3561  0.2067
 9931TIP3    H151208   3.696   3.136   4.691  0.3541 -0.6568 -0.0296
 9931TIP3    H251209   3.833   3.183   4.733 -0.0089 -0.0218  0.4712
 9932TIP3   OH251210   5.697   1.223   4.837  0.0683 -0.0564  0.4390
 9932TIP3    H151211   5.684   1.130   4.858 -1.9102  0.5785  2.4690
 9932TIP3    H251212   5.700   1.266   4.923 -0.5001  1.9121 -0.4730
 9933TIP3   OH251213   4.503   1.582  12.196 -0.6456  0.4745 -0.3646
 9933TIP3    H151214   4.413   1.592  12.165 -0.6053 -0.1616 -0.6899
 9933TIP3    H251215   4.558   1.605  12.121 -0.5483 -0.7834 -0.6900
 9934TIP3   OH251216   3.142   3.716  14.371  0.1457 -0.3817 -0.0648
 9934TIP3    H151217   3.154   3.628  14.408 -1.3435 -0.9685 -0.8727
 9934TIP3    H251218   3.120   3.771  14.446  0.2089 -0.8963  0.3349
 9935TIP3   OH251219   5.242   1.899  11.745  0.0666  0.5466 -0.1040
 9935TIP3    H151220   5.312   1.868  11.802 -0.9098 -0.1241  0.7782
 9935TIP3    H251221   5.164   1.853  11.777 -0.7943  1.3796 -0.9638
 9936TIP3   OH251222   1.887   1.358  11.131  0.2498  0.1382  0.3636
 9936TIP3    H151223   1.849   1.443  11.154 -0.2067  0.3970 -1.2268
 9936TIP3    H251224   1.929   1.374  11.046  0.0435 -1.2603 -0.0133
 9937TIP3   OH251225   2.065   3.142   2.577  0.1528  0.2557 -0.0298
 9937TIP3    H151226   2.034   3.138   2.486 -1.7599  1.0090  0.5394
 9937TIP3    H251227   2.024   3.221   2.612  0.2105 -0.4568  1.7197
 9938TIP3   OH251228   1.425   0.400   3.016 -0.1545 -0.1924 -0.0943
 9938TIP3    H151229   1.492   0.334   3.000 -0.6332 -0.3469 -1.5610
 9938TIP3    H251230   1.343   0.358   2.989 -0.7462  0.2697  0.9363
 9939TIP3   OH251231   3.886   3.869  13.507  0.2051  0.5037  0.6314
 9939TIP3    H151232   3.936   3.791  13.483 -1.2818 -0.3132  0.0952
 9939TIP3    H251233   3.851   3.849  13.593 -0.7490  0.2731  0.2009
 9940TIP3   OH251234   1.241   0.683  16.968  0.3671  0.2551 -0.6565
 9940TIP3    H151235   1.306   0.675  16.898  0.1451 -0.3337 -0.7986
 9940TIP3    H251236   1.220   0.776  16.971  1.6676  0.5615 -0.2007
 9941TIP3   OH251237   4.025   1.377  15.790  0.3073  0.3984 -0.3098
 9941TIP3    H151238   4.100   1.435  15.805 -0.3050  0.8584  1.1952
 9941TIP3    H251239   3.970   1.389  15.868 -1.5009  0.3379 -1.5237
 9942TIP3   OH251240   2.031   6.770  13.808  0.5062  0.4705  0.1728
 9942TIP3    H151241   1.995   6.691  13.767  0.3278  0.5865  0.1028
 9942TIP3    H251242   1.978   6.783  13.886 -1.0309  1.8541 -1.0517
 9943TIP3   OH251243   0.871   3.806   1.395  0.5000 -0.3303  0.4766
 9943TIP3    H151244   0.804   3.752   1.436 -1.0448  1.7268  0.7852
 9943TIP3    H251245   0.834   3.831   1.311  2.9542 -3.1141 -1.6458
 9944TIP3   OH251246   1.549   0.579  11.755 -0.5440  0.0428  0.0096
 9944TIP3    H151247   1.532   0.666  11.790 -0.2353 -0.1869  0.7466
 9944TIP3    H251248   1.618   0.591  11.690 -0.1494  0.2759  0.4699
 9945TIP3   OH251249   2.950   3.637  14.902  0.3488  0.2807  0.4092
 9945TIP3    H151250   2.950   3.566  14.837  0.0537 -0.0126  0.7224
 9945TIP3    H251251   2.919   3.595  14.983  0.3958  0.7168  0.6557
 9946TIP3   OH251252   5.180   5.316  14.090  0.1075 -0.6547  0.5160
 9946TIP3    H151253   5.143   5.334  14.004  1.8638 -0.1454 -0.1847
 9946TIP3    H251254   5.127   5.244  14.124 -1.0132 -0.4529 -0.7150
 9947TIP3   OH251255   2.206   4.267  10.881 -0.3306  0.3774  0.2674
 9947TIP3    H151256   2.199   4.195  10.818  0.1905  0.4407  0.1344
 9947TIP3    H251257   2.289   4.310  10.859 -0.2057  0.4737  0.9203
 9948TIP3   OH251258   4.999   1.242  11.690 -0.3299 -0.1085  0.2438
 9948TIP3    H151259   5.028   1.224  11.600  0.3588 -1.6435  0.7294
 9948TIP3    H251260   5.039   1.172  11.742  0.4009  1.5331  1.9666
 9949TIP3   OH251261   5.904   2.846   3.366  0.5427  0.2065  0.2617
 9949TIP3    H151262   5.903   2.875   3.457  0.9385  1.3019 -0.0671
 9949TIP3    H251263   5.949   2.916   3.319  0.3422 -0.3432 -0.7815
 9950TIP3   OH251264   4.298   4.734   4.872  0.0309 -0.1767  0.0430
 9950TIP3    H151265   4.321   4.761   4.783  2.5220 -0.8670  0.3874
 9950TIP3    H251266   4.300   4.638   4.869 -1.6662 -0.2542  0.4582
 9951TIP3   OH251267   2.946   5.118   1.062  0.5767 -0.6693  0.1772
 9951TIP3    H151268   2.959   5.042   1.005  0.7434  0.2992 -1.0928
 9951TIP3    H251269   2.898   5.181   1.009 -0.7117 -0.3619  1.6414
 9952TIP3   OH251270   0.752   2.682   4.438  0.6647 -0.4899 -0.3816
 9952TIP3    H151271   0.737   2.752   4.501  0.5431 -1.2028  0.3993
 9952TIP3    H251272   0.826   2.713   4.385  0.4660  0.3159 -0.1974
 9953TIP3   OH251273   0.422   3.796   2.011 -0.3952  0.7478 -0.1990
 9953TIP3    H151274   0.383   3.710   1.997  3.2355 -0.9886 -0.9208
 9953TIP3    H251275   0.473   3.786   2.092  1.7610  1.4395 -1.3824
 9954TIP3   OH251276   3.484   4.591  11.972  0.1887  0.2775  0.0025
 9954TIP3    H151277   3.534   4.671  11.958  0.6267  0.0159  0.0566
 9954TIP3    H251278   3.528   4.547  12.045 -0.7440  0.5440  0.7411
 9955TIP3   OH251279   3.842   1.876  15.629 -0.1948 -0.1944 -0.8601
 9955TIP3    H151280   3.870   1.956  15.673 -0.9260 -0.1574 -0.4391
 9955TIP3    H251281   3.921   1.823  15.621  0.1760  0.3235 -0.6029
 9956TIP3   OH251282   6.707   6.563   0.796 -0.0414  0.4241 -0.1623
 9956TIP3    H151283   6.770   6.516   0.741  1.0067 -0.3432  1.6253
 9956TIP3    H251284   6.743   6.558   0.884 -2.3160  0.4813  0.8485
 9957TIP3   OH251285   4.241   2.923   1.364 -0.9760 -0.2821  0.4643
 9957TIP3    H151286   4.243   2.932   1.269  0.0196 -0.5343  0.4482
 9957TIP3    H251287   4.244   2.828   1.379 -0.4436 -0.2275  0.7407
 9958TIP3   OH251288   3.571   4.807   4.439 -0.0213 -1.1454  0.0538
 9958TIP3    H151289   3.639   4.864   4.404 -0.6500 -0.2625  0.2203
 9958TIP3    H251290   3.609   4.769   4.518  0.9554 -2.1775 -0.8901
 9959TIP3   OH251291   0.976   6.773   3.616  0.2811 -0.1097  0.6589
 9959TIP3    H151292   1.048   6.787   3.677 -0.7686 -1.9096  2.4669
 9959TIP3    H251293   0.985   6.681   3.589 -1.0513 -0.2418  0.5931
 9960TIP3   OH251294   6.332   4.269   0.921 -0.3923  0.0153  0.6898
 9960TIP3    H151295   6.316   4.190   0.869 -0.0675  0.2574  0.2091
 9960TIP3    H251296   6.274   4.261   0.996  1.0840 -1.6734  1.7213
 9961TIP3   OH251297   4.731   5.856   2.401 -0.4553 -0.8525  0.8237
 9961TIP3    H151298   4.723   5.903   2.318 -0.8702 -0.7428  0.9205
 9961TIP3    H251299   4.763   5.769   2.377  0.0930 -0.5983  0.6185
 9962TIP3   OH251300   0.989   3.386  14.918  0.1675  0.0718 -0.4605
 9962TIP3    H151301   0.903   3.386  14.875 -0.1283  0.1278  0.1178
 9962TIP3    H251302   0.977   3.443  14.994  0.3452 -0.9592  0.3523
 9963TIP3   OH251303   0.635   0.700  17.190 -0.2109 -0.0899 -1.0169
 9963TIP3    H151304   0.590   0.722  17.108 -0.1446  1.7744 -0.5896
 9963TIP3    H251305   0.711   0.648  17.162 -0.1370  0.5983 -2.1549
 9964TIP3   OH251306   2.445   6.463   0.208 -0.7744  0.6821 -0.2133
 9964TIP3    H151307   2.440   6.529   0.277 -0.1953 -0.1601  0.6705
 9964TIP3    H251308   2.365   6.474   0.157 -0.9233  1.7169  0.2255
 9965TIP3   OH251309   5.242   5.681   3.734  0.3855 -0.5314 -0.1285
 9965TIP3    H151310   5.165   5.735   3.753 -0.3704 -1.5631 -0.2022
 9965TIP3    H251311   5.315   5.732   3.768 -0.4526 -0.1130  1.1249
 9966TIP3   OH251312   0.356   5.976   4.681 -0.4293 -0.3829 -0.4664
 9966TIP3    H151313   0.333   5.889   4.647  0.1878 -0.8244  0.1996
 9966TIP3    H251314   0.389   6.023   4.605 -0.0452 -1.0016 -0.6971
 9967TIP3   OH251315   5.229   2.875   1.811 -0.9024 -0.5823 -0.2956
 9967TIP3    H151316   5.316   2.906   1.783 -1.5836  0.8339 -0.9337
 9967TIP3    H251317   5.200   2.941   1.874 -1.7266 -0.7657 -0.4785
 9968TIP3   OH251318   6.700   1.586   5.437 -0.4797  0.5033 -0.2026
 9968TIP3    H151319   6.670   1.611   5.524 -1.9989 -1.6380 -0.0199
 9968TIP3    H251320   6.624   1.544   5.397  0.9202 -0.8694 -1.5728
 9969TIP3   OH251321   5.907   4.171  15.402 -0.4072  0.0737  0.3581
 9969TIP3    H151322   5.818   4.174  15.439 -1.0248  2.6834 -1.0535
 9969TIP3    H251323   5.893   4.178  15.307  1.3108  0.6277  0.1159
 9970TIP3   OH251324   6.211   3.719   0.759  0.0673  0.4644  0.3671
 9970TIP3    H151325   6.265   3.645   0.789 -1.7223 -0.8102  0.5852
 9970TIP3    H251326   6.175   3.689   0.675 -1.1831  0.8103  0.7596
 9971TIP3   OH251327   1.445   3.692  11.691  0.0527 -0.1008  0.4647
 9971TIP3    H151328   1.540   3.695  11.681  0.2535 -1.8964  1.4127
 9971TIP3    H251329   1.430   3.715  11.782 -0.6188  2.1107 -0.1482
 9972TIP3   OH251330   0.756   2.985  10.809 -0.4894  0.5636 -0.4013
 9972TIP3    H151331   0.697   2.936  10.751 -1.7271 -0.2056  1.4232
 9972TIP3    H251332   0.786   3.059  10.755 -1.5969 -0.0893 -1.9950
 9973TIP3   OH251333   3.489   0.459  12.767  0.1336  0.3033 -0.0996
 9973TIP3    H151334   3.507   0.553  12.776 -1.5751  0.8645 -1.9087
 9973TIP3    H251335   3.575   0.420  12.753  1.0518  1.3523  2.1207
 9974TIP3   OH251336   2.122   0.918  12.059 -0.0698  0.1391 -0.6642
 9974TIP3    H151337   2.035   0.926  12.098 -0.1087 -1.1077 -0.4440
 9974TIP3    H251338   2.106   0.884  11.971  0.1504  0.7997 -0.9676
 9975TIP3   OH251339   5.959   5.253   3.041 -0.0101 -0.0535  0.9747
 9975TIP3    H151340   6.030   5.196   3.069 -0.8922 -1.4296  0.4633
 9975TIP3    H251341   5.882   5.197   3.038 -0.6510  0.8411 -0.8481
 9976TIP3   OH251342   6.095   5.379   3.322 -0.7300  0.0763 -0.1344
 9976TIP3    H151343   6.184   5.396   3.355 -1.0625  0.9289  0.3586
 9976TIP3    H251344   6.106   5.308   3.260  0.2362 -0.1545  0.2768
 9977TIP3   OH251345   1.652   1.650   5.150  0.6433 -0.1827  0.5567
 9977TIP3    H151346   1.604   1.609   5.221 -0.7294  1.0715  0.4021
 9977TIP3    H251347   1.675   1.579   5.091  1.5192 -1.2017  2.0553
 9978TIP3   OH251348   5.492   6.781   5.847 -0.5150 -0.6634 -0.3033
 9978TIP3    H151349   5.445   6.760   5.766 -0.6365 -0.5661 -0.2578
 9978TIP3    H251350   5.514   6.873   5.839  1.0799 -1.0697 -1.0419
 9979TIP3   OH251351   1.727   6.239  17.075  0.6543  0.1061 -0.2444
 9979TIP3    H151352   1.733   6.181  17.152 -0.3601 -0.2590 -0.4310
 9979TIP3    H251353   1.635   6.263  17.070  1.0242  1.6380 -0.2686
 9980TIP3   OH251354   0.376   0.141   0.626  0.2747 -0.0276 -0.2702
 9980TIP3    H151355   0.402   0.055   0.658 -0.1819 -0.1157 -0.1225
 9980TIP3    H251356   0.304   0.124   0.565 -0.5982  0.3114  0.6269
 9981TIP3   OH251357   5.364   4.915   4.965  0.2312 -0.7107 -0.0024
 9981TIP3    H151358   5.428   4.855   4.928  1.1762 -0.1317  0.6542
 9981TIP3    H251359   5.327   4.867   5.040 -0.6301 -1.3106 -0.7845
 9982TIP3   OH251360   2.236   1.061   6.049  0.7835  0.2220 -0.1861
 9982TIP3    H151361   2.171   1.131   6.049  0.8366  0.2835 -1.1292
 9982TIP3    H251362   2.310   1.096   6.099  0.2752  0.3115  0.5227
 9983TIP3   OH251363   3.239   0.814  11.804 -0.1182  0.1908 -0.2101
 9983TIP3    H151364   3.268   0.895  11.846 -0.1814 -0.1352  0.4848
 9983TIP3    H251365   3.145   0.826  11.792  0.1772  1.0005 -1.9026
 9984TIP3   OH251366   3.443   1.850  11.887 -0.4441  0.4355  1.1686
 9984TIP3    H151367   3.373   1.849  11.953  0.6381  2.1889  2.4203
 9984TIP3    H251368   3.473   1.941  11.886 -0.6034  0.5562 -1.9948
 9985TIP3   OH251369   4.418   1.744  15.995  0.1722 -0.0833  0.0132
 9985TIP3    H151370   4.374   1.823  16.027  1.8811  0.6674  0.6048
 9985TIP3    H251371   4.377   1.727  15.910  0.2178  1.8575 -0.4533
 9986TIP3   OH251372   1.049   4.838   0.862 -0.0862 -0.9315 -0.5944
 9986TIP3    H151373   1.079   4.786   0.936  1.0379 -0.7392 -0.9019
 9986TIP3    H251374   1.012   4.774   0.801 -1.6670 -1.0235  0.4080
 9987TIP3   OH251375   6.495   1.236  10.829  0.0425  0.1956  0.1473
 9987TIP3    H151376   6.435   1.242  10.755 -1.1751 -0.5691  1.0291
 9987TIP3    H251377   6.453   1.173  10.888  1.9284 -0.6720  0.6156
 9988TIP3   OH251378   0.809   3.352   0.193 -0.3816 -0.1438 -0.2392
 9988TIP3    H151379   0.719   3.385   0.192  0.0397  1.0967  0.5283
 9988TIP3    H251380   0.815   3.302   0.275 -0.4327 -0.4433 -0.4149
 9989TIP3   OH251381   6.772   0.165   1.709  0.0191 -0.0012  0.3003
 9989TIP3    H151382   6.707   0.229   1.739 -1.8046 -1.8448  0.4930
 9989TIP3    H251383   6.850   0.183   1.763 -0.7491  1.4394  0.9910
 9990TIP3   OH251384   3.556   3.948   1.843  0.6442 -0.3776  0.2834
 9990TIP3    H151385   3.556   3.955   1.938  0.7964 -0.3470  0.2811
 9990TIP3    H251386   3.641   3.982   1.816  0.3440  0.2340  0.0860
 9991TIP3   OH251387   1.551   1.521  16.778  0.2899 -0.4108  0.0622
 9991TIP3    H151388   1.503   1.549  16.700  1.1128 -0.9029 -0.6356
 9991TIP3    H251389   1.583   1.602  16.817 -0.4397 -0.1356  0.1057
 9992TIP3   OH251390   5.942   4.990  16.200  0.4447  0.0368  0.0359
 9992TIP3    H151391   5.952   4.977  16.106 -3.2879 -2.1528 -0.2229
 9992TIP3    H251392   5.955   4.904  16.238 -0.5575  0.3796  1.2233
 9993TIP3   OH251393   0.810   4.367   4.019  0.2775 -0.2319  0.5491
 9993TIP3    H151394   0.790   4.274   4.025 -1.9045  0.1264 -0.4097
 9993TIP3    H251395   0.774   4.395   3.935  0.4181  1.5897  1.0494
 9994TIP3   OH251396   5.647   6.636   5.085  0.2210  0.3217 -0.3114
 9994TIP3    H151397   5.682   6.635   4.995 -1.4902  1.0880 -1.0204
 9994TIP3    H251398   5.553   6.622   5.074  0.1636 -1.1455  1.5032
 9995TIP3   OH251399   3.244   5.159  16.039 -0.1741  0.2536  0.2192
 9995TIP3    H151400   3.294   5.196  15.967 -1.0224  2.5993  0.7317
 9995TIP3    H251401   3.309   5.117  16.095  0.5406 -1.2926 -1.6754
 9996TIP3   OH251402   2.317   6.134  15.671 -0.3956  0.1107  0.0641
 9996TIP3    H151403   2.241   6.192  15.677 -0.1199  0.5118 -0.2841
 9996TIP3    H251404   2.294   6.073  15.601 -1.6492 -1.6607  1.8991
 9997TIP3   OH251405   4.952   6.116   3.057  0.1236  0.6164 -0.0867
 9997TIP3    H151406   5.040   6.105   3.024  0.3374  0.6668  0.4549
 9997TIP3    H251407   4.900   6.050   3.010  0.6772 -0.2309  0.4546
 9998TIP3   OH251408   4.826   0.182  11.994 -0.2031 -0.1273 -0.1044
 9998TIP3    H151409   4.732   0.199  11.998 -0.5450 -1.9233  0.0441
 9998TIP3    H251410   4.861   0.254  11.940 -1.9287 -0.5145 -1.8431
 9999TIP3   OH251411   3.084   5.801   0.107  0.3711 -0.3617 -0.0248
 9999TIP3    H151412   3.100   5.720   0.058 -2.4154 -0.1074 -1.6117
 9999TIP3    H251413   3.123   5.870   0.054 -1.4361 -0.2355 -1.2750
10000TIP3   OH251414   3.070   4.456   1.399 -0.8727  0.0886  0.4340
10000TIP3    H151415   3.083   4.388   1.466 -0.9371 -0.9300 -0.5685
10000TIP3    H251416   3.103   4.536   1.440  0.6217 -0.8268  1.0923
10001TIP3   OH251417   2.474   2.441   2.946 -0.6516  0.1850  0.2967
10001TIP3    H151418   2.519   2.524   2.933 -0.9196  0.4025  0.7461
10001TIP3    H251419   2.397   2.463   2.997 -0.8157 -0.3155  0.2686
10002TIP3   OH251420   6.418   2.316   1.789  0.5604  0.1967 -0.1991
10002TIP3    H151421   6.337   2.364   1.806  0.2413 -0.0760 -0.9194
10002TIP3    H251422   6.436   2.332   1.697  0.8257 -0.5106 -0.2711
10003TIP3   OH251423   2.432   3.533  15.419  0.0460 -0.4527 -0.3026
10003TIP3    H151424   2.423   3.524  15.514  1.5586  1.9970  0.1373
10003TIP3    H251425   2.368   3.601  15.395  1.1628  0.4952 -0.6721
10004TIP3   OH251426   2.376   2.106   3.976  0.3212  0.3223 -0.2255
10004TIP3    H151427   2.465   2.091   4.008  1.1370 -0.8732 -2.7978
10004TIP3    H251428   2.346   2.182   4.025  1.3173 -1.4125  3.3867
10005TIP3   OH251429   0.150   5.617   6.080 -0.4421  0.1112 -0.7749
10005TIP3    H151430   0.153   5.652   6.169  0.4223 -1.7847  0.0111
10005TIP3    H251431   0.175   5.690   6.024 -2.5336  1.7992  0.3469
10006TIP3   OH251432   0.454   2.455   3.469 -0.8610  0.1137  1.0397
10006TIP3    H151433   0.411   2.526   3.422 -0.5472 -2.0984 -2.9585
10006TIP3    H251434   0.391   2.383   3.466  0.4908 -1.1028  1.0859
10007TIP3   OH251435   5.728   3.750   1.725 -0.0414 -0.2053 -0.1942
10007TIP3    H151436   5.756   3.839   1.703 -0.1842 -0.0712  0.1600
10007TIP3    H251437   5.772   3.694   1.661  1.1240 -0.0114  0.4092
10008TIP3   OH251438   6.784   0.409   3.632  0.1908 -0.5284  0.7577
10008TIP3    H151439   6.752   0.378   3.547  1.5309  1.2912 -0.4900
10008TIP3    H251440   6.773   0.334   3.691  1.4593 -2.6981 -1.5928
10009TIP3   OH251441   2.074   2.461  15.026  0.1329 -0.3062  0.0979
10009TIP3    H151442   2.062   2.531  14.963 -2.2056 -1.1657 -0.4936
10009TIP3    H251443   2.124   2.394  14.979  0.1884 -0.0897 -0.1487
10010TIP3   OH251444   1.330   2.797  12.406 -0.2451 -0.2405  0.4692
10010TIP3    H151445   1.322   2.853  12.483 -0.8717 -0.5200  0.6198
10010TIP3    H251446   1.239   2.771  12.387  0.1202 -1.9772  0.9822
10011TIP3   OH251447   6.481   4.224  11.714  0.2219  0.0138 -0.6351
10011TIP3    H151448   6.429   4.200  11.637  1.4894  0.4025 -1.6317
10011TIP3    H251449   6.558   4.168  11.710  1.0634  1.1304 -0.5355
10012TIP3   OH251450   1.949   0.451   3.938 -0.1409  0.2827  0.2404
10012TIP3    H151451   1.891   0.432   3.864  0.3353 -3.0622  0.5665
10012TIP3    H251452   1.968   0.545   3.930 -1.4451  0.4049 -2.8713
10013TIP3   OH251453   1.958   5.297   4.810 -0.8311  0.3783  0.2004
10013TIP3    H151454   2.049   5.293   4.779 -0.5207 -1.3043  1.1698
10013TIP3    H251455   1.941   5.209   4.845 -1.7810  1.5560  2.9858
10014TIP3   OH251456   2.386   5.613   2.449 -0.8905  0.2738 -0.2172
10014TIP3    H151457   2.476   5.636   2.426 -0.9716  0.9731  0.1609
10014TIP3    H251458   2.340   5.610   2.365  0.0393 -2.7689 -0.7733
10015TIP3   OH251459   2.982   4.802   2.757 -0.6672 -0.1574 -0.2867
10015TIP3    H151460   2.905   4.779   2.706 -0.2881 -2.1222 -0.0396
10015TIP3    H251461   2.952   4.799   2.848 -0.1536 -1.7455 -0.1376
10016TIP3   OH251462   2.417   3.875   4.638  0.1851  0.6229 -0.5212
10016TIP3    H151463   2.504   3.844   4.662 -0.9939 -1.2984  1.6183
10016TIP3    H251464   2.430   3.968   4.620  2.5988  0.4928  0.1339
10017TIP3   OH251465   1.025   0.928  12.378  0.1540 -0.1835  0.4844
10017TIP3    H151466   1.026   1.023  12.394  1.6172 -0.1265  0.1527
10017TIP3    H251467   1.031   0.890  12.465  0.0736  0.0283  0.5854
10018TIP3   OH251468   2.992   0.392   3.048 -0.1337 -0.3360  0.0399
10018TIP3    H151469   2.928   0.379   2.977 -0.1436 -1.2326  0.1916
10018TIP3    H251470   3.077   0.376   3.006 -0.0995 -0.2928  0.0940
10019TIP3   OH251471   1.566   4.987  16.206  0.7038  0.7581 -0.7036
10019TIP3    H151472   1.533   4.898  16.194 -0.5561  1.0802  0.1997
10019TIP3    H251473   1.623   5.001  16.131  2.2568 -1.3858 -0.0441
10020TIP3   OH251474   1.894   0.322   0.776  0.0620  0.2401  0.3689
10020TIP3    H151475   1.895   0.377   0.854  3.5257  1.2106 -0.1799
10020TIP3    H251476   1.902   0.233   0.811 -2.7927  0.1707  1.1485
10021TIP3   OH251477   5.409   4.726  16.545 -0.6542 -0.0928  0.0962
10021TIP3    H151478   5.357   4.708  16.466 -2.0649 -0.6958  1.1107
10021TIP3    H251479   5.436   4.640  16.576 -2.0041 -0.0746  1.4574
10022TIP3   OH251480   6.774   4.873   1.972 -0.0944  0.1535  0.3480
10022TIP3    H151481   6.693   4.919   1.948 -1.0457 -1.6740 -0.2333
10022TIP3    H251482   6.800   4.829   1.891  0.2513 -1.0061  1.0656
10023TIP3   OH251483   5.511   1.664   3.822  0.5412 -0.3687 -0.5288
10023TIP3    H151484   5.537   1.738   3.878 -0.4160  1.1704 -2.0164
10023TIP3    H251485   5.515   1.699   3.733 -1.5921 -1.5870 -1.1649
10024TIP3   OH251486   4.737   3.207  17.118  0.1128 -0.7093 -0.3652
10024TIP3    H151487   4.747   3.297  17.089 -2.2989  0.2965  1.5852
10024TIP3    H251488   4.696   3.162  17.044 -1.4196  0.5654 -0.3403
10025TIP3   OH251489   4.727   2.034  11.336 -0.0604  0.0213  0.2671
10025TIP3    H151490   4.669   2.005  11.266  1.3517 -1.0100 -0.5063
10025TIP3    H251491   4.739   1.957  11.391 -1.9727  1.0589  2.3211
10026TIP3   OH251492   5.538   1.463  17.057  0.4729 -0.1598 -0.0304
10026TIP3    H151493   5.631   1.486  17.063  0.3366  0.1083  1.3413
10026TIP3    H251494   5.527   1.433  16.967  1.2189  2.7299 -1.1888
10027TIP3   OH251495   5.889   0.270  17.090  0.0212 -0.0885  0.0803
10027TIP3    H151496   5.943   0.308  17.021 -1.1242 -0.0670 -0.8314
10027TIP3    H251497   5.885   0.177  17.069  0.7771 -0.3208  0.9022
10028TIP3   OH251498   2.026   1.419  16.137 -0.0183 -0.7526  0.1862
10028TIP3    H151499   1.950   1.425  16.080  1.2155  1.1654 -1.3786
10028TIP3    H251500   2.091   1.371  16.086 -0.0530 -2.2404  1.4493
10029TIP3   OH251501   1.514   3.663  14.909  0.0889 -0.3433 -0.1205
10029TIP3    H151502   1.470   3.635  14.828 -0.3510  1.4173 -0.5436
10029TIP3    H251503   1.595   3.704  14.878 -0.9319  2.0240  0.0983
10030TIP3   OH251504   0.511   4.014   1.559 -0.2349  0.0001 -0.1640
10030TIP3    H151505   0.510   3.967   1.642  0.5731 -1.3948 -0.9005
10030TIP3    H251506   0.603   4.022   1.536 -0.2383  3.1028  0.4912
10031TIP3   OH251507   3.459   6.537   4.344 -0.2321 -0.5796 -0.2174
10031TIP3    H151508   3.550   6.535   4.315 -0.1951  0.1905 -0.1894
10031TIP3    H251509   3.417   6.601   4.286 -0.3973  0.1997  0.7240
10032TIP3   OH251510   6.077   1.541  11.553  0.4861  0.2190  0.4749
10032TIP3    H151511   6.170   1.562  11.540  0.7984 -0.4859  1.4277
10032TIP3    H251512   6.030   1.604  11.498  1.5153  0.7999  0.2350
10033TIP3   OH251513   0.997   3.040  11.206  0.2514 -0.4444  0.1814
10033TIP3    H151514   1.080   3.087  11.208 -0.2561  0.4777  0.5543
10033TIP3    H251515   1.006   2.972  11.272  0.2792  0.4485  1.1285
10034TIP3   OH251516   4.421   3.142  16.170  0.3366  0.0115 -0.3175
10034TIP3    H151517   4.457   3.100  16.091  1.1843  0.9816 -0.4718
10034TIP3    H251518   4.499   3.168  16.220 -0.1778  1.0989 -0.0740
10035TIP3   OH251519   3.379   2.491  16.742  0.4957 -0.4325 -0.5633
10035TIP3    H151520   3.446   2.445  16.691  0.9915 -1.1849  0.7103
10035TIP3    H251521   3.312   2.425  16.758  0.0619 -0.0370 -0.7330
10036TIP3   OH251522   2.350   5.550   5.912 -0.0256  0.1036 -0.4112
10036TIP3    H151523   2.333   5.562   5.818 -0.9461 -1.9363 -0.5657
10036TIP3    H251524   2.269   5.511   5.946  0.5130  0.2506  1.1103
10037TIP3   OH251525   3.050   0.036   3.235  0.3990 -0.0318 -0.3837
10037TIP3    H151526   3.091   0.050   3.321 -0.3123  0.0119 -0.0391
10037TIP3    H251527   2.996   0.113   3.222  1.6093  0.6515 -1.5476
10038TIP3   OH251528   3.460   2.127   2.102 -0.2577 -0.1804  0.1607
10038TIP3    H151529   3.513   2.088   2.172  0.6361  1.0218  0.1746
10038TIP3    H251530   3.370   2.101   2.123 -0.0269  0.2900  1.8441
10039TIP3   OH251531   1.685   4.248  12.262  0.0918 -0.2702 -0.3296
10039TIP3    H151532   1.770   4.206  12.249 -0.4849 -1.6721  0.2441
10039TIP3    H251533   1.648   4.255  12.173  0.6357  0.0060 -0.5389
10040TIP3   OH251534   4.412   5.381  13.071 -0.4410  0.1223  0.2691
10040TIP3    H151535   4.478   5.312  13.064 -1.1558 -0.7658  1.8088
10040TIP3    H251536   4.329   5.335  13.074 -0.8866  0.9590  2.1787
10041TIP3   OH251537   6.501   3.658  11.334  0.1657  0.3243  0.1345
10041TIP3    H151538   6.491   3.751  11.315 -0.5441  0.4155  0.8851
10041TIP3    H251539   6.484   3.614  11.251  0.7499  0.8757 -0.2822
10042TIP3   OH251540   2.294   5.001   1.428  0.5659 -0.0016  0.1960
10042TIP3    H151541   2.317   5.062   1.358  0.5876  1.7318  1.6471
10042TIP3    H251542   2.201   4.983   1.414  1.1837 -2.1438 -2.0145
10043TIP3   OH251543   0.924   2.829  15.630  0.1746 -0.2697 -0.3224
10043TIP3    H151544   0.945   2.747  15.584  1.3064 -0.6297  0.7601
10043TIP3    H251545   0.925   2.804  15.722 -1.7641  0.4955 -0.0656
10044TIP3   OH251546   6.301   5.923  12.177 -0.3388  0.0261 -0.0381
10044TIP3    H151547   6.289   6.018  12.166  0.3748  0.2605  1.0351
10044TIP3    H251548   6.216   5.893  12.211 -0.7078  0.1971 -0.7787
10045TIP3   OH251549   3.267   4.952   4.051  0.2935  0.1874  0.3033
10045TIP3    H151550   3.313   5.015   4.107  0.7706  1.0639 -1.0201
10045TIP3    H251551   3.334   4.888   4.028 -0.2840 -1.0614  1.9524
10046TIP3   OH251552   4.622   3.036   1.528 -0.1684 -0.4826 -0.5293
10046TIP3    H151553   4.629   2.964   1.590  0.6064 -0.5117 -0.6398
10046TIP3    H251554   4.542   3.082   1.553  0.8247  0.3287  1.3738
10047TIP3   OH251555   2.849   5.906   5.119  0.1617  0.3872  0.0235
10047TIP3    H151556   2.935   5.948   5.115 -0.3346  1.6188  1.2288
10047TIP3    H251557   2.786   5.979   5.113 -0.8111 -0.4848 -0.8588
10048TIP3   OH251558   3.097   6.420  16.744 -0.2187 -0.2971  0.1589
10048TIP3    H151559   3.096   6.513  16.764 -1.0808 -0.3164  0.2480
10048TIP3    H251560   3.053   6.413  16.660  0.4611 -0.5590 -0.1845
10049TIP3   OH251561   3.275   4.623   0.409 -0.1986 -0.2828 -0.2330
10049TIP3    H151562   3.235   4.602   0.324  0.5633 -0.9664 -0.4357
10049TIP3    H251563   3.357   4.575   0.409  0.0705  0.1585  0.6729
10050TIP3   OH251564   0.572   0.760  16.944 -0.0036  0.0649  0.2719
10050TIP3    H151565   0.584   0.677  16.897  0.8137  0.4348 -0.1956
10050TIP3    H251566   0.656   0.806  16.934 -1.5114  2.6001 -2.7254
10051TIP3   OH251567   2.751   5.360  16.624  0.3948  0.7663  0.3759
10051TIP3    H151568   2.668   5.359  16.576  1.0593 -1.5119 -0.8681
10051TIP3    H251569   2.765   5.268  16.649  2.2795  1.1900  1.0035
10052TIP3   OH251570   1.218   3.568  16.055  0.1988  0.1284  0.6529
10052TIP3    H151571   1.251   3.654  16.080  0.9835  0.0733 -0.1521
10052TIP3    H251572   1.232   3.514  16.133  2.8159 -0.1002  0.1125
10053TIP3   OH251573   0.763   6.604  13.174 -0.4323  0.0537  0.5061
10053TIP3    H151574   0.833   6.547  13.205 -1.1470 -1.3865 -0.4124
10053TIP3    H251575   0.696   6.544  13.142  0.3401  1.2540 -4.0980
10054TIP3   OH251576   4.843   1.092   3.872  0.6152  0.2510 -0.1003
10054TIP3    H151577   4.792   1.168   3.846 -2.4926 -1.2226  1.2041
10054TIP3    H251578   4.892   1.121   3.948 -1.6105  0.6829  1.2536
10055TIP3   OH251579   4.970   1.083  13.878 -0.4550  0.2715  0.1074
10055TIP3    H151580   4.914   1.161  13.869  1.2794  1.4607 -0.8379
10055TIP3    H251581   5.016   1.096  13.961 -1.5386 -0.7182  0.8956
10056TIP3   OH251582   0.748   6.604  11.489  0.9447  0.3709  0.2944
10056TIP3    H151583   0.706   6.670  11.545  1.4312 -0.0269  1.1452
10056TIP3    H251584   0.778   6.653  11.413 -0.4801  0.7828 -0.0448
10057TIP3   OH251585   1.280   5.271  11.514  0.4350 -0.2755  0.7730
10057TIP3    H151586   1.343   5.222  11.567 -0.7539 -2.1455  0.5446
10057TIP3    H251587   1.274   5.222  11.432  1.3674  1.9266 -0.7016
10058TIP3   OH251588   5.037   3.188   1.769  0.5331 -0.0484  0.2276
10058TIP3    H151589   4.992   3.262   1.728 -0.1503 -0.9211 -0.6320
10058TIP3    H251590   5.017   3.198   1.863  0.1140  0.6269  0.0768
10059TIP3   OH251591   5.384   6.629   1.979 -0.7531  0.3411  0.0194
10059TIP3    H151592   5.413   6.542   1.950 -0.6853 -0.0245  1.1332
10059TIP3    H251593   5.449   6.655   2.045 -2.5560 -0.2433  2.1532
10060TIP3   OH251594   1.996   2.613  12.489  0.4592 -0.0809  0.1415
10060TIP3    H151595   1.938   2.537  12.490 -0.5887  0.6967  0.5558
10060TIP3    H251596   1.937   2.688  12.482  1.5338  0.6555 -1.9396
10061TIP3   OH251597   5.169   3.615   5.984  0.4004  0.6302  0.4232
10061TIP3    H151598   5.113   3.643   6.056 -0.7743 -2.5749  0.8930
10061TIP3    H251599   5.256   3.606   6.022  0.7391  2.9723  0.3443
10062TIP3   OH251600   3.442   3.452  15.971  0.1454  0.1413  0.2132
10062TIP3    H151601   3.469   3.362  15.989 -0.6300 -1.0342 -3.7164
10062TIP3    H251602   3.487   3.476  15.890 -0.6159  2.8869  0.4939
10063TIP3   OH251603   3.613   0.148   4.782  0.5399  0.1118 -0.4410
10063TIP3    H151604   3.646   0.066   4.744 -0.3635 -1.0230  1.0829
10063TIP3    H251605   3.520   0.132   4.795  0.6498  0.7284  1.4434
10064TIP3   OH251606   1.125   1.299   1.483  0.1626 -0.4051  0.7390
10064TIP3    H151607   1.088   1.340   1.405  0.0297  0.5046  1.2601
10064TIP3    H251608   1.160   1.373   1.534  1.4013 -1.0998  0.9431
10065TIP3   OH251609   2.111   3.856  12.722 -0.1994  0.4957 -0.6973
10065TIP3    H151610   2.019   3.831  12.713  0.1771 -1.6495  0.5585
10065TIP3    H251611   2.111   3.930  12.782 -1.0036 -0.9028  1.1046
10066TIP3   OH251612   3.208   3.559  11.220 -0.5148  0.0329  0.1525
10066TIP3    H151613   3.215   3.655  11.225 -1.1680  0.0991 -0.0853
10066TIP3    H251614   3.291   3.531  11.182  0.8116  0.2688  2.6413
10067TIP3   OH251615   4.127   1.578   4.463 -0.1936  0.2189  0.2158
10067TIP3    H151616   4.057   1.592   4.399 -0.4083 -0.6455  0.2583
10067TIP3    H251617   4.105   1.638   4.534  0.3671  1.6288 -0.7427
10068TIP3   OH251618   3.721   5.533   4.025 -0.1313  0.1715 -0.5200
10068TIP3    H151619   3.685   5.507   3.940  1.3737 -1.6107 -0.6788
10068TIP3    H251620   3.816   5.522   4.015  0.0151 -1.1699  1.7060
10069TIP3   OH251621   0.023   1.467   5.046  0.0112 -0.3595 -0.5086
10069TIP3    H151622   0.114   1.440   5.062  0.9364  2.3705 -0.5398
10069TIP3    H251623   0.015   1.551   5.091 -2.2798 -0.1701 -1.1609
10070TIP3   OH251624   6.276   5.165  12.136  0.6445 -0.1313 -0.3508
10070TIP3    H151625   6.304   5.235  12.077  2.9556 -1.0350 -0.3988
10070TIP3    H251626   6.278   5.086  12.082 -0.2686 -0.5078  0.1463
10071TIP3   OH251627   5.671   0.223   4.256  0.4786  0.4097  0.1186
10071TIP3    H151628   5.654   0.273   4.176 -3.7615  0.1690  0.6496
10071TIP3    H251629   5.696   0.289   4.320 -1.2287  1.4090 -0.1766
10072TIP3   OH251630   3.553   6.316  13.741 -0.1659  0.1893 -0.2750
10072TIP3    H151631   3.496   6.382  13.780 -1.3529 -1.5279  1.0426
10072TIP3    H251632   3.493   6.256  13.697  0.7736 -0.7847 -0.2602
10073TIP3   OH251633   5.227   6.258   2.752  0.0460 -0.0422 -0.0996
10073TIP3    H151634   5.187   6.178   2.786 -2.5019  2.7298  4.5180
10073TIP3    H251635   5.161   6.296   2.695  0.2495 -0.1100 -0.3814
10074TIP3   OH251636   2.593   3.778   5.921  0.1800 -0.5403 -0.0326
10074TIP3    H151637   2.554   3.726   5.851  1.5492 -1.1175 -0.4012
10074TIP3    H251638   2.549   3.748   6.001  0.5123 -1.8290 -0.3210
10075TIP3   OH251639   3.005   2.539  15.409  0.4145  0.2212 -0.0879
10075TIP3    H151640   3.080   2.555  15.466 -0.5389 -0.0468  1.2968
10075TIP3    H251641   3.001   2.444  15.399 -0.6728  0.0895  1.2288
10076TIP3   OH251642   4.280   3.028   1.114  0.0755  0.4722  0.0347
10076TIP3    H151643   4.339   3.096   1.147  0.6017  0.2577 -0.4441
10076TIP3    H251644   4.193   3.057   1.140  0.1679  1.9241 -1.1545
10077TIP3   OH251645   1.710   3.272   2.566  0.8870 -0.0010  0.1819
10077TIP3    H151646   1.696   3.179   2.547  0.9945 -0.1703  0.9048
10077TIP3    H251647   1.624   3.312   2.550  0.6469 -0.3446  0.5898
10078TIP3   OH251648   5.838   2.536   3.660  0.7256 -0.3457  0.5521
10078TIP3    H151649   5.819   2.571   3.573  2.8151 -2.3547 -0.8273
10078TIP3    H251650   5.811   2.605   3.721  0.0299  1.4756 -1.7187
10079TIP3   OH251651   0.489   2.338  12.918  0.3724  0.4430 -0.0990
10079TIP3    H151652   0.536   2.279  12.977  0.9484 -0.4241 -1.3710
10079TIP3    H251653   0.472   2.286  12.840 -4.0569  0.2311  0.7468
10080TIP3   OH251654   2.111   5.350  12.437  0.1126 -0.1087 -0.1751
10080TIP3    H151655   2.087   5.384  12.523  0.4706  0.1470 -0.1743
10080TIP3    H251656   2.056   5.399  12.376  0.2576  0.1070 -0.1338
10081TIP3   OH251657   6.146   4.481  15.535 -0.0299 -0.2242  0.0014
10081TIP3    H151658   6.160   4.569  15.572  0.6664  0.6765 -2.2143
10081TIP3    H251659   6.184   4.422  15.599 -1.3802  0.9706  2.0384
10082TIP3   OH251660   1.953   5.143  13.325 -0.1674 -0.2312  0.5415
10082TIP3    H151661   1.919   5.229  13.349 -0.4025 -0.4793  1.1181
10082TIP3    H251662   2.032   5.162  13.275 -1.5383  0.3709 -1.5031
10083TIP3   OH251663   4.118   3.628   6.444 -0.1496  0.0715 -0.7480
10083TIP3    H151664   4.141   3.544   6.483 -1.8070  0.1428  0.4925
10083TIP3    H251665   4.151   3.693   6.507  0.4325  0.3381 -1.3177
10084TIP3   OH251666   2.287   4.645   2.108  1.1456 -0.2085  0.6250
10084TIP3    H151667   2.358   4.692   2.064  0.7015 -0.9751 -1.0254
10084TIP3    H251668   2.309   4.552   2.096  0.3223 -0.4397  0.8547
10085TIP3   OH251669   0.096   6.691  15.551  0.2037  0.4844 -0.2840
10085TIP3    H151670   0.043   6.691  15.471  0.0761  0.0886 -0.2006
10085TIP3    H251671   0.063   6.618  15.602 -0.4181  1.3659  0.6075
10086TIP3   OH251672   3.661   3.156  12.159  0.1945 -0.1116  0.6213
10086TIP3    H151673   3.659   3.204  12.242 -0.5631  0.5252  0.2514
10086TIP3    H251674   3.569   3.142  12.137  0.3911 -0.3539 -0.0646
10087TIP3   OH251675   4.965   1.484  16.975 -0.2342 -0.2941 -0.4715
10087TIP3    H151676   5.020   1.433  17.035 -0.0966 -0.8038 -1.0244
10087TIP3    H251677   5.010   1.479  16.891 -0.0370  1.0401 -0.4733
10088TIP3   OH251678   0.179   3.327  13.410 -0.0443  0.0846 -0.2170
10088TIP3    H151679   0.156   3.286  13.326  0.4544 -0.3839 -0.1323
10088TIP3    H251680   0.127   3.279  13.474  3.2328 -3.1016  0.3790
10089TIP3   OH251681   2.699   6.370   0.257  0.0263 -0.1363  0.0940
10089TIP3    H151682   2.605   6.387   0.267  0.0618  0.1553 -0.0404
10089TIP3    H251683   2.731   6.445   0.206  0.0944 -0.9006 -1.0077
10090TIP3   OH251684   4.825   1.738  17.174 -0.1972  0.3715 -0.5050
10090TIP3    H151685   4.731   1.723  17.189 -0.3957  0.5635 -1.4937
10090TIP3    H251686   4.842   1.698  17.089  0.4106  1.1505 -0.7571
10091TIP3   OH251687   6.400   1.791   3.119 -0.1755 -0.4833 -0.2927
10091TIP3    H151688   6.306   1.797   3.102 -0.3156 -2.4038 -0.4394
10091TIP3    H251689   6.407   1.746   3.203  0.6133 -0.2787 -0.2385
10092TIP3   OH251690   2.986   4.722  11.055 -0.4639  0.2408 -0.1291
10092TIP3    H151691   2.896   4.740  11.027 -0.9293  0.9112  1.6174
10092TIP3    H251692   3.024   4.670  10.984 -2.0348  0.4575 -1.1768
10093TIP3   OH251693   5.377   1.894  14.179  0.3191 -0.0751 -0.7007
10093TIP3    H151694   5.290   1.927  14.204  0.1480 -0.9910 -0.0437
10093TIP3    H251695   5.431   1.973  14.170 -0.1120  0.4127  0.7126
10094TIP3   OH251696   6.318   6.123   1.633  0.0873 -0.3303  0.0669
10094TIP3    H151697   6.383   6.058   1.663  1.1258 -0.0346 -1.4541
10094TIP3    H251698   6.316   6.113   1.538 -1.8456 -0.0477  0.0442
10095TIP3   OH251699   4.750   2.317   5.360 -0.2624 -0.0148 -0.3113
10095TIP3    H151700   4.737   2.377   5.433 -1.3033  0.3136 -0.7376
10095TIP3    H251701   4.802   2.245   5.396 -0.6318  0.2177  0.7075
10096TIP3   OH251702   0.479   4.152   6.500 -0.3976  0.2473  0.7570
10096TIP3    H151703   0.522   4.089   6.443 -0.5635  1.2523 -0.5240
10096TIP3    H251704   0.534   4.230   6.497 -1.0082  0.7052  1.0649
10097TIP3   OH251705   6.734   6.238  16.849  0.0550 -0.1685 -0.7441
10097TIP3    H151706   6.707   6.315  16.799  0.4748 -0.6748 -1.7766
10097TIP3    H251707   6.653   6.205  16.888 -0.3370  0.0440 -1.3665
10098TIP3   OH251708   3.128   5.963   2.426 -0.0390  0.1564  0.5274
10098TIP3    H151709   3.048   5.990   2.470  0.2205 -0.4523  1.3983
10098TIP3    H251710   3.188   5.939   2.497  0.4532 -0.6717 -0.1377
10099TIP3   OH251711   0.125   6.473  13.175 -0.6228  0.1969 -0.0701
10099TIP3    H151712   0.117   6.561  13.212 -0.3838  0.1402  0.1208
10099TIP3    H251713   0.159   6.420  13.247 -1.1080 -0.1307 -0.0743
10100TIP3   OH251714   2.018   1.705   4.914 -0.1199 -0.1130  0.2142
10100TIP3    H151715   1.974   1.633   4.869 -1.1120  0.0381  0.9033
10100TIP3    H251716   2.028   1.772   4.846 -1.8239  0.2130  0.2347
10101TIP3   OH251717   1.822   6.256   2.920  0.3515  0.1301 -0.3683
10101TIP3    H151718   1.796   6.286   2.833  1.8827 -1.6984 -1.5407
10101TIP3    H251719   1.838   6.336   2.969 -1.6843  1.2280 -1.3633
10102TIP3   OH251720   6.753   5.173   2.748 -0.1069  0.2879 -0.1456
10102TIP3    H151721   6.821   5.106   2.749 -1.3121 -1.0151 -1.1327
10102TIP3    H251722   6.671   5.123   2.752 -1.0194  1.7840  0.4961
10103TIP3   OH251723   0.047   2.006   1.195 -0.1155 -0.4194  0.0154
10103TIP3    H151724   0.098   2.064   1.138 -1.5341  2.0779  1.1473
10103TIP3    H251725  -0.022   1.972   1.137 -0.9149  1.2614 -0.0956
10104TIP3   OH251726   2.659   4.003   1.099 -0.4495 -0.3075 -0.0693
10104TIP3    H151727   2.728   3.967   1.154 -0.1912  0.3589  0.0531
10104TIP3    H251728   2.610   3.927   1.069 -0.6791 -0.6788  1.1895
10105TIP3   OH251729   0.181   1.968  13.636 -0.6563  0.4645  0.2303
10105TIP3    H151730   0.239   1.897  13.611 -1.7681 -0.5851  0.5159
10105TIP3    H251731   0.234   2.047  13.628  0.8744 -0.4729  0.7571
10106TIP3   OH251732   4.141   6.476   6.114 -0.3116 -0.6776 -0.5906
10106TIP3    H151733   4.061   6.461   6.165  0.1515  0.9252  0.6774
10106TIP3    H251734   4.109   6.517   6.033 -0.7705  0.0746 -0.0384
10107TIP3   OH251735   3.391   1.977  14.786  0.0312 -0.0816 -0.4243
10107TIP3    H151736   3.362   2.019  14.705  0.7211  0.2821 -0.4868
10107TIP3    H251737   3.310   1.959  14.834 -0.3088  0.7481 -0.6743
10108TIP3   OH251738   0.001   2.880   0.935 -0.3175  0.6008  0.4225
10108TIP3    H151739   0.042   2.813   0.881  0.7330  1.5659 -0.0056
10108TIP3    H251740  -0.040   2.831   1.006  0.3391 -0.5080  0.0599
10109TIP3   OH251741   3.928   5.245  14.866  0.5665 -0.0465  0.4764
10109TIP3    H151742   4.023   5.242  14.860  0.4504 -0.9573 -1.8934
10109TIP3    H251743   3.902   5.308  14.799 -0.5420 -0.7516  0.2178
10110TIP3   OH251744   2.091   3.257  10.770 -0.3546 -0.3593  0.3273
10110TIP3    H151745   2.176   3.300  10.773  0.3004 -1.3635 -1.8678
10110TIP3    H251746   2.063   3.253  10.862  0.5361  2.6731  0.8428
10111TIP3   OH251747   1.967   2.113   3.904 -0.0252 -0.0599  0.4391
10111TIP3    H151748   1.949   2.156   3.988 -0.7858 -0.3940  0.4534
10111TIP3    H251749   1.968   2.184   3.840 -1.6787 -0.0440  0.4004
10112TIP3   OH251750   2.427   6.080  13.817 -0.0922 -0.1654  0.2886
10112TIP3    H151751   2.439   5.992  13.782  0.6409  0.3465 -0.8083
10112TIP3    H251752   2.491   6.133  13.770 -1.2301  1.1557  0.1734
10113TIP3   OH251753   2.662   3.323   0.391 -0.3696  0.3772  0.0494
10113TIP3    H151754   2.739   3.325   0.335 -1.2967  2.4160 -1.2734
10113TIP3    H251755   2.615   3.404   0.371 -1.2894  0.7133  3.0790
10114TIP3   OH251756   4.653   5.026   5.295  0.5458  0.0396 -0.1690
10114TIP3    H151757   4.591   4.959   5.322  0.8595 -0.3606 -0.4210
10114TIP3    H251758   4.719   4.979   5.243  1.5211  0.2961  0.7917
10115TIP3   OH251759   1.874   0.596  15.097 -0.0107  0.3239 -0.1222
10115TIP3    H151760   1.882   0.578  15.191  0.7780 -2.0441 -0.5917
10115TIP3    H251761   1.804   0.661  15.091 -0.1172  0.4757  2.0863
10116TIP3   OH251762   2.999   6.003  12.362 -0.0372 -0.2427 -0.1974
10116TIP3    H151763   2.915   6.033  12.397 -0.0436 -1.0385  0.4930
10116TIP3    H251764   3.063   6.068  12.391 -0.4409  0.5136 -0.9541
10117TIP3   OH251765   5.810   6.273  16.664 -0.1826  0.1106 -0.1352
10117TIP3    H151766   5.896   6.279  16.706  0.6748  0.0329 -1.7911
10117TIP3    H251767   5.761   6.347  16.699  1.3042  1.4378 -0.7554
10118TIP3   OH251768   2.749   1.752   6.281  0.3224 -0.0380  0.4183
10118TIP3    H151769   2.683   1.708   6.334  0.4542 -0.6699  0.0609
10118TIP3    H251770   2.831   1.742   6.330  0.7984 -2.1493 -0.6912
10119TIP3   OH251771   4.691   4.323  15.170 -0.5200 -0.2896  0.1107
10119TIP3    H151772   4.646   4.333  15.086  1.3718 -3.1177 -1.4099
10119TIP3    H251773   4.753   4.396  15.173 -1.5073  0.5825 -0.3043
10120TIP3   OH251774   0.349   0.943   2.009 -0.2646  0.0626  0.2667
10120TIP3    H151775   0.309   0.980   2.088  1.9395 -0.1043  1.5295
10120TIP3    H251776   0.443   0.951   2.024  0.2144 -0.2712 -2.2338
10121TIP3   OH251777   4.817   2.979   3.117  0.1376 -0.0175 -0.1190
10121TIP3    H151778   4.802   3.063   3.074  0.3844  0.0915  0.0024
10121TIP3    H251779   4.880   2.933   3.061  1.5495  0.6948  0.8181
10122TIP3   OH251780   5.039   1.970  15.998  0.1542  0.0025  0.1268
10122TIP3    H151781   5.064   1.898  15.940 -1.2222 -0.8993  0.6062
10122TIP3    H251782   4.943   1.970  15.998  0.1168  0.8452  1.3385
10123TIP3   OH251783   3.585   0.945  15.854  0.5110 -0.1496  0.0976
10123TIP3    H151784   3.528   0.981  15.786  1.5763  0.7333 -0.3659
10123TIP3    H251785   3.525   0.907  15.919 -0.6414  1.6049  0.1237
10124TIP3   OH251786   5.869   0.817   5.117 -0.2653 -0.1532 -0.3265
10124TIP3    H151787   5.895   0.726   5.111 -0.6449 -0.2243 -1.0446
10124TIP3    H251788   5.929   0.856   5.180  1.5981 -0.2958 -1.9258
10125TIP3   OH251789   2.447   5.971  14.080  0.0492 -0.4527 -0.3388
10125TIP3    H151790   2.497   6.013  14.150 -1.4866  0.1591  0.4383
10125TIP3    H251791   2.442   6.037  14.011 -0.7650 -0.0328  0.1125
10126TIP3   OH251792   2.747   0.122  14.927 -0.0479  0.2832  0.5308
10126TIP3    H151793   2.725   0.051  14.987  1.4459 -0.7595 -0.0796
10126TIP3    H251794   2.749   0.200  14.982  2.5461 -0.8128  2.2263
10127TIP3   OH251795   2.860   2.852   5.442 -1.0694 -0.3139  0.3124
10127TIP3    H151796   2.946   2.810   5.436 -0.5678  0.8526 -2.9519
10127TIP3    H251797   2.878   2.938   5.481 -0.6071  0.1531 -0.8881
10128TIP3   OH251798   6.072   5.027   1.216 -0.4462 -0.4229 -0.6976
10128TIP3    H151799   6.149   5.063   1.260  0.5981 -2.7131 -0.4952
10128TIP3    H251800   5.998   5.059   1.268  0.4851  0.4034  0.1654
10129TIP3   OH251801   2.610   1.957   4.965 -0.0077  0.3135 -0.7665
10129TIP3    H151802   2.633   1.865   4.977  2.2594  0.6020 -2.4218
10129TIP3    H251803   2.644   2.000   5.044 -1.1400 -0.2395  0.0471
10130TIP3   OH251804   0.975   1.604   3.254 -0.1537  0.0999 -0.2383
10130TIP3    H151805   0.905   1.559   3.300 -0.4621 -0.5216 -1.2703
10130TIP3    H251806   1.052   1.549   3.269 -0.2308 -0.0437 -0.3551
10131TIP3   OH251807   4.677   1.463  16.650 -0.1207 -0.1967  0.1206
10131TIP3    H151808   4.655   1.374  16.675 -1.6191 -0.5497 -2.1596
10131TIP3    H251809   4.699   1.506  16.733 -1.2361 -2.1560  1.5267
10132TIP3   OH251810   5.890   0.251   3.364  0.1202  0.1741 -0.0055
10132TIP3    H151811   5.885   0.160   3.393 -1.3157  0.5584  1.0717
10132TIP3    H251812   5.838   0.254   3.283 -0.4119  0.1649  0.3325
10133TIP3   OH251813   4.276   3.097  16.413 -0.2184  1.1698  0.4756
10133TIP3    H151814   4.199   3.151  16.396 -2.4363 -1.7623  0.3957
10133TIP3    H251815   4.331   3.110  16.335 -0.5836  3.2861  0.5070
10134TIP3   OH251816   3.685   1.687  13.290  0.3676  0.1543  0.0195
10134TIP3    H151817   3.641   1.602  13.289  1.2109 -0.3072  0.3502
10134TIP3    H251818   3.712   1.701  13.199  0.9141 -0.3219  0.0958
10135TIP3   OH251819   3.679   3.017   5.774 -0.1908 -0.5267 -0.1937
10135TIP3    H151820   3.771   3.041   5.762  0.1600 -1.3431  0.7162
10135TIP3    H251821   3.659   3.044   5.863 -1.0275  0.2027 -0.5893
10136TIP3   OH251822   2.634   5.114  12.200 -0.2383  0.4369 -0.4564
10136TIP3    H151823   2.612   5.040  12.144 -1.2642  1.5228 -1.5713
10136TIP3    H251824   2.597   5.092  12.286  0.2843 -0.7259 -0.5167
10137TIP3   OH251825   6.354   3.577   4.916 -0.1854  0.5132 -0.4896
10137TIP3    H151826   6.374   3.491   4.879 -1.5776  0.6920 -1.7797
10137TIP3    H251827   6.438   3.613   4.943  0.4622 -1.0567 -0.3592
10138TIP3   OH251828   1.672   3.600  13.366 -0.4267 -0.5647  0.4303
10138TIP3    H151829   1.735   3.625  13.434 -0.6628 -0.4914  0.6237
10138TIP3    H251830   1.674   3.672  13.303 -0.7467 -0.2894  0.7349
10139TIP3   OH251831   2.369   1.069   1.329 -0.5243  0.1997 -0.4490
10139TIP3    H151832   2.423   1.096   1.403 -1.4748  1.4614 -0.1860
10139TIP3    H251833   2.389   0.976   1.317  0.7135  0.3299  0.4608
10140TIP3   OH251834   4.745   6.473  13.928  0.1047  0.6102 -0.6396
10140TIP3    H151835   4.703   6.558  13.944 -1.4361 -0.1334 -0.5621
10140TIP3    H251836   4.683   6.426  13.872  0.6983 -0.6459 -0.2819
10141TIP3   OH251837   2.575   0.062  11.176 -0.3115 -0.4378  0.0650
10141TIP3    H151838   2.650   0.017  11.136 -1.9288 -1.5288 -1.9156
10141TIP3    H251839   2.502   0.002  11.165 -1.3197  0.0832  3.0077
10142TIP3   OH251840   2.566   0.985  11.067  0.1800  0.2314 -0.6227
10142TIP3    H151841   2.586   0.893  11.051 -2.4722 -0.2592 -1.5675
10142TIP3    H251842   2.602   1.030  10.991 -0.8870 -0.4280 -1.5576
10143TIP3   OH251843   1.197   2.866   3.295  0.8187  0.3908  0.4687
10143TIP3    H151844   1.113   2.908   3.281  1.7409  2.2525  0.2274
10143TIP3    H251845   1.215   2.819   3.213 -0.3281 -0.7253  0.8287
10144TIP3   OH251846   0.611   6.385  13.854 -0.0013 -0.5279  0.2588
10144TIP3    H151847   0.593   6.396  13.947 -0.9939  0.8482 -0.0745
10144TIP3    H251848   0.706   6.374  13.849  0.1368  0.0886  1.3722
10145TIP3   OH251849   5.756   6.164  12.241 -0.1795 -0.4492  0.3484
10145TIP3    H151850   5.830   6.209  12.200 -1.0890  0.8064  0.0162
10145TIP3    H251851   5.788   6.076  12.259  0.5502 -0.8286 -2.3447
10146TIP3   OH251852   1.200   5.021   4.931  0.6734  0.8340 -0.1701
10146TIP3    H151853   1.292   5.023   4.904  0.4539  0.5431 -0.9721
10146TIP3    H251854   1.201   4.984   5.019  1.1873 -0.6027 -0.7586
10147TIP3   OH251855   4.603   4.747   4.925  0.3083 -0.7103 -0.1995
10147TIP3    H151856   4.529   4.725   4.981  0.4141 -2.2790 -0.6099
10147TIP3    H251857   4.653   4.665   4.919  2.4579  0.4519  0.6052
10148TIP3   OH251858   1.517   6.480  12.228 -0.0991  0.6293  0.1915
10148TIP3    H151859   1.506   6.555  12.169 -0.2666  0.9462  0.6212
10148TIP3    H251860   1.471   6.506  12.308  1.0159  0.6412  0.8520
10149TIP3   OH251861   0.956   5.472  15.261  0.1993  0.1243 -0.0846
10149TIP3    H151862   1.025   5.452  15.197  1.1383  0.2729  0.8529
10149TIP3    H251863   0.968   5.406  15.329 -0.9447 -0.1778 -0.1575
10150TIP3   OH251864   6.583   6.429  15.235  0.1088  0.5015 -0.4365
10150TIP3    H151865   6.617   6.348  15.272  0.0145  0.5045 -0.3406
10150TIP3    H251866   6.559   6.482  15.312  0.7268  0.8647 -0.4888
10151TIP3   OH251867   4.973   6.617  13.883 -0.1847  0.0342 -0.2759
10151TIP3    H151868   4.968   6.623  13.787 -2.6800  1.1179 -0.1670
10151TIP3    H251869   4.887   6.583  13.909  0.4653 -0.2977  1.5940
10152TIP3   OH251870   2.547   1.246   5.691  0.6171  0.0123  0.2692
10152TIP3    H151871   2.589   1.291   5.764  0.2629 -2.0910  1.8397
10152TIP3    H251872   2.619   1.211   5.639  0.8733 -0.6520  1.0500
10153TIP3   OH251873   5.258   0.618  16.643  0.2612  0.4797 -0.1155
10153TIP3    H151874   5.197   0.681  16.682  0.0262 -0.2340  0.7044
10153TIP3    H251875   5.316   0.671  16.588  1.2600  1.6946  1.9882
10154TIP3   OH251876   5.629   4.209  14.109  0.3153  0.4397  0.3263
10154TIP3    H151877   5.546   4.172  14.140 -0.0884  0.6334 -0.4988
10154TIP3    H251878   5.617   4.219  14.015  2.3316 -2.3312 -0.3566
10155TIP3   OH251879   6.726   0.298   2.105  0.3888  0.0054 -0.0028
10155TIP3    H151880   6.804   0.303   2.051  0.1678 -1.8749 -0.5860
10155TIP3    H251881   6.654   0.285   2.043 -0.0982 -0.4161  0.6312
10156TIP3   OH251882   3.808   5.881   1.823 -0.5807  0.1861  0.7445
10156TIP3    H151883   3.836   5.889   1.915 -0.0992 -1.9287  0.8336
10156TIP3    H251884   3.713   5.869   1.829 -0.4858 -0.4639  1.0097
10157TIP3   OH251885   0.950   5.241   5.491  0.1776  0.2981  0.1774
10157TIP3    H151886   0.995   5.318   5.456  0.8144 -0.1801 -0.0796
10157TIP3    H251887   0.875   5.228   5.432  0.8766 -0.1165 -0.6278
10158TIP3   OH251888   6.171   3.643   3.323  0.0733  0.6460 -0.4547
10158TIP3    H151889   6.219   3.716   3.284 -2.0402  2.4762  0.2076
10158TIP3    H251890   6.105   3.684   3.378 -1.2003 -1.7849 -0.0467
10159TIP3   OH251891   3.664   6.704  16.740  0.1731 -0.0177  0.3640
10159TIP3    H151892   3.687   6.716  16.648 -1.1858 -3.3995 -0.5949
10159TIP3    H251893   3.569   6.719  16.743 -0.2565 -2.3177  0.5586
10160TIP3   OH251894   3.991   1.005   1.417 -0.1871 -0.0389  0.3643
10160TIP3    H151895   3.911   1.053   1.393  0.5405  0.8537 -0.4041
10160TIP3    H251896   4.002   1.021   1.510 -1.0667 -0.4280  0.5414
10161TIP3   OH251897   2.509   0.174  10.714 -0.5571  0.1893 -0.1314
10161TIP3    H151898   2.544   0.107  10.656 -1.7603 -1.0708  0.5475
10161TIP3    H251899   2.415   0.174  10.698 -0.6624  1.2638  0.3626
10162TIP3   OH251900   3.478   1.142  15.417 -0.0749  0.5228  0.0218
10162TIP3    H151901   3.573   1.148  15.406  0.2574  0.3618  2.2664
10162TIP3    H251902   3.466   1.126  15.511 -2.4033  2.3111  0.1087
10163TIP3   OH251903   1.523   6.418  14.704  0.4565  0.2666  0.3017
10163TIP3    H151904   1.612   6.441  14.729  0.4797  0.0889  0.3827
10163TIP3    H251905   1.532   6.381  14.616  0.2965  1.4872 -0.2470
10164TIP3   OH251906   4.470   6.514   0.130  0.6136  0.4731  0.4951
10164TIP3    H151907   4.495   6.558   0.211 -0.5784  0.7580  0.7243
10164TIP3    H251908   4.436   6.584   0.074  1.3672  0.2718 -0.2519
10165TIP3   OH251909   1.679   1.183   6.078  0.0108 -0.2303  0.1258
10165TIP3    H151910   1.729   1.243   6.134  2.4663 -2.2706  0.3103
10165TIP3    H251911   1.686   1.221   5.990 -0.0193  0.6639  0.5021
10166TIP3   OH251912   1.856   0.821  12.513 -0.2696  0.1565  0.0536
10166TIP3    H151913   1.771   0.789  12.481 -0.1591  0.3977 -0.4840
10166TIP3    H251914   1.841   0.837  12.607 -0.4085 -1.1935  0.2936
10167TIP3   OH251915   4.360   3.329   0.303 -0.2632  0.3932 -0.4595
10167TIP3    H151916   4.277   3.301   0.342  0.8723 -0.3638  1.5744
10167TIP3    H251917   4.386   3.255   0.247  0.8995 -1.2107  2.0038
10168TIP3   OH251918   0.615   5.271  12.033  0.1307  0.2221  0.6919
10168TIP3    H151919   0.697   5.316  12.014 -0.3927  1.3020  0.9437
10168TIP3    H251920   0.593   5.227  11.951  0.7552  0.2405  0.5064
10169TIP3   OH251921   6.258   3.802  13.977  0.3981 -0.1176 -0.0485
10169TIP3    H151922   6.329   3.830  13.920  0.9361  1.5372  1.3457
10169TIP3    H251923   6.297   3.736  14.035  0.5187  0.0433  0.0520
10170TIP3   OH251924   5.767   3.304   2.809  0.0609  0.6763 -0.5592
10170TIP3    H151925   5.675   3.328   2.815 -0.7038 -2.0623 -0.3586
10170TIP3    H251926   5.772   3.245   2.734  1.5367  0.3323 -0.2226
10171TIP3   OH251927   5.318   6.551   1.587  0.5744 -0.3099 -0.3027
10171TIP3    H151928   5.252   6.562   1.518  0.7913 -0.9883 -0.6319
10171TIP3    H251929   5.287   6.476   1.638 -0.2574  0.9698  1.1488
10172TIP3   OH251930   3.360   4.122   3.808 -0.0047 -0.2288 -0.3940
10172TIP3    H151931   3.299   4.081   3.747  0.2434  0.0974 -0.8643
10172TIP3    H251932   3.343   4.216   3.799 -0.6342 -0.2228  0.7394
10173TIP3   OH251933   6.144   2.151  15.881 -0.0086  0.4852 -0.0777
10173TIP3    H151934   6.165   2.243  15.895  0.2287  0.5012 -0.5069
10173TIP3    H251935   6.055   2.152  15.845  0.2101  0.5893 -0.6271
10174TIP3   OH251936   1.221   0.646   0.569  0.1500 -0.5893 -0.2060
10174TIP3    H151937   1.132   0.633   0.539  0.4525 -2.0881 -0.5148
10174TIP3    H251938   1.263   0.698   0.500 -0.1699 -0.8454 -0.5895
10175TIP3   OH251939   6.505   6.624   0.551  0.6861  0.1644  0.0077
10175TIP3    H151940   6.573   6.651   0.612  1.0482  0.6578 -0.5954
10175TIP3    H251941   6.441   6.695   0.553 -0.5390 -0.9256  1.6045
10176TIP3   OH251942   1.272   2.970   1.857 -0.3314 -0.1158  0.6343
10176TIP3    H151943   1.307   2.887   1.826 -1.3385 -0.3956  0.1918
10176TIP3    H251944   1.178   2.954   1.866 -0.2668  0.4036  2.4469
10177TIP3   OH251945   2.421   5.169  13.772  0.2718 -0.4273  0.0404
10177TIP3    H151946   2.510   5.162  13.737  0.4771 -1.0288  0.6746
10177TIP3    H251947   2.380   5.238  13.718  1.1640 -0.0270 -0.1484
10178TIP3   OH251948   1.538   1.095   0.266  0.0806 -0.1704  0.1600
10178TIP3    H151949   1.456   1.144   0.262  0.2515  0.0843 -0.2989
10178TIP3    H251950   1.567   1.105   0.357  0.1590  0.6614  0.0519
10179TIP3   OH251951   4.247   5.315   6.268 -0.3884  0.0679 -0.0864
10179TIP3    H151952   4.298   5.340   6.345 -0.2861  0.0792 -0.1576
10179TIP3    H251953   4.277   5.373   6.199 -0.9942  0.5484  0.0409
10180TIP3   OH251954   3.015   5.325  16.484  0.6173 -0.1066  0.3010
10180TIP3    H151955   2.953   5.279  16.540 -0.1908  2.6892  1.9111
10180TIP3    H251956   2.967   5.340  16.403  0.1698 -0.3033  0.5233
10181TIP3   OH251957   0.704   1.480   6.424 -0.4718 -0.3027  0.3633
10181TIP3    H151958   0.634   1.483   6.358  0.1629 -0.3797 -0.3260
10181TIP3    H251959   0.744   1.394   6.413  0.9284  0.4156 -0.5359
10182TIP3   OH251960   0.902   6.404  13.668 -0.2465  0.4557  0.0382
10182TIP3    H151961   0.970   6.406  13.601  1.7564 -2.6773  1.7844
10182TIP3    H251962   0.906   6.491  13.709  2.9915  0.2699  0.3001
10183TIP3   OH251963   5.129   0.066  12.317  0.7800 -0.1725  0.2769
10183TIP3    H151964   5.041   0.039  12.344  1.5747 -0.8149  2.3786
10183TIP3    H251965   5.115   0.111  12.233 -1.3488 -1.6097 -0.2264
10184TIP3   OH251966   0.492   0.383   0.734  0.6813 -0.2369 -0.1376
10184TIP3    H151967   0.424   0.398   0.799  0.2778  1.2674 -0.8787
10184TIP3    H251968   0.501   0.287   0.730 -0.9698 -0.4335  0.3861
10185TIP3   OH251969   2.642   1.945   3.353 -0.1026 -0.1000  0.1341
10185TIP3    H151970   2.678   1.885   3.418 -0.0427 -0.2138 -0.0046
10185TIP3    H251971   2.594   2.010   3.404  1.8859  1.1886  0.4869
10186TIP3   OH251972   3.725   6.585  14.613 -0.0885  0.4023  0.6047
10186TIP3    H151973   3.795   6.576  14.549  0.9977  0.6788  1.7070
10186TIP3    H251974   3.648   6.611  14.562 -0.2571 -2.8615 -1.0695
10187TIP3   OH251975   1.331   6.134   1.287  0.4511 -0.0540  0.1863
10187TIP3    H151976   1.355   6.043   1.268  1.0707 -0.0881  1.1164
10187TIP3    H251977   1.258   6.127   1.349 -0.4900  0.0828 -0.8661
10188TIP3   OH251978   3.610   2.567   1.581  0.5686  0.0968 -0.2948
10188TIP3    H151979   3.535   2.556   1.638  0.0671  0.9624 -0.7785
10188TIP3    H251980   3.599   2.653   1.541  1.8013  0.2379 -0.3970
10189TIP3   OH251981   4.936   3.561   1.211 -0.3773  0.6057 -0.3531
10189TIP3    H151982   4.931   3.508   1.132  1.0836 -0.0412 -0.0520
10189TIP3    H251983   4.998   3.631   1.189 -0.8737  1.1111 -0.1585
10190TIP3   OH251984   3.709   1.091   0.358 -0.3655 -0.3550 -0.6165
10190TIP3    H151985   3.745   1.038   0.430  0.0598  0.3937 -0.2655
10190TIP3    H251986   3.784   1.109   0.302 -0.0503  1.5106  0.3013
10191TIP3   OH251987   2.963   5.684   2.456  0.2389  0.6954  0.3345
10191TIP3    H151988   2.995   5.764   2.413 -1.1139  0.6874 -0.7440
10191TIP3    H251989   2.989   5.694   2.547 -0.2340  2.5641  0.3019
10192TIP3   OH251990   3.380   2.320   5.901  0.1160 -0.1352 -0.1873
10192TIP3    H151991   3.454   2.264   5.923  0.1724 -0.4339 -1.0878
10192TIP3    H251992   3.388   2.395   5.960  0.7491 -0.4879  0.1805
10193TIP3   OH251993   2.750   4.652  10.504  0.1557  0.0321 -0.2864
10193TIP3    H151994   2.665   4.627  10.540 -0.7165  1.1461 -1.4920
10193TIP3    H251995   2.783   4.718  10.565 -1.0203  1.4384 -1.1229
10194TIP3   OH251996   2.994   4.135  16.267  0.4328  0.3217 -0.3270
10194TIP3    H151997   2.910   4.172  16.294  0.9063 -0.4600  2.6060
10194TIP3    H251998   2.972   4.073  16.198 -1.3702  0.3839  0.1415
10195TIP3   OH251999   0.537   6.274   0.184  0.2672  0.1863 -0.0562
10195TIP3    H152000   0.633   6.277   0.183  0.2790 -0.1606 -1.3087
10195TIP3    H252001   0.511   6.361   0.214  0.9697  0.6580 -0.7858
10196TIP3   OH252002   3.678   2.954  10.623 -0.3596 -0.2423 -0.5269
10196TIP3    H152003   3.636   3.017  10.681 -1.3407  1.0887 -2.5761
10196TIP3    H252004   3.756   2.925  10.671 -0.5745  1.5555  1.0022
10197TIP3   OH252005   5.276   4.021  15.616  0.7103 -0.6298  0.2717
10197TIP3    H152006   5.263   3.999  15.523  1.2709 -0.5660  0.1773
10197TIP3    H252007   5.190   4.007  15.656  0.1280  0.5278 -0.4944
10198TIP3   OH252008   4.587   2.605  13.229  0.0100 -0.3428 -0.3660
10198TIP3    H152009   4.505   2.607  13.280  0.4035 -0.9587  0.3075
10198TIP3    H252010   4.571   2.665  13.156 -0.0664  1.7636  1.2646
10199TIP3   OH252011   5.573   1.777  14.364 -0.2004 -0.0002  0.2280
10199TIP3    H152012   5.606   1.719  14.295 -0.6818  0.4031 -0.3426
10199TIP3    H252013   5.510   1.833  14.321 -1.3681 -0.5000  1.2302
10200TIP3   OH252014   1.726   0.621  11.532  0.1592  0.3288 -0.2108
10200TIP3    H152015   1.718   0.680  11.457 -0.7759  0.0202 -0.3659
10200TIP3    H252016   1.728   0.533  11.493  0.9792  0.2151  0.0550
10201TIP3   OH252017   0.862   2.102  15.317  0.4747  0.3124 -0.6571
10201TIP3    H152018   0.853   2.079  15.410  2.7046  0.8618 -0.2501
10201TIP3    H252019   0.837   2.194  15.313 -1.4709 -0.1899 -0.9907
10202TIP3   OH252020   4.723   6.495   3.194  0.1020  0.3326  0.6085
10202TIP3    H152021   4.728   6.415   3.141 -0.5813  0.6474  0.0466
10202TIP3    H252022   4.683   6.468   3.276  0.1507  0.0443  0.5386
10203TIP3   OH252023   0.396   2.177  14.280 -0.3567 -0.0410  0.3774
10203TIP3    H152024   0.371   2.147  14.192  1.3111 -0.0015 -0.1527
10203TIP3    H252025   0.316   2.170  14.331 -1.4323  0.1256 -1.1972
10204TIP3   OH252026   4.418   3.964   4.869 -0.5560 -0.0843 -0.5120
10204TIP3    H152027   4.390   3.874   4.889 -1.9684  0.5070  0.3230
10204TIP3    H252028   4.511   3.965   4.892 -0.6857 -1.1492  0.1635
10205TIP3   OH252029   2.630   5.795   2.019  0.0786  0.2301  0.0795
10205TIP3    H152030   2.699   5.806   2.084  0.0248 -0.2495  0.2188
10205TIP3    H252031   2.637   5.704   1.992 -0.1421  0.3287 -0.3139
10206TIP3   OH252032   4.787   4.995   5.799  0.2989 -0.2662 -0.1872
10206TIP3    H152033   4.741   4.920   5.838 -0.9318  0.4496 -0.1913
10206TIP3    H252034   4.740   5.071   5.834  2.1983  0.5668  0.6709
10207TIP3   OH252035   2.324   6.434  11.922  0.4840 -0.0393  0.1930
10207TIP3    H152036   2.241   6.472  11.950  0.3580 -1.2188  1.5223
10207TIP3    H252037   2.307   6.339  11.919  1.8130 -0.3141  0.6498
10208TIP3   OH252038   1.449   4.098  13.732 -0.4112 -0.8248  0.5087
10208TIP3    H152039   1.493   4.016  13.755 -0.3472 -0.7169  0.7679
10208TIP3    H252040   1.471   4.112  13.640  0.6981 -0.3928  0.8322
10209TIP3   OH252041   3.438   3.594   5.167 -0.1741  0.0634 -0.5129
10209TIP3    H152042   3.417   3.517   5.113 -0.9521  0.2927 -0.5534
10209TIP3    H252043   3.520   3.627   5.130 -0.1238 -0.4187 -0.8555
10210TIP3   OH252044   1.556   4.279   2.614 -0.6092 -0.4102 -0.2223
10210TIP3    H152045   1.500   4.275   2.692  0.4320 -0.2289  0.5613
10210TIP3    H252046   1.548   4.370   2.584  0.1859 -0.0414  0.6144
10211TIP3   OH252047   4.573   1.071  15.203 -0.2532  0.1328  0.1696
10211TIP3    H152048   4.617   1.038  15.125  0.1007 -0.1630  0.4837
10211TIP3    H252049   4.506   1.006  15.223  1.6399 -1.4812  1.8582
10212TIP3   OH252050   6.274   2.256  11.053 -0.5960  0.1526  0.1698
10212TIP3    H152051   6.316   2.331  11.010  0.0749 -0.4908 -0.3236
10212TIP3    H252052   6.216   2.220  10.986 -1.7617  0.8854  0.7698
10213TIP3   OH252053   2.661   4.230   0.876 -0.5871 -0.1721 -0.2772
10213TIP3    H152054   2.671   4.185   0.961  0.4874 -1.0756 -0.8507
10213TIP3    H252055   2.568   4.252   0.871 -0.6000  0.2459  1.3015
10214TIP3   OH252056   5.964   0.757  16.141 -0.1888  0.1421 -0.0044
10214TIP3    H152057   6.043   0.745  16.088 -0.2074 -0.6743  0.1316
10214TIP3    H252058   5.968   0.687  16.206 -1.0919  0.0011 -0.0815
10215TIP3   OH252059   5.828   6.012   4.281  1.0170  0.2891 -0.1838
10215TIP3    H152060   5.883   5.945   4.320  1.1674  0.0314 -0.8235
10215TIP3    H252061   5.838   6.000   4.186  0.1808  0.4915 -0.3116
10216TIP3   OH252062   1.668   1.601   0.278  0.2369 -0.3755  0.1382
10216TIP3    H152063   1.758   1.635   0.280  0.0452  0.2707 -1.0477
10216TIP3    H252064   1.637   1.608   0.368  1.5618 -1.1372  0.6748
10217TIP3   OH252065   2.420   4.055   0.237 -0.3221  0.0767 -0.2133
10217TIP3    H152066   2.389   4.142   0.260  1.4111  1.5110 -2.8959
10217TIP3    H252067   2.344   4.012   0.197 -1.0264  0.5248  0.6180
10218TIP3   OH252068   4.607   3.248   4.946  0.1939  0.7291  0.4404
10218TIP3    H152069   4.667   3.257   5.020 -0.3550 -0.8955  1.1455
10218TIP3    H252070   4.578   3.337   4.927  1.9513  1.4216  0.8047
10219TIP3   OH252071   0.815   6.739  16.010  0.2666  0.3882 -0.3998
10219TIP3    H152072   0.891   6.760  15.955 -0.0349 -1.7167 -1.7436
10219TIP3    H252073   0.841   6.662  16.060 -0.1093  1.2081  1.1184
10220TIP3   OH252074   4.091   2.514  16.282  0.0213 -0.4811  0.6906
10220TIP3    H152075   4.031   2.588  16.276 -0.8266 -1.1620  0.5945
10220TIP3    H252076   4.161   2.535  16.221 -0.5309 -0.0438  0.1967
10221TIP3   OH252077   3.945   6.765  15.939  0.2182 -0.3054 -0.1468
10221TIP3    H152078   3.946   6.690  15.998 -2.6738 -3.1407 -3.2979
10221TIP3    H252079   4.037   6.782  15.919  1.0148 -2.0264  1.7850
10222TIP3   OH252080   5.865   3.395   1.813 -0.4717 -0.6428 -0.2823
10222TIP3    H152081   5.888   3.344   1.891  1.3530  0.6610  0.0836
10222TIP3    H252082   5.813   3.468   1.846 -1.0766 -0.9699 -0.5019
10223TIP3   OH252083   2.769   6.199  13.886  0.4024 -0.4703 -0.7806
10223TIP3    H152084   2.780   6.294  13.881 -0.3218 -0.3764 -0.7001
10223TIP3    H252085   2.771   6.170  13.794  0.3998 -0.3487 -0.8198
10224TIP3   OH252086   0.049   1.692   6.220 -0.0674  0.5098 -0.5209
10224TIP3    H152087   0.124   1.741   6.253 -0.0695  2.9588 -3.6306
10224TIP3    H252088   0.086   1.617   6.174  0.3544  0.7777 -0.6192
10225TIP3   OH252089   6.039   4.442  15.907  0.2008  0.1284 -0.0896
10225TIP3    H152090   5.961   4.433  15.962  0.4689 -0.4734  0.2043
10225TIP3    H252091   6.015   4.399  15.825  0.5481 -0.9417  0.3501
10226TIP3   OH252092   1.129   3.092   3.906  0.4250  0.2269  0.6997
10226TIP3    H152093   1.146   3.029   3.976  1.6437 -0.8612 -0.4984
10226TIP3    H252094   1.106   3.173   3.951  2.8550  0.0531  2.4499
10227TIP3   OH252095   5.148   5.875   4.625 -0.4345  0.2844  0.8790
10227TIP3    H152096   5.124   5.929   4.549  0.0806  0.0519  0.5410
10227TIP3    H252097   5.150   5.785   4.590 -1.6140 -0.0031  1.5115
10228TIP3   OH252098   2.262   0.233   2.377  0.2113  0.3778  0.1466
10228TIP3    H152099   2.238   0.166   2.441  2.7235 -1.0978 -0.3143
10228TIP3    H252100   2.313   0.297   2.427  3.8423 -1.7377 -0.4537
10229TIP3   OH252101   4.232   4.027  13.817  0.4337  0.4629 -0.1528
10229TIP3    H152102   4.307   3.989  13.862  0.7809 -0.6418 -1.5858
10229TIP3    H252103   4.161   3.964  13.830 -0.4462  1.7490  1.6388
10230TIP3   OH252104   6.461   4.974  15.248  0.1271 -0.1719  0.4971
10230TIP3    H152105   6.467   4.947  15.340 -2.1461  0.3014  0.8579
10230TIP3    H252106   6.391   4.919  15.211 -1.8382  2.3194  0.2063
10231TIP3   OH252107   4.869   5.764  14.738  0.4456  0.7248 -0.2693
10231TIP3    H152108   4.828   5.705  14.801 -0.1612 -0.3475 -1.6203
10231TIP3    H252109   4.963   5.753  14.752  0.3205  1.1466  1.0064
10232TIP3   OH252110   1.576   4.462   4.201  0.3401  0.2203 -0.2226
10232TIP3    H152111   1.482   4.472   4.216 -0.1050 -1.9940 -1.2021
10232TIP3    H252112   1.608   4.414   4.277  0.7721  1.3123  0.2983
10233TIP3   OH252113   3.196   4.732   4.930 -0.2130  0.6305  0.1396
10233TIP3    H152114   3.136   4.663   4.903 -0.9972  1.2844  0.2005
10233TIP3    H252115   3.277   4.713   4.883 -0.5488 -0.1057 -0.1466
10234TIP3   OH252116   3.107   3.669  12.424  0.0307  0.1341  0.1549
10234TIP3    H152117   3.140   3.751  12.460 -0.7958  0.0594  1.1468
10234TIP3    H252118   3.098   3.686  12.330  1.9732  0.4290 -0.0202
10235TIP3   OH252119   4.024   5.046  14.408  0.1037 -0.1601  0.2635
10235TIP3    H152120   4.018   4.973  14.347  1.4576 -0.4427  0.4394
10235TIP3    H252121   4.048   5.122  14.354  1.3349 -0.4172  0.4205
10236TIP3   OH252122   3.690   2.240  16.854  0.0136 -0.0639 -0.0357
10236TIP3    H152123   3.761   2.293  16.817  1.2060 -0.8723  0.9943
10236TIP3    H252124   3.672   2.281  16.939  0.2194 -0.6788  0.3112
10237TIP3   OH252125   2.006   3.756   3.232  0.0483 -0.2220  0.0171
10237TIP3    H152126   2.023   3.679   3.285 -1.7102 -0.3005  0.5110
10237TIP3    H252127   2.082   3.813   3.248  0.8200 -1.3480  0.5121
10238TIP3   OH252128   1.520   0.585   3.217 -0.0735  0.3082 -0.2788
10238TIP3    H152129   1.456   0.526   3.177  2.1996 -0.8284 -2.4494
10238TIP3    H252130   1.539   0.545   3.302 -1.2417 -0.0390 -0.1599
10239TIP3   OH252131   3.481   6.549  14.895 -0.5651 -0.4721 -0.2911
10239TIP3    H152132   3.429   6.470  14.883 -1.5715 -0.0183  0.8607
10239TIP3    H252133   3.476   6.595  14.812  0.1486 -1.6617 -1.0255
10240TIP3   OH252134   1.450   6.131   1.892  0.0429  0.1947  0.1883
10240TIP3    H152135   1.355   6.120   1.899  0.1702 -1.6960 -0.3784
10240TIP3    H252136   1.462   6.187   1.815 -0.6138 -2.1953 -1.8117
10241TIP3   OH252137   4.810   0.322   5.906 -0.2826 -0.4932 -0.2324
10241TIP3    H152138   4.726   0.302   5.946  0.5624 -2.2910  0.7890
10241TIP3    H252139   4.831   0.411   5.934 -1.6812 -0.1411 -0.2623
10242TIP3   OH252140   4.437   0.135  14.803  0.2517 -0.0648 -0.2578
10242TIP3    H152141   4.512   0.109  14.750  0.5791  0.5978 -0.1402
10242TIP3    H252142   4.361   0.095  14.761  0.4399  0.8673 -1.5284
10243TIP3   OH252143   0.270   4.113  13.249 -0.5461  0.0231 -0.1157
10243TIP3    H152144   0.195   4.137  13.195 -1.1731 -0.3308  0.5908
10243TIP3    H252145   0.336   4.084  13.186 -1.5613 -1.1984 -0.6545
10244TIP3   OH252146   0.835   1.184  10.604  0.2263  0.0359 -0.2736
10244TIP3    H152147   0.921   1.183  10.645  1.2633  2.0154 -2.2251
10244TIP3    H252148   0.839   1.254  10.540 -2.9212  0.3213 -0.3325
10245TIP3   OH252149   4.149   6.437   2.428  0.5197 -0.2159 -0.0303
10245TIP3    H152150   4.105   6.355   2.407  1.6334 -0.6747 -0.6965
10245TIP3    H252151   4.090   6.505   2.398 -0.7505 -0.7285  1.1892
10246TIP3   OH252152   4.044   3.398   3.137 -0.2091 -0.1031 -0.0167
10246TIP3    H152153   4.117   3.377   3.196 -0.9349  0.4903  1.1109
10246TIP3    H252154   3.985   3.323   3.144 -1.9728  1.3948  2.7134
10247TIP3   OH252155   6.441   1.362  14.908 -0.1158 -0.4696  0.0236
10247TIP3    H152156   6.514   1.405  14.863  1.0926 -2.8623 -0.4900
10247TIP3    H252157   6.469   1.357  14.999 -0.2406 -0.2221  0.0765
10248TIP3   OH252158   2.877   2.001  17.102  0.1283 -0.3183 -0.4442
10248TIP3    H152159   2.949   1.980  17.042  0.3075 -0.2374 -0.2563
10248TIP3    H252160   2.798   1.982  17.051  0.2764 -1.4183 -0.2973
10249TIP3   OH252161   4.072   4.213   4.396 -0.0640  0.2647 -0.2820
10249TIP3    H152162   4.094   4.249   4.482 -0.4718  0.0988 -0.1020
10249TIP3    H252163   4.156   4.186   4.358  0.0826  0.0162  0.2127
10250TIP3   OH252164   1.592   6.018  13.284  0.2357 -0.1895 -0.2067
10250TIP3    H152165   1.550   6.036  13.368  1.6771  0.0763  0.4989
10250TIP3    H252166   1.581   5.924  13.271  0.2520 -0.2869  0.4421
10251TIP3   OH252167   2.096   2.248   3.513 -0.5392  0.0422  0.0825
10251TIP3    H152168   2.032   2.286   3.574 -1.4153 -0.8676 -0.2417
10251TIP3    H252169   2.158   2.202   3.568 -1.3666 -0.8350  0.3112
10252TIP3   OH252170   6.476   3.091  10.566  0.8959 -0.3329 -0.2503
10252TIP3    H152171   6.558   3.072  10.521 -0.8920 -0.8207 -3.6714
10252TIP3    H252172   6.461   3.014  10.622  2.2862 -0.6599 -0.2817
10253TIP3   OH252173   4.147   3.664   0.776 -0.2426  0.2136  0.0310
10253TIP3    H152174   4.137   3.720   0.699  0.6130 -0.5050 -0.6201
10253TIP3    H252175   4.207   3.595   0.748 -0.8973 -0.7719  0.9518
10254TIP3   OH252176   0.136   4.080   5.522 -0.2762 -0.2595 -0.0182
10254TIP3    H152177   0.083   4.053   5.597  0.4046  0.5797  0.8020
10254TIP3    H252178   0.074   4.090   5.450 -1.0795 -0.2252  0.6661
10255TIP3   OH252179   5.833   1.803   6.096 -0.3262  0.3994 -0.3670
10255TIP3    H152180   5.739   1.793   6.078 -0.7205  0.0523  1.5764
10255TIP3    H252181   5.840   1.787   6.190  1.4783  1.9918 -0.1847
10256TIP3   OH252182   5.048   0.904  12.031  0.2331  0.0068  0.0714
10256TIP3    H152183   4.996   0.978  12.002 -0.3562 -0.3726  0.1467
10256TIP3    H252184   5.067   0.922  12.124 -0.3304 -0.1745  0.2239
10257TIP3   OH252185   0.485   3.314  12.506  0.2538 -0.4756 -0.3895
10257TIP3    H152186   0.473   3.250  12.436 -0.6664 -0.7682  0.0221
10257TIP3    H252187   0.435   3.279  12.580  1.3303 -0.2535  0.4858
10258TIP3   OH252188   2.038   3.832  16.518 -0.2978  0.2901  0.4072
10258TIP3    H152189   1.953   3.848  16.477 -0.5106 -0.8257  0.3980
10258TIP3    H252190   2.064   3.918  16.552 -0.8927  0.8787 -0.5726
10259TIP3   OH252191   1.314   5.965  15.221 -0.5818 -0.2566 -0.0676
10259TIP3    H152192   1.230   5.991  15.182  0.2703  1.8158 -0.6803
10259TIP3    H252193   1.370   5.945  15.146  1.0420  3.6532 -0.1184
10260TIP3   OH252194   4.645   6.190  10.592 -0.2701  0.3832  0.3846
10260TIP3    H152195   4.636   6.096  10.578 -1.3750  0.3293  1.2402
10260TIP3    H252196   4.726   6.200  10.641  0.6362  0.0436 -0.9998
10261TIP3   OH252197   4.396   1.129   6.001 -0.1447  0.2439  0.5011
10261TIP3    H152198   4.332   1.067   6.035  1.2470 -1.5956 -0.0747
10261TIP3    H252199   4.453   1.148   6.075 -0.9621  1.4101  0.8553
10262TIP3   OH252200   1.622   6.747   1.799 -0.0435 -0.1416 -0.1136
10262TIP3    H152201   1.704   6.751   1.848  0.5614  0.3903 -1.1315
10262TIP3    H252202   1.630   6.667   1.747 -0.6197 -0.6242  0.5134
10263TIP3   OH252203   3.334   5.212  13.058  0.2696 -0.4202 -0.2412
10263TIP3    H152204   3.304   5.301  13.038  0.9808 -0.5472 -2.0368
10263TIP3    H252205   3.266   5.155  13.022 -0.2872 -0.6310  1.0878
10264TIP3   OH252206   2.680   1.441   5.267  0.2956 -0.0415 -0.2793
10264TIP3    H152207   2.617   1.390   5.215  2.3298 -2.0605 -0.9644
10264TIP3    H252208   2.663   1.416   5.357 -1.3536  1.2545 -0.1747
10265TIP3   OH252209   5.524   1.400  11.003 -0.4235 -0.2828 -0.3331
10265TIP3    H152210   5.442   1.449  10.998  0.7795  1.7209 -2.4715
10265TIP3    H252211   5.532   1.357  10.917  1.0103  0.0298 -0.3779
10266TIP3   OH252212   2.809   3.935  15.289 -0.5285 -0.1793 -0.4371
10266TIP3    H152213   2.839   3.929  15.198  0.5792 -0.6362 -0.0454
10266TIP3    H252214   2.747   3.862  15.298 -1.7298  0.6962 -1.2075
10267TIP3   OH252215   5.548   0.866   4.706 -0.0671  0.2486  0.4349
10267TIP3    H152216   5.617   0.826   4.652 -0.3935 -0.7353  0.7259
10267TIP3    H252217   5.585   0.869   4.794 -0.3982 -0.2803  0.5915
10268TIP3   OH252218   6.781   4.071  14.075 -0.2271  0.0211 -0.0144
10268TIP3    H152219   6.776   4.152  14.026 -0.9909 -1.0924 -1.8790
10268TIP3    H252220   6.845   4.018  14.027 -0.2057 -0.7175  0.8010
10269TIP3   OH252221   0.717   1.618  16.089 -0.6801 -0.3098 -0.2625
10269TIP3    H152222   0.674   1.640  16.172 -0.1141 -1.8446  0.4759
10269TIP3    H252223   0.646   1.584  16.034 -0.8218 -0.6427  0.1176
10270TIP3   OH252224   0.111   1.319  10.538 -0.5967  0.1097  0.4022
10270TIP3    H152225   0.017   1.328  10.552 -0.7967 -1.3340  0.1258
10270TIP3    H252226   0.119   1.279  10.451  0.1222 -2.1486  1.4178
10271TIP3   OH252227   1.522   2.011  16.441 -0.1552 -0.1052  0.3528
10271TIP3    H152228   1.527   1.932  16.387 -1.4577  0.0296 -0.0003
10271TIP3    H252229   1.433   2.011  16.475  0.3169  0.3898  1.6480
10272TIP3   OH252230   6.061   4.801   6.074 -0.2829  0.2786 -0.1520
10272TIP3    H152231   6.059   4.868   6.006 -1.1246  0.9895  0.5553
10272TIP3    H252232   5.973   4.763   6.074  0.1473 -0.7543 -0.4616
10273TIP3   OH252233   3.561   6.655   5.423 -0.1857  0.0690  0.4859
10273TIP3    H152234   3.610   6.735   5.442 -2.2304  1.9307 -1.4240
10273TIP3    H252235   3.495   6.650   5.492  0.1759 -0.1923  0.8153
10274TIP3   OH252236   5.376   0.653   2.664 -0.7269 -0.3199 -0.2650
10274TIP3    H152237   5.391   0.651   2.569 -2.8184  0.7823 -0.6546
10274TIP3    H252238   5.452   0.606   2.700  0.6840  0.1746 -2.3846
10275TIP3   OH252239   1.192   5.092   0.826 -0.0930 -0.2374 -0.1228
10275TIP3    H152240   1.165   5.002   0.844  0.2566 -0.3944 -0.3791
10275TIP3    H252241   1.287   5.091   0.837 -0.1640  0.2800  0.6411
10276TIP3   OH252242   0.685   2.332  11.718  0.6164  0.8424  0.1600
10276TIP3    H152243   0.709   2.365  11.804 -0.2276 -0.3904  0.9025
10276TIP3    H252244   0.641   2.406  11.675  2.2312  1.8865  0.2374
10277TIP3   OH252245   2.403   4.884   3.679  0.8586 -0.0188 -0.2040
10277TIP3    H152246   2.464   4.945   3.637  0.3270 -0.4822 -1.7123
10277TIP3    H252247   2.407   4.805   3.626  0.7053 -0.9230  1.0736
10278TIP3   OH252248   6.090   0.703  16.435 -0.5004 -0.0854  0.1043
10278TIP3    H152249   6.124   0.781  16.480 -0.5186 -0.3448  0.5731
10278TIP3    H252250   6.165   0.671  16.384 -1.2483  1.8994 -2.4694
10279TIP3   OH252251   0.129   2.782   2.823 -0.5155  0.6214 -0.2583
10279TIP3    H152252   0.099   2.726   2.752  1.5873  1.1046 -1.6204
10279TIP3    H252253   0.176   2.854   2.780  2.1250  0.1678  1.5674
10280TIP3   OH252254   4.419   3.614   3.456 -0.2004 -0.0326  0.8175
10280TIP3    H152255   4.472   3.636   3.532  0.1311 -0.3703  0.6852
10280TIP3    H252256   4.351   3.681   3.454  0.8103  1.0222  0.4121
10281TIP3   OH252257   5.009   4.539  14.465 -0.0875 -0.2208 -0.2693
10281TIP3    H152258   5.020   4.457  14.513 -0.2108 -0.0725  0.0144
10281TIP3    H252259   4.914   4.546  14.452 -0.2276  0.6231  1.0346
10282TIP3   OH252260   3.738   4.723   4.622 -0.4031 -0.0297  0.5050
10282TIP3    H152261   3.776   4.636   4.636  1.3955  0.8697  1.6071
10282TIP3    H252262   3.720   4.756   4.710 -0.9833  0.7509  0.1051
10283TIP3   OH252263   5.480   2.981   1.711  0.4525 -0.4740  0.0489
10283TIP3    H152264   5.527   2.899   1.718  3.8310  1.3027 -0.0175
10283TIP3    H252265   5.534   3.044   1.759 -3.0269  1.3932  1.9193
10284TIP3   OH252266   2.406   0.768   5.699  0.7772 -0.3004 -0.1274
10284TIP3    H152267   2.315   0.797   5.704  1.3140  1.3532  0.8443
10284TIP3    H252268   2.426   0.737   5.787  1.2808 -0.1895 -0.1988
10285TIP3   OH252269   3.232   0.003  13.457 -0.8422  0.1125  0.2128
10285TIP3    H152270   3.278  -0.036  13.382 -1.1489  2.3201 -1.2306
10285TIP3    H252271   3.144   0.020  13.425 -1.8530 -1.4214  2.0256
10286TIP3   OH252272   2.396   4.291   0.837  0.6850 -0.1343 -0.2955
10286TIP3    H152273   2.429   4.373   0.800  0.0035  0.3418  0.1092
10286TIP3    H252274   2.367   4.240   0.761  1.0998  0.0093 -0.5494
10287TIP3   OH252275   1.606   1.937   3.406  0.2499  0.0290 -0.0960
10287TIP3    H152276   1.651   1.983   3.477 -0.8694 -1.4585  1.6631
10287TIP3    H252277   1.521   1.980   3.401  0.1592 -0.1676 -0.2264
10288TIP3   OH252278   2.170   6.078   0.915  0.5004  0.5322  0.7901
10288TIP3    H152279   2.096   6.023   0.889  1.2399 -1.4457  2.5460
10288TIP3    H252280   2.209   6.107   0.833 -0.0857 -1.4254 -0.2398
10289TIP3   OH252281   0.181   5.388   0.389  0.0285 -0.1821  0.0263
10289TIP3    H152282   0.204   5.359   0.301 -0.5426  0.6910 -0.4245
10289TIP3    H252283   0.099   5.343   0.409  0.3349 -0.6455  0.2576
10290TIP3   OH252284   5.006   3.838  13.200 -0.3748 -0.3366 -0.4854
10290TIP3    H152285   5.007   3.745  13.223 -2.8387 -0.4162 -0.4938
10290TIP3    H252286   4.954   3.842  13.120  1.6720  0.8339 -1.8386
10291TIP3   OH252287   4.978   6.515   3.807  0.6258 -0.1625 -0.3452
10291TIP3    H152288   4.888   6.514   3.842  0.0648  0.3351 -1.7050
10291TIP3    H252289   4.967   6.531   3.714  2.0892 -1.1497 -0.7262
10292TIP3   OH252290   0.018   0.684  11.692 -0.0656 -0.1182  0.3856
10292TIP3    H152291  -0.039   0.610  11.716  2.4540 -2.7569 -1.0403
10292TIP3    H252292   0.087   0.682  11.758 -0.8671  2.2280  1.3721
10293TIP3   OH252293   2.880   0.549  14.538  0.0243 -0.4997  0.2837
10293TIP3    H152294   2.854   0.624  14.483  0.5419 -0.7507 -0.3136
10293TIP3    H252295   2.920   0.487  14.477  1.5775 -0.3441  1.0811
10294TIP3   OH252296   2.760   2.442   4.537 -0.1423  0.3138 -0.9063
10294TIP3    H152297   2.823   2.464   4.605  0.1914  2.4767 -1.8371
10294TIP3    H252298   2.796   2.364   4.495  0.0734 -0.5487  0.8115
10295TIP3   OH252299   2.607   6.404  15.191  0.2678  0.5769  0.4874
10295TIP3    H152300   2.650   6.444  15.115 -0.3611  1.2504  0.4675
10295TIP3    H252301   2.558   6.476  15.231 -2.7170 -0.5292 -0.8155
10296TIP3   OH252302   6.767   4.496   2.712  0.1939  0.1844  0.7483
10296TIP3    H152303   6.715   4.548   2.650  0.8491  1.3530  1.1315
10296TIP3    H252304   6.795   4.420   2.663  0.2541  0.8292 -0.2412
10297TIP3   OH252305   3.090   2.791  10.479  0.6155  0.1007  0.6493
10297TIP3    H152306   3.037   2.716  10.452  1.0197 -0.5497  1.5832
10297TIP3    H252307   3.036   2.867  10.458  1.0540 -0.2973 -2.2491
10298TIP3   OH252308   4.978   1.211   1.612 -0.1490 -0.0489  0.1315
10298TIP3    H152309   4.897   1.252   1.642  1.2051  1.5146  1.8788
10298TIP3    H252310   4.971   1.211   1.516 -1.7872  0.9016  0.2166
10299TIP3   OH252311   1.372   3.295   5.158 -0.0604  0.9052  0.1989
10299TIP3    H152312   1.310   3.297   5.085  0.6016 -0.0711 -0.4175
10299TIP3    H252313   1.385   3.201   5.176  0.7960  1.1060  0.6845
10300TIP3   OH252314   2.267   6.690   5.080 -0.5229  0.6753 -0.3908
10300TIP3    H152315   2.227   6.776   5.070  1.6711  2.0507  1.6319
10300TIP3    H252316   2.244   6.662   5.168  1.9740  1.0938  0.4831
10301TIP3   OH252317   1.328   3.285   1.391 -0.1487  0.5471  0.1501
10301TIP3    H152318   1.244   3.312   1.428 -0.0088  0.6254  0.4123
10301TIP3    H252319   1.343   3.198   1.427 -0.3245  0.3518 -0.2415
10302TIP3   OH252320   1.183   4.847  13.968 -0.0307  0.1286  0.0060
10302TIP3    H152321   1.160   4.778  13.905  2.7135 -0.2997 -0.6664
10302TIP3    H252322   1.161   4.810  14.053 -0.4744 -0.7393 -0.4628
10303TIP3   OH252323   4.820   1.212  14.420  0.4211  0.1707 -0.2770
10303TIP3    H152324   4.826   1.177  14.509  0.3840  2.2063  0.5867
10303TIP3    H252325   4.903   1.257  14.406  0.0862  0.6039 -0.9247
10304TIP3   OH252326   3.462   2.683  11.882 -0.2127  0.4751  0.4242
10304TIP3    H152327   3.491   2.768  11.916  0.4073  0.0229  1.0435
10304TIP3    H252328   3.389   2.658  11.938 -0.1272  0.4054  0.5043
10305TIP3   OH252329   0.443   3.219  11.654 -0.3715  0.0911 -0.0350
10305TIP3    H152330   0.449   3.148  11.590  1.3244  0.3144 -0.1594
10305TIP3    H252331   0.490   3.292  11.615 -1.6536  1.1604  0.3148
10306TIP3   OH252332   3.312   4.946   5.792  0.4538 -0.6426 -0.7036
10306TIP3    H152333   3.302   4.976   5.701  0.9039  0.3062 -0.4551
10306TIP3    H252334   3.266   4.862   5.795  0.9920 -1.0197 -1.9806
10307TIP3   OH252335   1.968   2.294   5.093 -0.0181 -0.0163 -0.7168
10307TIP3    H152336   2.008   2.257   5.014 -0.9838  0.3867 -1.4270
10307TIP3    H252337   2.026   2.367   5.117  1.3027 -1.2885  0.0624
10308TIP3   OH252338   1.066   0.377  15.616  0.2367 -0.0781 -0.1902
10308TIP3    H152339   1.138   0.371  15.555  0.0222  1.6523 -0.6620
10308TIP3    H252340   1.034   0.467  15.608 -1.0799 -0.3879  1.0080
10309TIP3   OH252341   5.552   1.098   3.032 -0.1248  0.3030 -0.4882
10309TIP3    H152342   5.506   1.148   2.964 -0.9561 -1.9640 -1.6878
10309TIP3    H252343   5.487   1.035   3.063  0.6604  0.4139  1.4994
10310TIP3   OH252344   2.536   5.897   5.656  0.2447  0.2114 -0.1104
10310TIP3    H152345   2.559   5.838   5.585  0.1670 -0.6278  0.5470
10310TIP3    H252346   2.521   5.840   5.731  0.7894  1.1066  0.7059
10311TIP3   OH252347   2.338   4.367  11.776  0.0818 -0.0706  0.4009
10311TIP3    H152348   2.422   4.343  11.739 -0.9089 -0.0727 -2.0248
10311TIP3    H252349   2.304   4.286  11.813  0.1314 -0.6465 -0.7679
10312TIP3   OH252350   2.733   2.679  16.997 -0.1558 -0.8198  0.1832
10312TIP3    H152351   2.816   2.680  16.949 -0.0062 -0.4669  0.4451
10312TIP3    H252352   2.742   2.605  17.057 -0.1979 -1.0387 -0.0792
10313TIP3   OH252353   1.628   2.092  14.268  0.3362 -0.3093  0.4879
10313TIP3    H152354   1.699   2.123  14.212 -0.2941  0.3442  0.0371
10313TIP3    H252355   1.669   2.026  14.324  0.9368 -1.1267 -0.8699
10314TIP3   OH252356   4.469   1.220  14.440  0.0281 -0.1258 -0.2845
10314TIP3    H152357   4.509   1.134  14.432 -1.0591 -0.6495 -0.3782
10314TIP3    H252358   4.521   1.265  14.507 -1.0822 -1.9134  1.9222
10315TIP3   OH252359   0.332   1.165  16.059  0.5101  0.6271  0.5452
10315TIP3    H152360   0.373   1.139  16.141  0.8405  1.2557  0.5865
10315TIP3    H252361   0.307   1.256  16.072 -1.1912  0.1796  0.6225
10316TIP3   OH252362   0.841   2.434   1.068  0.4463 -0.5543  0.3315
10316TIP3    H152363   0.787   2.394   1.136 -2.2333  0.9764 -0.7514
10316TIP3    H252364   0.855   2.364   1.005 -1.2130 -0.7482  0.1354
10317TIP3   OH252365   0.990   1.405   1.274  0.1986  0.4122 -0.1771
10317TIP3    H152366   0.896   1.419   1.286  0.3654  1.1401  0.3306
10317TIP3    H252367   1.022   1.486   1.235  0.5964  0.1119 -0.4867
10318TIP3   OH252368   1.342   2.098  14.918 -0.1654  0.1121  0.1082
10318TIP3    H152369   1.275   2.083  14.851 -0.7525 -1.2007  0.9564
10318TIP3    H252370   1.326   2.187  14.948 -0.5714  0.3374 -0.7392
10319TIP3   OH252371   0.038   6.337   3.587 -0.0315 -0.7003  0.1717
10319TIP3    H152372   0.075   6.424   3.578 -2.4098  0.4655  0.7215
10319TIP3    H252373   0.113   6.279   3.602  1.7968  0.9033 -2.1580
10320TIP3   OH252374   3.972   3.271   4.650  0.7212 -0.6673  0.7623
10320TIP3    H152375   4.040   3.203   4.655  2.3946  0.9965  1.8116
10320TIP3    H252376   4.005   3.342   4.704 -0.8093  1.1700 -0.5878
10321TIP3   OH252377   0.177   4.101   3.781 -0.1071  0.2517 -0.3795
10321TIP3    H152378   0.142   4.012   3.779 -1.1258  0.6460 -1.3034
10321TIP3    H252379   0.165   4.129   3.872  0.1946 -0.5232 -0.0863
10322TIP3   OH252380   3.054   5.861  10.401 -0.0290 -0.4710  0.1842
10322TIP3    H152381   3.083   5.772  10.419  0.8105 -0.7547 -2.2314
10322TIP3    H252382   2.978   5.851  10.344 -0.4812  0.3754  0.6124
10323TIP3   OH252383   1.532   4.341  16.132  0.0915  0.3883 -0.1227
10323TIP3    H152384   1.562   4.367  16.219  0.0403  0.2798 -0.0726
10323TIP3    H252385   1.502   4.250  16.143  1.5588 -0.1949 -0.5720
10324TIP3   OH252386   1.867   4.898  11.171  0.0568 -0.2223 -0.2391
10324TIP3    H152387   1.851   4.992  11.158 -0.5047 -0.1820  0.6380
10324TIP3    H252388   1.781   4.862  11.193  0.7173 -0.3570  2.5397
10325TIP3   OH252389   5.006   0.068  10.502  0.1544  0.2700 -0.0835
10325TIP3    H152390   5.072   0.069  10.432  0.4381  0.0815  0.1821
10325TIP3    H252391   4.971   0.157  10.502  0.0004  0.2142 -0.6106
10326TIP3   OH252392   1.637   6.047  16.133 -0.0796 -0.5622 -0.0016
10326TIP3    H152393   1.611   5.955  16.142  2.5299 -1.4974 -1.1097
10326TIP3    H252394   1.675   6.069  16.219  0.4147 -0.9254 -0.1224
10327TIP3   OH252395   0.415   2.445  13.640  0.5681  0.1769 -0.5449
10327TIP3    H152396   0.321   2.449  13.620  0.8908 -0.7695 -2.4597
10327TIP3    H252397   0.457   2.485  13.564  1.7541  0.0671  0.0347
10328TIP3   OH252398   5.520   2.349   1.448 -0.1387  0.1910  0.4046
10328TIP3    H152399   5.464   2.272   1.456 -1.7376  0.7620 -3.0837
10328TIP3    H252400   5.459   2.421   1.431  1.4378  1.8263  1.3366
10329TIP3   OH252401   4.491   4.329   0.980  0.6526  0.4824  0.1920
10329TIP3    H152402   4.425   4.376   0.928 -0.5128  0.6933  1.8009
10329TIP3    H252403   4.497   4.243   0.938 -1.7976 -0.0957  0.8467
10330TIP3   OH252404   5.558   0.612  10.949 -0.5666 -0.5373  0.2356
10330TIP3    H152405   5.626   0.581  10.889 -0.6671 -0.2148 -0.0490
10330TIP3    H252406   5.530   0.696  10.912  0.9608  0.8132  1.9724
10331TIP3   OH252407   3.803   3.423   0.594  0.4997  0.1082  0.1539
10331TIP3    H152408   3.854   3.453   0.670 -0.5772 -0.1661  1.0072
10331TIP3    H252409   3.737   3.490   0.581 -0.4629 -0.7285  0.6095
10332TIP3   OH252410   5.752   0.880   0.556 -0.4227  0.0032 -0.2649
10332TIP3    H152411   5.734   0.791   0.586  1.2128  0.3234  1.9157
10332TIP3    H252412   5.845   0.880   0.534 -0.4722  1.0929 -0.5680
10333TIP3   OH252413   2.601   2.148   4.440 -0.2779  0.3252 -0.3699
10333TIP3    H152414   2.549   2.192   4.507 -0.1308  1.0312 -0.7000
10333TIP3    H252415   2.566   2.183   4.357 -0.3005 -0.3539 -0.6482
10334TIP3   OH252416   4.906   1.517  14.107 -0.3861 -0.2926  0.2020
10334TIP3    H152417   4.988   1.566  14.111 -0.4049 -0.3308  1.6877
10334TIP3    H252418   4.838   1.584  14.105 -0.3471 -0.2583  0.0313
10335TIP3   OH252419   0.652   6.454   2.327 -0.3333  0.2359 -0.0295
10335TIP3    H152420   0.691   6.541   2.316  1.0372 -0.3020  0.4294
10335TIP3    H252421   0.702   6.414   2.398 -1.1214 -0.8404 -0.0568
10336TIP3   OH252422   2.769   6.149  15.623  0.1026  0.3078 -0.5458
10336TIP3    H152423   2.695   6.209  15.611  0.0530  0.3955  0.1484
10336TIP3    H252424   2.747   6.073  15.570  0.0121  0.7680 -1.1734
10337TIP3   OH252425   5.515   2.295   1.879 -0.7819  0.4498  0.0485
10337TIP3    H152426   5.518   2.378   1.927  0.1437  2.2376 -2.8255
10337TIP3    H252427   5.606   2.271   1.866 -1.0378 -0.7462  0.3737
10338TIP3   OH252428   1.752   4.656   0.983 -0.1654 -0.2250 -0.1177
10338TIP3    H152429   1.807   4.584   0.952 -0.4467 -1.4855  2.0163
10338TIP3    H252430   1.680   4.660   0.921  0.0082 -1.6371 -0.4512
10339TIP3   OH252431   4.391   4.334   5.540 -0.7883 -0.1153 -0.2044
10339TIP3    H152432   4.322   4.271   5.561 -0.7878  0.2716  1.0319
10339TIP3    H252433   4.346   4.419   5.543 -0.2266  0.1573  0.8175
10340TIP3   OH252434   0.092   6.606  11.329 -0.1258  0.3403  0.1256
10340TIP3    H152435   0.029   6.560  11.385 -0.3444 -0.0971 -0.4687
10340TIP3    H252436   0.093   6.555  11.248  0.0563  1.0684 -0.3322
10341TIP3   OH252437   2.988   2.547   1.373  0.2353  0.5424  0.2889
10341TIP3    H152438   2.927   2.505   1.312  0.3182 -0.9444  1.1570
10341TIP3    H252439   3.073   2.540   1.330  0.0593  0.9563 -0.1256
10342TIP3   OH252440   3.366   0.694   1.961  0.2765  0.0876 -0.8356
10342TIP3    H152441   3.357   0.611   2.008 -0.3088  0.8691  0.5052
10342TIP3    H252442   3.279   0.732   1.965  0.3919  0.4900 -2.0003
10343TIP3   OH252443   3.434   4.391   3.051 -0.1111 -0.5208  0.2646
10343TIP3    H152444   3.507   4.409   2.993 -0.9723  2.5302 -0.0222
10343TIP3    H252445   3.471   4.393   3.139  0.0213  2.5037  0.2273
10344TIP3   OH252446   6.260   0.436   4.945 -0.8479 -0.3122 -0.2464
10344TIP3    H152447   6.265   0.479   4.860  1.1952  0.6038  0.2723
10344TIP3    H252448   6.180   0.471   4.985 -1.5027 -0.2987 -1.5286
10345TIP3   OH252449   1.691   4.142   5.274  0.2890 -0.2743  0.0698
10345TIP3    H152450   1.774   4.097   5.265  0.4178 -0.2513  1.0099
10345TIP3    H252451   1.711   4.220   5.325  0.0089  0.6988 -1.2615
10346TIP3   OH252452   1.348   4.641  11.145  0.1691  0.9528  0.3522
10346TIP3    H152453   1.441   4.654  11.125  0.5071 -0.2986  1.0140
10346TIP3    H252454   1.303   4.712  11.098  0.9252 -1.2019 -4.1770
10347TIP3   OH252455   0.817   5.872   1.435  0.2415  0.7846 -0.7114
10347TIP3    H152456   0.812   5.944   1.372 -0.4987  1.0162 -0.3939
10347TIP3    H252457   0.890   5.896   1.493 -0.7375  1.8847  0.1132
10348TIP3   OH252458   4.103   4.600  13.234 -0.2722  0.2851  0.3807
10348TIP3    H152459   4.148   4.574  13.315  1.9377 -1.2090 -1.2130
10348TIP3    H252460   4.016   4.561  13.242  0.4555 -1.2503  1.3484
10349TIP3   OH252461   3.788   1.150  14.902  0.6105  0.1077  0.7671
10349TIP3    H152462   3.783   1.083  14.970 -0.5940  1.6087  2.2334
10349TIP3    H252463   3.867   1.199  14.923  0.9574 -0.2328  0.2763
10350TIP3   OH252464   0.564   3.356  15.185  0.2181 -0.1685 -0.2449
10350TIP3    H152465   0.520   3.361  15.270  0.6055  0.4227 -0.0711
10350TIP3    H252466   0.637   3.296  15.199 -0.3778 -0.9627 -0.4702
10351TIP3   OH252467   5.370   2.835   0.155  0.9876  0.0639 -0.7416
10351TIP3    H152468   5.350   2.746   0.126  0.9161  0.5813 -2.4060
10351TIP3    H252469   5.464   2.845   0.137  1.4539 -0.2921  1.2615
10352TIP3   OH252470   4.292   2.138  14.486 -0.2259 -0.7333  0.0870
10352TIP3    H152471   4.317   2.149  14.578 -0.3943 -1.0443  0.1717
10352TIP3    H252472   4.309   2.046  14.468 -1.4353 -0.9875  0.1802
10353TIP3   OH252473   3.392   2.026   1.269 -0.1155 -0.2793 -0.1068
10353TIP3    H152474   3.325   2.087   1.300  0.7078  0.0093  1.2040
10353TIP3    H252475   3.435   2.072   1.196 -0.1500  0.3005  0.2354
10354TIP3   OH252476   3.169   1.214  15.574  0.5806 -0.2180 -0.3840
10354TIP3    H152477   3.194   1.306  15.575 -0.0722 -0.0180  1.5837
10354TIP3    H252478   3.224   1.175  15.506  1.8890  1.3474 -0.2826
10355TIP3   OH252479   1.213   6.161   4.463 -0.5062  0.0942  0.6202
10355TIP3    H152480   1.207   6.179   4.369  2.2833 -1.3594  0.0550
10355TIP3    H252481   1.294   6.204   4.490 -1.0503  0.1363  2.2941
10356TIP3   OH252482   2.236   4.935   0.425  0.2025 -0.5192  0.2116
10356TIP3    H152483   2.217   4.956   0.517  0.9270  1.0482  0.0301
10356TIP3    H252484   2.331   4.940   0.418  0.2038 -1.3042 -0.4834
10357TIP3   OH252485   5.666   5.920   3.636 -0.5582 -0.1892 -0.0082
10357TIP3    H152486   5.684   6.012   3.653  0.0174 -0.6709  2.2672
10357TIP3    H252487   5.747   5.887   3.597 -0.6227  0.1433 -0.4398
10358TIP3   OH252488   1.612   3.277   1.945 -0.5215 -0.5821 -0.3122
10358TIP3    H152489   1.636   3.196   1.899 -0.8297 -1.3807  0.8828
10358TIP3    H252490   1.567   3.329   1.879 -2.3843 -2.3698 -0.5609
10359TIP3   OH252491   4.065   4.746   1.321 -0.5576 -0.3563 -0.2437
10359TIP3    H152492   4.094   4.673   1.375  0.0968  0.0960  0.0201
10359TIP3    H252493   4.129   4.751   1.249  1.3822  1.9722  1.4703
10360TIP3   OH252494   4.752   1.315  15.583 -0.1240 -0.5222 -0.6523
10360TIP3    H152495   4.720   1.229  15.556  0.2818 -0.1154 -2.5416
10360TIP3    H252496   4.711   1.330  15.668 -1.4086 -1.9156 -0.9845
10361TIP3   OH252497   1.178   3.558   1.301 -0.5246 -0.0923 -0.0411
10361TIP3    H152498   1.162   3.475   1.345 -0.4425 -0.7483 -1.2033
10361TIP3    H252499   1.180   3.536   1.208  1.5393  0.8804 -0.2676
10362TIP3   OH252500   1.569   4.593   1.430 -0.0955 -0.6914 -0.3190
10362TIP3    H152501   1.478   4.585   1.402 -0.1864 -0.3690 -0.1156
10362TIP3    H252502   1.568   4.662   1.496  0.1914 -1.1537  0.1750
10363TIP3   OH252503   3.201   1.307  10.755 -0.2927 -0.0720 -0.1652
10363TIP3    H152504   3.296   1.303  10.769 -0.2360  1.7291  0.2904
10363TIP3    H252505   3.177   1.219  10.728  1.1630 -1.1628  1.8372
10364TIP3   OH252506   4.330   4.586   2.790 -0.2520 -0.8660  0.2047
10364TIP3    H152507   4.265   4.639   2.745  1.4380  0.6137 -0.6112
10364TIP3    H252508   4.356   4.639   2.866 -0.7377 -1.9062  1.1213
10365TIP3   OH252509   6.729   3.532  13.258  0.1643  0.6614 -0.9142
10365TIP3    H152510   6.664   3.462  13.264 -0.0566  0.9212 -0.1520
10365TIP3    H252511   6.728   3.573  13.345  2.3157 -0.1849 -0.4237
10366TIP3   OH252512   3.347   0.386   0.812 -0.1249 -0.1219 -0.2215
10366TIP3    H152513   3.340   0.376   0.907 -0.8186 -0.5255 -0.3072
10366TIP3    H252514   3.358   0.297   0.779  0.6528  0.0627 -0.4898
10367TIP3   OH252515   2.693   4.571   0.266  0.3575  0.0833 -0.0660
10367TIP3    H152516   2.771   4.548   0.316  0.9287  1.2131 -0.4086
10367TIP3    H252517   2.651   4.487   0.246  0.6988 -0.4486  1.3587
10368TIP3   OH252518   5.202   3.330   5.034  0.1349  0.0844  0.9651
10368TIP3    H152519   5.205   3.301   5.125  0.0918  0.2888  1.0320
10368TIP3    H252520   5.277   3.390   5.026 -0.0979  0.3773  0.9731
10369TIP3   OH252521   3.554   5.778   5.671 -0.4916 -0.3240 -0.0939
10369TIP3    H152522   3.480   5.835   5.690 -0.0712  0.0967  0.2726
10369TIP3    H252523   3.594   5.760   5.756  1.5197  1.7281 -0.5322
10370TIP3   OH252524   0.180   6.014  15.904 -0.1815 -0.7486  0.3569
10370TIP3    H152525   0.256   6.061  15.869 -0.1723 -0.3696  0.8594
10370TIP3    H252526   0.201   6.002  15.997 -0.0571 -2.0171  0.1775
10371TIP3   OH252527   3.368   2.454   1.025  0.3911  0.1518  0.1629
10371TIP3    H152528   3.276   2.429   1.013  0.2326  1.2886 -1.3145
10371TIP3    H252529   3.365   2.545   1.053  1.0609  1.0785 -2.5000
10372TIP3   OH252530   5.643   6.732   3.826 -0.2209 -0.6153 -0.0526
10372TIP3    H152531   5.673   6.819   3.852  0.8093 -0.2693 -2.1526
10372TIP3    H252532   5.656   6.678   3.904 -0.8065  1.0626  1.2630
10373TIP3   OH252533   6.754   1.773  11.254  0.6027  0.3525  0.7741
10373TIP3    H152534   6.814   1.738  11.187 -1.9316  0.0916 -1.5330
10373TIP3    H252535   6.759   1.868  11.244 -1.0812  0.3182 -1.2233
10374TIP3   OH252536   0.783   2.673  13.861 -0.2014 -0.0225  0.1537
10374TIP3    H152537   0.832   2.604  13.906  1.0797 -2.5104 -4.4049
10374TIP3    H252538   0.748   2.630  13.783 -1.1901  4.0466 -1.8819
10375TIP3   OH252539   6.697   1.138  13.945  0.6054 -0.2410  0.1458
10375TIP3    H152540   6.752   1.210  13.914 -1.6449  1.8306  0.6706
10375TIP3    H252541   6.659   1.101  13.866  0.9225 -0.1366 -0.0571
10376TIP3   OH252542   6.507   0.145  11.446 -0.5797 -0.5417 -0.2226
10376TIP3    H152543   6.531   0.231  11.482  1.0948 -0.3356 -1.7424
10376TIP3    H252544   6.572   0.085  11.481 -1.0503 -0.9927 -0.1072
10377TIP3   OH252545   0.831   5.775  12.054  0.4676  0.2942 -0.1496
10377TIP3    H152546   0.909   5.776  12.109  1.0569  0.5443 -0.9663
10377TIP3    H252547   0.803   5.867  12.052 -0.9004 -0.0461  1.5714
10378TIP3   OH252548   3.681   6.771  15.854  0.1250  0.1158 -0.5815
10378TIP3    H152549   3.692   6.677  15.838  0.2046 -0.5056  2.4291
10378TIP3    H252550   3.768   6.800  15.883 -0.0516  0.9777 -0.8964
10379TIP3   OH252551   6.135   1.756   0.648  0.1018  0.2936  0.0387
10379TIP3    H152552   6.070   1.747   0.578  0.6940 -1.5207 -0.3255
10379TIP3    H252553   6.218   1.766   0.601  0.3060  0.9009  0.5092
10380TIP3   OH252554   1.924   4.790  12.560 -0.1782  0.0458 -0.2944
10380TIP3    H152555   1.966   4.874  12.540  0.3313 -0.0397  0.3935
10380TIP3    H252556   1.987   4.724  12.532 -0.7791 -0.1283 -1.2796
10381TIP3   OH252557   3.144   4.082   0.883 -1.0753 -0.0923  0.5634
10381TIP3    H152558   3.058   4.084   0.927 -1.6636 -1.7879 -0.3987
10381TIP3    H252559   3.185   4.001   0.915 -0.9397 -0.6362 -0.9247
10382TIP3   OH252560   1.042   6.455  13.429  0.3665 -0.1608 -0.1143
10382TIP3    H152561   1.125   6.427  13.392 -0.1187  0.1317 -1.4875
10382TIP3    H252562   1.021   6.536  13.382 -1.2061 -0.8072 -0.5872
10383TIP3   OH252563   6.555   3.516  12.775  0.1757 -0.0959  0.2341
10383TIP3    H152564   6.478   3.562  12.742 -0.4769 -0.4087  1.2481
10383TIP3    H252565   6.613   3.507  12.700 -0.2050  1.3164 -0.2499
10384TIP3   OH252566   4.065   2.876   5.627  0.4917 -0.4407 -0.9972
10384TIP3    H152567   4.136   2.876   5.691  0.2983 -0.4856 -0.7824
10384TIP3    H252568   4.058   2.967   5.599 -1.7575  0.3282  1.6418
10385TIP3   OH252569   3.202   2.782   4.959  0.0060  0.1907 -0.1741
10385TIP3    H152570   3.241   2.746   5.039 -0.2911 -1.0485 -0.5572
10385TIP3    H252571   3.260   2.854   4.935 -0.3098  1.0834  1.5443
10386TIP3   OH252572   1.974   1.864  11.887 -0.4876 -0.2880 -0.1445
10386TIP3    H152573   2.011   1.950  11.864  1.8959 -1.4076 -0.7752
10386TIP3    H252574   1.978   1.861  11.982  0.0131  0.0791 -0.1448
10387TIP3   OH252575   2.852   1.321   4.912  0.3485  0.7164  0.1894
10387TIP3    H152576   2.923   1.272   4.953  0.7483 -0.4851 -1.8237
10387TIP3    H252577   2.774   1.294   4.960  0.8230 -0.4394  0.3475
10388TIP3   OH252578   0.061   2.444  14.125  0.3073 -0.0264  0.7539
10388TIP3    H152579  -0.007   2.496  14.081  0.6123  0.7659  1.1968
10388TIP3    H252580   0.141   2.496  14.113  0.6012 -0.3535  1.2882
10389TIP3   OH252581   0.721   2.694  17.171 -0.1823  0.1755  0.2349
10389TIP3    H152582   0.656   2.688  17.100  0.3745 -1.6552 -0.1776
10389TIP3    H252583   0.793   2.744  17.133 -0.7703  1.0392  0.2351
10390TIP3   OH252584   0.598   2.976  13.818  0.1348  0.3251 -0.4455
10390TIP3    H152585   0.655   3.053  13.807 -0.5127  0.7734 -0.7101
10390TIP3    H252586   0.609   2.927  13.736  0.8715 -0.0921 -0.1071
10391TIP3   OH252587   3.720   0.957   6.520 -0.2341 -0.6626  0.8054
10391TIP3    H152588   3.751   0.953   6.610  0.5281  0.8002  0.6339
10391TIP3    H252589   3.758   1.037   6.485 -1.1299 -0.8181 -0.5967
10392TIP3   OH252590   3.716   5.740   4.572 -0.6608 -0.0379 -0.3809
10392TIP3    H152591   3.697   5.832   4.592  1.0583  0.8048 -2.2400
10392TIP3    H252592   3.672   5.725   4.488  0.4807 -0.3536 -0.9395
10393TIP3   OH252593   3.522   1.485  12.682  0.0315  0.0331  0.7532
10393TIP3    H152594   3.491   1.520  12.598 -0.8624 -0.7363  0.7447
10393TIP3    H252595   3.520   1.390  12.670 -0.2762 -0.0893  1.7139
10394TIP3   OH252596   0.419   4.059   0.666  0.1444 -0.2862 -0.9812
10394TIP3    H152597   0.443   3.978   0.620 -2.8147  0.1739 -3.6754
10394TIP3    H252598   0.325   4.050   0.683 -0.4165  2.7174 -1.8286
10395TIP3   OH252599   6.206   4.100   2.783  0.1940 -0.2960  0.0897
10395TIP3    H152600   6.272   4.128   2.846 -0.6963 -0.3620  1.0628
10395TIP3    H252601   6.194   4.006   2.801  2.5420 -1.2693 -2.5804
10396TIP3   OH252602   2.355   3.680  16.131 -0.7777  0.0861  0.5567
10396TIP3    H152603   2.419   3.629  16.182 -2.0305 -0.1068  2.0265
10396TIP3    H252604   2.323   3.745  16.193 -1.5226  0.5979 -0.3547
10397TIP3   OH252605   5.291   4.094   3.213 -0.1794  0.2234 -0.0294
10397TIP3    H152606   5.310   4.120   3.303 -0.5207  0.1366  0.0680
10397TIP3    H252607   5.377   4.088   3.171  0.0293 -0.5083  0.5001
10398TIP3   OH252608   5.601   3.142  13.800 -0.1326  0.2649 -0.2372
10398TIP3    H152609   5.695   3.158  13.812  0.2370 -1.2978 -0.8955
10398TIP3    H252610   5.566   3.139  13.889  0.7589 -0.8989  0.0878
10399TIP3   OH252611   6.418   2.770   5.124  0.0344  0.5846 -0.1563
10399TIP3    H152612   6.344   2.793   5.069  0.7499  0.9695 -0.9869
10399TIP3    H252613   6.456   2.692   5.081  0.5882  0.8801 -0.2144
10400TIP3   OH252614   1.744   2.577  12.742  0.0882 -0.2031  0.1765
10400TIP3    H152615   1.703   2.632  12.675 -1.7550 -0.8960  0.6642
10400TIP3    H252616   1.763   2.637  12.814 -2.3528 -0.2001  0.8995
10401TIP3   OH252617   1.701   6.201   3.747  0.8185 -0.4144  0.1419
10401TIP3    H152618   1.765   6.207   3.675 -0.8266 -1.1769 -1.4750
10401TIP3    H252619   1.689   6.107   3.760  0.7503 -0.2754  1.1184
10402TIP3   OH252620   6.146   3.706  13.378 -0.2021  0.0405 -0.0644
10402TIP3    H152621   6.166   3.708  13.471  0.9283  1.8114 -0.3147
10402TIP3    H252622   6.079   3.773  13.366  1.9755  2.1659 -0.9761
10403TIP3   OH252623   1.755   2.484  14.273 -0.5762  0.2569 -0.5770
10403TIP3    H152624   1.810   2.552  14.232 -1.0662 -0.0619 -1.8076
10403TIP3    H252625   1.682   2.532  14.311 -0.0228  0.5756  0.1272
10404TIP3   OH252626   2.169   6.788  10.374 -0.0367  0.4105  0.1017
10404TIP3    H152627   2.200   6.705  10.410 -0.8247 -0.5821 -1.4362
10404TIP3    H252628   2.074   6.784  10.380 -0.2276  0.0965 -2.2179
10405TIP3   OH252629   1.870   6.737   4.850  0.6628  0.0793 -0.3881
10405TIP3    H152630   1.861   6.645   4.873  0.6351 -0.0426 -0.8748
10405TIP3    H252631   1.832   6.784   4.924 -2.0497 -0.3557 -1.3766
10406TIP3   OH252632   3.138   4.056  15.458 -0.0474 -0.6622  0.6605
10406TIP3    H152633   3.098   3.984  15.507 -0.9982 -1.2684 -0.9271
10406TIP3    H252634   3.224   4.023  15.434  0.5480 -0.2526  2.0870
10407TIP3   OH252635   4.787   0.730  16.067  0.1583  0.6065 -0.4062
10407TIP3    H152636   4.762   0.747  15.976 -3.8374  0.2131  0.4208
10407TIP3    H252637   4.797   0.635  16.071 -4.3890 -0.0341  0.3303
10408TIP3   OH252638   5.690   5.818   3.264 -0.3285  0.0151 -0.4626
10408TIP3    H152639   5.740   5.737   3.250  0.4036  0.5445 -0.9999
10408TIP3    H252640   5.630   5.796   3.335  0.9597 -0.5385  0.5180
10409TIP3   OH252641   3.873   1.373   2.292  0.6989  0.2324 -0.0110
10409TIP3    H152642   3.833   1.369   2.205  0.5495  1.0790  0.0095
10409TIP3    H252643   3.893   1.466   2.305 -0.6763  0.3667  1.4786
10410TIP3   OH252644   4.689   3.107   3.627 -0.4204 -0.0536 -0.0998
10410TIP3    H152645   4.751   3.170   3.589 -0.8278  0.4388  0.0365
10410TIP3    H252646   4.734   3.074   3.705 -0.1165 -0.0954 -0.2892
10411TIP3   OH252647   5.744   6.427  15.940 -0.4266 -0.5633  0.2636
10411TIP3    H152648   5.753   6.484  15.864  0.1668 -2.0200 -0.7939
10411TIP3    H252649   5.651   6.425  15.959 -0.5928 -0.2933 -0.5197
10412TIP3   OH252650   4.623   5.778   0.274 -0.1718  0.0691 -0.9096
10412TIP3    H152651   4.717   5.796   0.283 -0.1014 -0.2267 -1.0345
10412TIP3    H252652   4.619   5.699   0.222 -0.5445  1.1038 -2.5102
10413TIP3   OH252653   1.745   1.154   1.086  0.1141  0.2787 -0.6721
10413TIP3    H152654   1.664   1.176   1.040 -0.6802 -2.7274 -0.9600
10413TIP3    H252655   1.715   1.119   1.170  1.1271 -0.3614 -0.5655
10414TIP3   OH252656   1.284   1.136   5.076  0.2502 -0.2110 -0.5982
10414TIP3    H152657   1.246   1.074   5.014 -0.9007  0.5225 -0.6503
10414TIP3    H252658   1.219   1.145   5.145  1.5323 -1.0573  0.7906
10415TIP3   OH252659   4.427   3.850  15.793 -0.2925  0.3584 -0.1592
10415TIP3    H152660   4.462   3.929  15.833 -0.7850  1.7492 -2.2757
10415TIP3    H252661   4.358   3.821  15.853 -0.8488  2.1903  0.1561
10416TIP3   OH252662   5.740   6.560   2.836  0.1556 -0.6005  0.4017
10416TIP3    H152663   5.695   6.527   2.758  2.2635 -1.5597 -0.5185
10416TIP3    H252664   5.676   6.554   2.906 -0.5749 -3.7142 -0.4034
10417TIP3   OH252665   3.301   5.092   1.758 -0.0943 -0.3409  0.2455
10417TIP3    H152666   3.251   5.049   1.827  0.1027 -0.0427  0.5788
10417TIP3    H252667   3.359   5.153   1.804 -0.5089  0.4334 -0.2146
10418TIP3   OH252668   2.263   3.797  16.351 -0.2722 -0.1379  0.4886
10418TIP3    H152669   2.333   3.816  16.413 -0.1619 -0.8484  0.5821
10418TIP3    H252670   2.182   3.805  16.402 -0.1294 -2.0466  1.0885
10419TIP3   OH252671   5.051   5.852   1.713 -0.0977  0.1244  0.5147
10419TIP3    H152672   5.006   5.894   1.787 -1.6250 -1.0258  0.2937
10419TIP3    H252673   5.057   5.760   1.739 -0.7669 -0.3258 -0.8113
10420TIP3   OH252674   0.755   0.075  15.310  0.2513  0.3935 -0.4098
10420TIP3    H152675   0.688   0.144  15.316 -0.4633 -0.0789 -2.2478
10420TIP3    H252676   0.835   0.118  15.341 -0.5213  1.5180  0.1309
10421TIP3   OH252677   1.640   2.991  12.654  0.1563  0.1888 -0.0630
10421TIP3    H152678   1.571   3.058  12.658 -0.5080 -0.4306 -0.5998
10421TIP3    H252679   1.675   2.986  12.742  0.5530  1.5834 -0.1295
10422TIP3   OH252680   6.115   1.350  10.258  0.0396  0.2869 -0.5400
10422TIP3    H152681   6.185   1.285  10.258  0.6566  0.9405 -0.2790
10422TIP3    H252682   6.144   1.417  10.319 -0.4723  0.9326 -0.9926
10423TIP3   OH252683   6.697   6.486  12.952  0.0788  0.4271 -0.5842
10423TIP3    H152684   6.630   6.554  12.950 -0.3058  0.1392  1.1089
10423TIP3    H252685   6.694   6.451  13.041  0.7934 -1.2854 -1.1716
10424TIP3   OH252686   4.667   2.757   0.335  0.3398  0.4422 -0.0429
10424TIP3    H152687   4.626   2.817   0.398 -0.2179 -0.4302  0.4426
10424TIP3    H252688   4.616   2.768   0.255 -2.0956 -1.8569  1.0087
10425TIP3   OH252689   4.983   2.234   0.240  0.2575 -0.0150 -0.6381
10425TIP3    H152690   4.904   2.252   0.292  0.0625 -2.2069 -0.0438
10425TIP3    H252691   5.017   2.320   0.217 -1.1304  1.0171  0.9064
10426TIP3   OH252692   3.244   4.169  16.497  0.1172  0.2913 -0.5260
10426TIP3    H152693   3.332   4.171  16.535  0.0382  0.0159 -0.3220
10426TIP3    H252694   3.225   4.260  16.475  0.0688  0.5025  0.3266
10427TIP3   OH252695   4.146   6.695  11.424 -0.4352  0.3401  0.3123
10427TIP3    H152696   4.084   6.683  11.352  1.1270  0.8282 -1.1698
10427TIP3    H252697   4.099   6.750  11.487 -2.6493 -1.8709  0.7902
10428TIP3   OH252698   4.233   3.388  12.533  0.5012  0.3667  0.0720
10428TIP3    H152699   4.262   3.448  12.464  0.4149  0.2523 -0.0648
10428TIP3    H252700   4.312   3.370  12.584  0.5140  0.6476  0.1553
10429TIP3   OH252701   0.621   6.647  15.241 -0.3042 -0.3594 -0.1014
10429TIP3    H152702   0.684   6.710  15.277  1.2283 -2.9321  2.1055
10429TIP3    H252703   0.535   6.683  15.264  0.5392 -0.4060  3.9317
10430TIP3   OH252704   6.773   2.568  16.248  0.1910 -0.9350 -0.0562
10430TIP3    H152705   6.749   2.505  16.316  0.8815  0.3748  1.4639
10430TIP3    H252706   6.809   2.514  16.177  0.7842 -2.2723  1.2006
10431TIP3   OH252707   2.424   2.508   6.689 -0.5424  0.0334 -0.2675
10431TIP3    H152708   2.410   2.494   6.595  3.0717 -0.4515 -0.8758
10431TIP3    H252709   2.518   2.521   6.697 -0.3956 -2.0851  3.5774
10432TIP3   OH252710   4.316   6.691   2.415 -0.0929 -0.0351  0.7695
10432TIP3    H152711   4.260   6.614   2.405 -2.0299  1.2690  1.1016
10432TIP3    H252712   4.353   6.682   2.503  1.0785 -1.3951  0.1891
10433TIP3   OH252713   3.770   6.425   5.528  0.4603  0.3167 -0.0941
10433TIP3    H152714   3.783   6.386   5.441  1.7684 -0.3894  0.3755
10433TIP3    H252715   3.808   6.360   5.588 -0.6738  0.6703  1.0264
10434TIP3   OH252716   2.209   4.755   1.221  0.4412 -0.2478 -0.2993
10434TIP3    H152717   2.123   4.736   1.258  0.1796 -2.5457 -1.8589
10434TIP3    H252718   2.266   4.765   1.296 -0.5750 -1.9588  0.7541
10435TIP3   OH252719   2.667   4.154   0.106  0.1545  0.0325  0.1381
10435TIP3    H152720   2.659   4.249   0.098  1.2578  0.0250 -1.4271
10435TIP3    H252721   2.580   4.125   0.135 -1.0153  1.2875 -1.9026
10436TIP3   OH252722   0.335   4.918   3.485 -0.1831  0.2266 -0.2098
10436TIP3    H152723   0.371   4.935   3.398 -0.5419 -0.4862 -0.5044
10436TIP3    H252724   0.241   4.911   3.472 -0.0817 -1.8913 -0.1236
10437TIP3   OH252725   2.372   2.293   5.228  0.3058  0.2023  0.0911
10437TIP3    H152726   2.381   2.361   5.161  0.5345  0.7751  0.6881
10437TIP3    H252727   2.301   2.237   5.196 -1.7410  2.2347  0.8245
10438TIP3   OH252728   1.216   2.462  16.780 -0.3013 -0.0212 -0.5098
10438TIP3    H152729   1.247   2.552  16.780  1.1542 -0.4498 -2.5050
10438TIP3    H252730   1.138   2.463  16.834  0.4715  2.1379  0.6682
10439TIP3   OH252731   5.794   4.657  13.782 -0.4755  0.2771 -0.3051
10439TIP3    H152732   5.784   4.600  13.706  1.2106  0.6773 -0.8695
10439TIP3    H252733   5.725   4.628  13.842 -1.5639 -0.3450 -1.7761
10440TIP3   OH252734   4.639   2.092  11.619 -0.2554 -0.2321 -0.7345
10440TIP3    H152735   4.636   2.182  11.652  1.1935 -0.3603 -0.1831
10440TIP3    H252736   4.671   2.100  11.530  0.0153 -0.2060 -0.6360
10441TIP3   OH252737   1.055   4.239   0.141 -0.0301 -0.4683  0.4608
10441TIP3    H152738   1.071   4.332   0.122 -3.6072  0.2902  0.3836
10441TIP3    H252739   1.030   4.237   0.234 -2.8821 -0.7463 -0.2095
10442TIP3   OH252740   6.257   4.391  15.111 -0.3999 -0.8264  0.0366
10442TIP3    H152741   6.295   4.304  15.122 -0.2788 -1.0883 -2.0430
10442TIP3    H252742   6.189   4.396  15.179  0.6155 -1.9159  1.1786
10443TIP3   OH252743   3.074   5.756   0.818  0.1348 -0.5801  0.5855
10443TIP3    H152744   3.115   5.677   0.855 -0.5661 -0.9346  0.6225
10443TIP3    H252745   3.015   5.722   0.750  0.6519 -0.0100 -0.1649
10444TIP3   OH252746   1.077   0.231   1.499  0.3047  0.4152  0.5174
10444TIP3    H152747   1.103   0.143   1.472  1.4075  0.3539  1.6602
10444TIP3    H252748   0.996   0.217   1.549  0.1657  0.1236  0.2176
10445TIP3   OH252749   1.368   5.881   1.733  0.5447  0.3081  0.0809
10445TIP3    H152750   1.394   5.946   1.668  2.8498  0.7496  1.3158
10445TIP3    H252751   1.360   5.930   1.814 -1.2365 -0.4080  0.3669
10446TIP3   OH252752   2.257   6.783  12.862 -0.0046  0.5955  0.1480
10446TIP3    H152753   2.179   6.784  12.918 -1.0687  1.2501 -1.2966
10446TIP3    H252754   2.254   6.865  12.814  1.7015  0.7213  0.1826
10447TIP3   OH252755   1.921   0.429  12.578  0.2906  0.2477 -0.1247
10447TIP3    H152756   1.881   0.503  12.533  0.4069  0.2750 -0.1841
10447TIP3    H252757   1.923   0.359  12.512  1.8201  0.7373 -0.6368
10448TIP3   OH252758   2.992   3.925  11.866  0.2994  0.2141 -0.0753
10448TIP3    H152759   2.903   3.959  11.855 -0.2331 -0.2558  2.1332
10448TIP3    H252760   3.048   3.989  11.822 -1.0061  1.5708  0.1273
10449TIP3   OH252761   3.338   1.193   3.261  0.0558  0.3477 -0.1244
10449TIP3    H152762   3.376   1.199   3.349  1.2892 -0.0861 -0.6103
10449TIP3    H252763   3.295   1.277   3.248  1.4005  1.1136  0.2156
10450TIP3   OH252764   0.259   0.874  11.629  0.0476  0.3832  0.2362
10450TIP3    H152765   0.308   0.896  11.550  0.9900  0.0572  0.7143
10450TIP3    H252766   0.181   0.827  11.597  0.0566  0.8756 -0.5316
10451TIP3   OH252767   1.360   2.797   3.039  0.3136  0.0706 -0.2062
10451TIP3    H152768   1.368   2.890   3.060  1.3333 -0.2586  0.9726
10451TIP3    H252769   1.416   2.785   2.962  2.2678 -0.0345  1.1827
10452TIP3   OH252770   0.823   4.299  10.166 -0.5878 -0.1049  0.2415
10452TIP3    H152771   0.773   4.329  10.242 -0.1013  0.8569  0.2001
10452TIP3    H252772   0.912   4.285  10.199 -0.4734 -0.0949 -0.0587
10453TIP3   OH252773   3.557   2.586  14.806  0.0767  0.1989 -0.6334
10453TIP3    H152774   3.516   2.668  14.833 -0.7912 -0.4911  0.2482
10453TIP3    H252775   3.638   2.612  14.762 -1.0972  1.5838 -2.0440
10454TIP3   OH252776   1.006   5.886   4.064 -0.5208  0.0400  0.8519
10454TIP3    H152777   1.097   5.916   4.058 -0.6458  0.1979 -0.6746
10454TIP3    H252778   0.962   5.953   4.117  0.0370  0.4883  0.7574
10455TIP3   OH252779   2.741   2.326  12.631  0.1027  0.3443 -0.2410
10455TIP3    H152780   2.765   2.393  12.567  0.3977 -0.3731 -0.9050
10455TIP3    H252781   2.731   2.373  12.713  1.9241  0.9660 -0.3395
10456TIP3   OH252782   6.344   3.063   2.643 -0.0137 -0.1602 -0.2626
10456TIP3    H152783   6.357   2.998   2.713  1.1411  0.3569  0.0227
10456TIP3    H252784   6.319   3.010   2.566  0.3224 -0.8850  0.1147
10457TIP3   OH252785   5.209   2.272   4.424 -0.2948 -0.1446  0.0657
10457TIP3    H152786   5.269   2.289   4.497  0.9471 -1.0025 -0.7140
10457TIP3    H252787   5.242   2.328   4.353 -0.0536 -1.0550 -0.5461
10458TIP3   OH252788   5.814   2.757  14.184 -0.0195  0.5437  0.1280
10458TIP3    H152789   5.741   2.816  14.202  1.9829  2.5091  2.7589
10458TIP3    H252790   5.845   2.783  14.097 -1.6192  0.5238 -0.4872
10459TIP3   OH252791   2.378   6.401  15.570 -0.3358  0.1417 -0.6616
10459TIP3    H152792   2.402   6.313  15.599 -0.9239  0.5686  1.2707
10459TIP3    H252793   2.324   6.386  15.492  0.7614 -1.1085 -1.2320
10460TIP3   OH252794   1.063   5.650   2.651 -0.4917  0.4956 -0.0661
10460TIP3    H152795   1.107   5.717   2.703 -3.2725  2.4308  0.0066
10460TIP3    H252796   1.047   5.693   2.567  0.1509 -1.1207 -1.0643
10461TIP3   OH252797   4.397   4.281  16.208  0.3354  0.2145  0.0476
10461TIP3    H152798   4.316   4.318  16.172  1.7356  1.2692 -2.2437
10461TIP3    H252799   4.413   4.332  16.288 -1.0124  0.2742  0.3031
10462TIP3   OH252800   1.043   2.322  11.694  0.0333  0.4961 -0.3755
10462TIP3    H152801   1.068   2.387  11.629 -0.9802  0.2668 -1.0139
10462TIP3    H252802   0.956   2.294  11.667  0.6100 -1.4370 -0.3556
10463TIP3   OH252803   3.708   5.067   1.970  0.2904 -0.6155 -0.7458
10463TIP3    H152804   3.745   5.115   2.044 -1.2964  1.8310 -1.4046
10463TIP3    H252805   3.783   5.038   1.919  1.4928  3.3198 -1.5581
10464TIP3   OH252806   2.417   1.277   0.143  0.1915  0.0912  0.0971
10464TIP3    H152807   2.429   1.366   0.176 -0.4111  0.0967  0.3116
10464TIP3    H252808   2.345   1.284   0.080  0.2102 -0.2211  0.0378
10465TIP3   OH252809   4.291   0.171  13.286  0.1126 -0.0349 -0.0673
10465TIP3    H152810   4.219   0.126  13.330 -0.0538  0.7431  0.4562
10465TIP3    H252811   4.369   0.146  13.336 -0.1867  1.5886  1.2819
10466TIP3   OH252812   5.093   0.122  13.193  0.2008  0.4569  0.3304
10466TIP3    H152813   5.088   0.089  13.283 -2.0937 -0.9755 -0.2430
10466TIP3    H252814   5.035   0.198  13.192  1.8360  1.7581  0.5041
10467TIP3   OH252815   3.118   0.371  11.826 -0.2858 -0.3329 -0.4572
10467TIP3    H152816   3.051   0.398  11.889  0.8770  1.2225  0.1898
10467TIP3    H252817   3.158   0.294  11.866 -1.2100 -0.8388 -0.5006
10468TIP3   OH252818   3.776   3.625  16.720 -0.9210  0.3132  0.0287
10468TIP3    H152819   3.755   3.532  16.712  2.3150 -0.5588  0.2197
10468TIP3    H252820   3.773   3.641  16.814  1.4588 -0.4993  0.3148
10469TIP3   OH252821   1.480   5.194  10.968 -0.2695  0.4278 -0.3260
10469TIP3    H152822   1.518   5.178  10.882 -1.3900  3.0295 -1.4417
10469TIP3    H252823   1.489   5.111  11.015  1.5157 -0.7070 -2.4831
10470TIP3   OH252824   4.660   5.943  14.299  0.6631 -0.1037  0.0681
10470TIP3    H152825   4.589   5.891  14.338 -0.4084  2.6590  2.1318
10470TIP3    H252826   4.737   5.920  14.351 -0.3906  2.2288  2.9438
10471TIP3   OH252827   2.950   5.279  12.654  0.3496 -0.0850 -0.3530
10471TIP3    H152828   2.973   5.319  12.738  1.3624 -1.0934 -0.1265
10471TIP3    H252829   2.981   5.341  12.589 -1.4301  1.2431 -0.0207
10472TIP3   OH252830   5.154   6.606  16.549 -0.7769 -0.9107  0.4654
10472TIP3    H152831   5.067   6.632  16.518 -0.8689 -1.4762  0.2418
10472TIP3    H252832   5.187   6.546  16.482 -0.5632 -1.3679  0.9716
10473TIP3   OH252833   2.002   4.681  13.111  0.0588 -0.7503  0.7491
10473TIP3    H152834   2.040   4.648  13.030  1.5140  0.0267  1.0788
10473TIP3    H252835   1.929   4.737  13.083  0.1793 -0.9570  0.0138
10474TIP3   OH252836   4.952   1.734   2.156 -0.3202 -0.4695 -0.4753
10474TIP3    H152837   4.910   1.769   2.077  0.5547 -0.1682 -0.8237
10474TIP3    H252838   4.889   1.750   2.226 -1.2547 -1.0291 -1.1547
10475TIP3   OH252839   0.537   0.502  16.425  0.3905  0.3508 -0.8633
10475TIP3    H152840   0.474   0.546  16.368 -1.1028 -0.7485 -0.1275
10475TIP3    H252841   0.570   0.572  16.481 -0.5610  0.8911 -0.9401
10476TIP3   OH252842   5.755   4.938  16.521  0.1249 -0.0462  0.4654
10476TIP3    H152843   5.748   4.843  16.529 -0.4063 -0.0143  0.4108
10476TIP3    H252844   5.734   4.971  16.608  0.7480  0.0061  0.6031
10477TIP3   OH252845   0.516   5.613   5.734  0.0248  0.6150  0.1005
10477TIP3    H152846   0.602   5.651   5.755 -0.9041  3.3378 -0.6570
10477TIP3    H252847   0.453   5.681   5.759 -1.6769  0.2664 -2.8353
10478TIP3   OH252848   4.609   4.619   5.764 -0.3253  0.6730 -0.0100
10478TIP3    H152849   4.680   4.610   5.828 -1.0527  0.3909  0.7834
10478TIP3    H252850   4.560   4.695   5.794 -0.6624  0.5457 -0.2340
10479TIP3   OH252851   6.392   3.156  14.208  0.1695  0.3522 -0.2140
10479TIP3    H152852   6.411   3.104  14.129  0.3184  0.5527 -0.3110
10479TIP3    H252853   6.443   3.115  14.277 -0.1599  0.0185 -0.1656
10480TIP3   OH252854   2.167   5.806   0.488 -0.0574  0.1057 -0.0918
10480TIP3    H152855   2.196   5.857   0.413  0.9431  0.0791  0.2611
10480TIP3    H252856   2.201   5.718   0.472  2.2563  0.6230  1.4866
10481TIP3   OH252857   1.921   2.301  16.759  0.1710  0.1357 -0.2182
10481TIP3    H152858   1.828   2.295  16.783  0.0832 -1.0077 -0.7595
10481TIP3    H252859   1.968   2.299  16.842 -0.2750  0.3672  0.0428
10482TIP3   OH252860   6.151   3.139  15.243  0.3576  0.9288 -0.0024
10482TIP3    H152861   6.080   3.190  15.205 -0.5347 -1.1136 -1.2720
10482TIP3    H252862   6.224   3.148  15.181 -0.0347  0.1564 -0.5983
10483TIP3   OH252863   5.154   1.644   3.678  0.8274  0.4003 -0.2210
10483TIP3    H152864   5.159   1.650   3.582 -1.5159  1.0459 -0.3617
10483TIP3    H252865   5.067   1.678   3.700  0.7442 -1.0219  2.0299
10484TIP3   OH252866   5.405   0.217   2.890  0.2222  0.3331  0.6304
10484TIP3    H152867   5.378   0.293   2.942 -1.5101  0.4996 -0.4351
10484TIP3    H252868   5.350   0.146   2.922  1.7798 -0.4958  1.5629
10485TIP3   OH252869   1.973   0.882  14.955 -0.0576 -0.9243  0.0016
10485TIP3    H152870   1.999   0.852  14.868 -1.5097  0.5992 -1.0233
10485TIP3    H252871   1.887   0.843  14.969 -0.3679 -0.1877  0.1988
10486TIP3   OH252872   6.174   5.935   2.687  0.5826  0.5859  0.1250
10486TIP3    H152873   6.231   5.992   2.636 -0.3590  0.8057 -0.7251
10486TIP3    H252874   6.194   5.847   2.656 -0.5486  0.7756 -1.2718
10487TIP3   OH252875   6.692   0.868  15.662 -0.6838  0.2955  0.2385
10487TIP3    H152876   6.672   0.778  15.687  0.6008  0.2631  1.2751
10487TIP3    H252877   6.741   0.903  15.736  0.6391  1.1940 -1.0027
10488TIP3   OH252878   3.380   5.274   3.275  0.1712 -0.1765 -0.3160
10488TIP3    H152879   3.307   5.214   3.257  0.6095 -0.9421  0.3741
10488TIP3    H252880   3.342   5.341   3.332 -0.3476  0.2692 -1.1705
10489TIP3   OH252881   1.147   0.584   2.741 -0.3858 -0.0770 -0.6584
10489TIP3    H152882   1.100   0.526   2.801 -0.2080 -0.9901 -1.3780
10489TIP3    H252883   1.125   0.551   2.654  0.0924  0.6539 -1.0634
10490TIP3   OH252884   3.505   3.945   5.202 -0.4133 -0.4007 -0.6984
10490TIP3    H152885   3.481   3.872   5.145 -0.6923 -2.4718  1.8785
10490TIP3    H252886   3.600   3.953   5.192 -0.3752 -1.1521 -1.0273
10491TIP3   OH252887   3.897   1.163   0.559  0.0457  0.4154  0.4509
10491TIP3    H152888   3.945   1.230   0.510 -0.9614  0.4518 -0.5489
10491TIP3    H252889   3.965   1.106   0.594  0.8487  0.8889 -0.2751
10492TIP3   OH252890   4.746   4.530   6.433  0.4831  0.0517 -0.1031
10492TIP3    H152891   4.799   4.547   6.355 -0.4166  0.5171 -0.6333
10492TIP3    H252892   4.695   4.452   6.410 -0.1437  0.4765 -0.1846
10493TIP3   OH252893   1.164   6.520  13.079  0.0472 -0.0390 -0.1422
10493TIP3    H152894   1.233   6.552  13.021 -0.9044  1.1309 -0.6969
10493TIP3    H252895   1.210   6.484  13.154  1.2870 -0.6624 -1.1675
10494TIP3   OH252896   4.685   6.341  15.951 -0.1151 -0.5360 -0.1332
10494TIP3    H152897   4.591   6.340  15.966  0.0386 -1.1298  0.9374
10494TIP3    H252898   4.720   6.390  16.026  0.3956  0.1089 -0.7811
10495TIP3   OH252899   5.004   3.158  17.041  0.1719 -0.0423  0.5342
10495TIP3    H152900   4.916   3.175  17.074 -0.1693  3.5794 -1.6129
10495TIP3    H252901   5.061   3.166  17.117 -1.2104 -1.3751  1.7704
10496TIP3   OH252902   6.139   2.557  11.116  0.4128 -0.3615  0.3375
10496TIP3    H152903   6.200   2.491  11.150  0.0159 -2.6960 -2.9703
10496TIP3    H252904   6.055   2.512  11.113 -0.2714  0.9132 -0.4063
10497TIP3   OH252905   3.860   5.120  16.472 -0.0242 -0.3423  0.3789
10497TIP3    H152906   3.930   5.060  16.498 -0.5990 -1.7693 -1.1644
10497TIP3    H252907   3.858   5.115  16.376 -0.7878  1.3813  0.2578
10498TIP3   OH252908   4.472   1.820   2.342  0.3357 -0.4765 -0.4835
10498TIP3    H152909   4.537   1.883   2.371 -0.5584 -0.1502  0.9205
10498TIP3    H252910   4.513   1.774   2.269  2.2544 -0.5116  0.5671
10499TIP3   OH252911   0.112   2.080  10.839  0.1057 -0.1178 -0.5195
10499TIP3    H152912   0.180   2.096  10.774 -0.6722 -1.9663 -1.8743
10499TIP3    H252913   0.154   2.028  10.907 -0.1851 -2.3927 -1.9949
10500TIP3   OH252914   2.321   4.662   3.154  0.8430 -0.1252  0.1757
10500TIP3    H152915   2.373   4.742   3.163  0.0072  0.3175  1.2975
10500TIP3    H252916   2.387   4.592   3.148  1.6416  0.3015  2.6375
10501TIP3   OH252917   0.139   0.742  15.224  0.5464  0.3407 -0.1996
10501TIP3    H152918   0.216   0.798  15.238 -0.6328  1.3872  2.9223
10501TIP3    H252919   0.072   0.779  15.281 -1.4769 -2.1177 -0.8151
10502TIP3   OH252920   5.818   2.838   0.642 -0.6463  0.3090 -0.5171
10502TIP3    H152921   5.881   2.878   0.702 -0.6992  0.4437 -0.5497
10502TIP3    H252922   5.738   2.828   0.694 -0.5594  0.0210 -0.4397
10503TIP3   OH252923   2.413   0.256   4.269 -0.7084 -0.2027 -0.1243
10503TIP3    H152924   2.505   0.285   4.264 -0.6412 -0.0993  1.3694
10503TIP3    H252925   2.414   0.184   4.331 -1.5504 -0.6241 -0.5934
10504TIP3   OH252926   2.495   3.092  13.105 -0.2447 -0.2243 -0.0459
10504TIP3    H152927   2.575   3.042  13.118 -0.1624  0.5629  3.3349
10504TIP3    H252928   2.465   3.068  13.017  1.5269 -3.5874  0.1411
10505TIP3   OH252929   6.545   0.771  12.472  0.8923  0.6948  0.3891
10505TIP3    H152930   6.547   0.698  12.535 -0.4513  0.4191  0.1313
10505TIP3    H252931   6.581   0.845  12.521  4.3572 -0.5496  0.0204
10506TIP3   OH252932   5.171   4.817   4.194  0.4824  0.1965 -0.1018
10506TIP3    H152933   5.189   4.881   4.263 -0.3736  1.3476 -0.9132
10506TIP3    H252934   5.084   4.782   4.215  0.8359 -0.5334  0.1940
10507TIP3   OH252935   0.878   6.249   5.787  0.1809 -0.2542 -0.3265
10507TIP3    H152936   0.799   6.195   5.795 -0.2944  0.5015  0.2430
10507TIP3    H252937   0.940   6.211   5.850 -0.5964  0.5982  0.9971
10508TIP3   OH252938   4.180   6.434   4.353 -0.1484 -0.4489  0.3161
10508TIP3    H152939   4.250   6.426   4.287  0.9320  1.8288  1.0672
10508TIP3    H252940   4.134   6.350   4.349  3.1745 -2.4624  0.4008
10509TIP3   OH252941   1.831   4.901  11.744 -0.2872 -0.2372  0.4327
10509TIP3    H152942   1.791   4.887  11.830 -1.7349 -0.2841 -0.2218
10509TIP3    H252943   1.757   4.910  11.684  0.6784  0.9625 -0.6409
10510TIP3   OH252944   5.931   4.697  16.649 -0.5561  0.5435  0.0628
10510TIP3    H152945   5.872   4.623  16.635  0.1086  0.2175 -1.1444
10510TIP3    H252946   5.930   4.711  16.744 -1.4342 -0.3854  0.2063
10511TIP3   OH252947   6.636   2.086  12.754 -0.0514 -0.2324 -0.2621
10511TIP3    H152948   6.557   2.138  12.769  1.0665  1.7489 -0.9129
10511TIP3    H252949   6.681   2.085  12.839 -0.4255 -0.7932 -0.0634
10512TIP3   OH252950   3.124   2.461  17.124  0.1349  0.2560  0.1183
10512TIP3    H152951   3.123   2.375  17.082 -0.8868 -0.0456  0.7192
10512TIP3    H252952   3.206   2.463  17.173  0.5036 -0.0840 -0.4700
10513TIP3   OH252953   2.650   6.729   0.278 -0.2183 -0.1940  0.8317
10513TIP3    H152954   2.626   6.696   0.192 -1.6233  2.6739  0.0185
10513TIP3    H252955   2.726   6.784   0.263  0.6672 -1.1031  1.7785
10514TIP3   OH252956   0.050   0.919  14.043  0.0196  1.1105  0.2466
10514TIP3    H152957   0.000   0.994  14.010 -2.1216 -0.3435  0.0098
10514TIP3    H252958  -0.006   0.844  14.026  0.7593 -0.2229  3.2203
10515TIP3   OH252959   3.853   5.129  12.974 -0.0110  0.8964 -0.4023
10515TIP3    H152960   3.927   5.137  12.914 -0.3515  3.0627 -0.6271
10515TIP3    H252961   3.821   5.040  12.961  1.6715  0.3862 -1.3424
10516TIP3   OH252962   2.408   2.577  13.313 -0.1494 -0.0873 -0.0923
10516TIP3    H152963   2.351   2.516  13.265 -0.2982 -0.1175  0.1244
10516TIP3    H252964   2.488   2.526  13.330 -0.6796 -0.5725  1.0215
10517TIP3   OH252965   6.620   3.140  13.201  0.0536 -0.1236  0.2728
10517TIP3    H152966   6.552   3.207  13.211  0.5762  1.0606 -2.9647
10517TIP3    H252967   6.594   3.071  13.262 -2.1624  1.7097  1.5828
10518TIP3   OH252968   6.684   0.139  14.964 -0.4029 -0.2541 -0.5090
10518TIP3    H152969   6.736   0.068  14.999  1.0913  0.4137 -1.2950
10518TIP3    H252970   6.640   0.176  15.040  1.2683 -0.0488  0.4004
10519TIP3   OH252971   3.162   3.433   3.316 -0.3591  0.3340 -0.4731
10519TIP3    H152972   3.240   3.399   3.273 -0.7376 -0.7300 -0.3452
10519TIP3    H252973   3.191   3.456   3.404  0.6482  3.4069 -1.4846
10520TIP3   OH252974   4.332   5.937  11.504 -0.1188 -0.1689  0.0445
10520TIP3    H152975   4.352   5.868  11.440 -0.4850 -1.4218  1.2343
10520TIP3    H252976   4.237   5.932  11.516 -0.1148  0.3763  0.3255
10521TIP3   OH252977   1.866   3.453   0.282  0.2706  0.2036 -0.2766
10521TIP3    H152978   1.871   3.439   0.187 -0.3835  0.3971 -0.3435
10521TIP3    H252979   1.957   3.468   0.309  0.3117  1.5261 -1.0901
10522TIP3   OH252980   2.240   1.284   4.066 -0.2312 -0.6110  0.2222
10522TIP3    H152981   2.203   1.198   4.046  0.7808 -0.6584 -1.8072
10522TIP3    H252982   2.167   1.345   4.055 -1.3202 -1.2699  3.1023
10523TIP3   OH252983   3.998   4.718  17.025 -0.8119 -0.0617  0.7049
10523TIP3    H152984   3.994   4.639  16.970 -0.7260 -0.9414  1.9145
10523TIP3    H252985   3.939   4.780  16.983 -0.8230 -0.7386 -0.3193
10524TIP3   OH252986   1.664   0.363   6.159 -0.5004  0.1417  0.5182
10524TIP3    H152987   1.667   0.366   6.255 -1.6979  0.7353  0.5591
10524TIP3    H252988   1.684   0.453   6.132  2.1438 -0.5024  0.0860
10525TIP3   OH252989   6.533   3.395   0.392  0.0591  0.4314  0.2218
10525TIP3    H152990   6.562   3.309   0.422  0.2436  0.4491  0.0928
10525TIP3    H252991   6.530   3.448   0.472  0.0218  0.3281  0.2897
10526TIP3   OH252992   1.398   5.997   0.747 -0.1778  0.0955 -0.3225
10526TIP3    H152993   1.399   5.917   0.695 -1.0668 -0.9904  1.2419
10526TIP3    H252994   1.465   5.983   0.814  0.8743  1.4232 -1.0462
10527TIP3   OH252995   4.265   1.632   3.186 -0.0353  0.1631 -0.3122
10527TIP3    H152996   4.357   1.647   3.208 -0.1837  0.4373  0.1233
10527TIP3    H252997   4.235   1.565   3.248  0.3867 -1.3758 -1.6932
10528TIP3   OH252998   6.543   3.248  10.764  0.7214  0.4197 -0.5044
10528TIP3    H152999   6.550   3.328  10.710 -0.3864  0.3228 -0.8119
10528TIP3    H253000   6.551   3.176  10.701 -0.7025  0.3049 -0.5957
10529TIP3   OH253001   2.167   3.452   2.900 -0.6401  0.4337 -0.0829
10529TIP3    H153002   2.093   3.476   2.844  0.3759  0.0680 -1.6397
10529TIP3    H253003   2.127   3.430   2.984 -2.5251 -1.5641 -1.4051
10530TIP3   OH253004   5.763   1.142   1.310 -0.2175  0.0329 -0.0961
10530TIP3    H153005   5.711   1.130   1.389 -0.0452 -1.4429 -0.1777
10530TIP3    H253006   5.796   1.231   1.316 -0.4447  0.0423  1.3467
10531TIP3   OH253007   3.535   6.373  14.464  0.1032  0.0339  0.2642
10531TIP3    H153008   3.616   6.361  14.413  0.0622  1.4869 -0.1946
10531TIP3    H253009   3.531   6.297  14.521  1.2161 -0.6272 -0.5003
10532TIP3   OH253010   3.511   3.687   3.108 -0.1317  0.1330  0.1588
10532TIP3    H153011   3.606   3.692   3.112 -0.1918  2.1421 -0.2138
10532TIP3    H253012   3.493   3.594   3.096  1.6234 -0.9110  3.9570
10533TIP3   OH253013   1.505   0.748   0.588  0.5878 -0.0968 -0.1460
10533TIP3    H153014   1.547   0.725   0.672 -0.7537  1.2591  0.9529
10533TIP3    H253015   1.416   0.716   0.597  0.5483 -0.3081 -1.2520
10534TIP3   OH253016   0.471   6.276   5.431  0.1811  0.4247  0.1933
10534TIP3    H153017   0.508   6.244   5.348 -1.1654  1.1512 -0.7397
10534TIP3    H253018   0.461   6.198   5.485 -0.8789 -0.4230 -1.1512
10535TIP3   OH253019   1.070   2.847   5.915  0.0371 -0.1255  0.0098
10535TIP3    H153020   1.158   2.811   5.904  0.6487  0.7191  1.7528
10535TIP3    H253021   1.013   2.785   5.870  1.6299  0.1131 -2.5097
10536TIP3   OH253022   3.831   3.504  10.662 -0.4787 -0.1919  0.0830
10536TIP3    H153023   3.894   3.575  10.677 -2.2174  1.2273  1.0493
10536TIP3    H253024   3.802   3.517  10.572 -1.9666  1.4060  0.7306
10537TIP3   OH253025   4.719   3.064  16.891  0.5621  0.4103 -0.2456
10537TIP3    H153026   4.634   3.106  16.907  1.6815  2.3049  1.1131
10537TIP3    H253027   4.702   3.002  16.821 -2.2687 -0.3136  0.9442
10538TIP3   OH253028   4.922   1.784  14.485 -0.0602 -0.0920  0.2820
10538TIP3    H153029   5.008   1.752  14.514  0.7763  0.5396 -1.3469
10538TIP3    H253030   4.879   1.813  14.565  1.8602  0.9849  0.9969
10539TIP3   OH253031   0.097   3.205  13.157 -0.0973  0.6372  0.1153
10539TIP3    H153032   0.133   3.128  13.114  0.2142  1.0569 -0.3838
10539TIP3    H253033   0.010   3.178  13.186  0.9929 -0.7548  2.3608
10540TIP3   OH253034   2.392   4.843   2.621  0.6293  0.7239 -0.2092
10540TIP3    H153035   2.421   4.821   2.532  1.6943  2.3500 -0.3196
10540TIP3    H253036   2.473   4.849   2.672  0.0946  0.6457  0.6691
10541TIP3   OH253037   5.614   0.222  16.573  0.2156 -0.3198 -0.2196
10541TIP3    H153038   5.612   0.208  16.668 -1.0707  0.6101 -0.0865
10541TIP3    H253039   5.663   0.147  16.539  3.4000  0.8634  1.4141
10542TIP3   OH253040   1.286   6.276   5.824  0.1229  0.4380 -0.2391
10542TIP3    H153041   1.244   6.351   5.866  1.0415  1.3871 -0.9770
10542TIP3    H253042   1.356   6.314   5.771 -0.7818 -0.7341 -2.3842
10543TIP3   OH253043   6.561   0.428   5.765  0.2919  0.3141  0.1997
10543TIP3    H153044   6.614   0.450   5.688  0.9050 -0.0813  0.5045
10543TIP3    H253045   6.474   0.462   5.744  0.1498 -0.7790 -1.1802
10544TIP3   OH253046   2.243   1.006  14.669 -0.3707  0.6297  0.1818
10544TIP3    H153047   2.167   1.022  14.614 -1.7623  0.7183  2.0297
10544TIP3    H253048   2.261   0.912  14.660 -1.0254  0.5085  0.1103
10545TIP3   OH253049   3.935   6.359  17.188  0.1282 -0.0988 -0.3852
10545TIP3    H153050   3.964   6.268  17.184  0.5407  0.0229 -0.1162
10545TIP3    H253051   3.859   6.357  17.247 -0.0342 -0.3095 -0.5964
10546TIP3   OH253052   1.654   6.064  14.099  0.6967  0.1843 -0.6652
10546TIP3    H153053   1.733   6.118  14.091  1.3423 -0.4473  0.8837
10546TIP3    H253054   1.587   6.123  14.131  0.1751  0.9927 -3.0965
10547TIP3   OH253055   0.357   3.149   6.118 -0.1722 -0.4561 -0.5633
10547TIP3    H153056   0.324   3.145   6.208  0.8557 -0.1984 -0.1696
10547TIP3    H253057   0.317   3.228   6.081  0.5983  0.2842  0.1549
10548TIP3   OH253058   4.896   5.403   5.741  0.1218  0.2041  0.4149
10548TIP3    H153059   4.880   5.354   5.661  0.2538  2.1438 -0.8556
10548TIP3    H253060   4.808   5.421   5.776  0.0095  0.3608  0.0570
10549TIP3   OH253061   3.017   3.957  13.576  0.1034  0.3068 -0.1182
10549TIP3    H153062   2.959   3.889  13.543  1.3571 -0.7679 -0.1651
10549TIP3    H253063   3.094   3.910  13.608  0.6535  1.6401  0.5916
10550TIP3   OH253064   3.178   5.280  16.878  0.7376 -0.4288  0.0135
10550TIP3    H153065   3.148   5.202  16.831 -0.4775  1.3869 -2.4683
10550TIP3    H253066   3.207   5.340  16.809  2.7776  0.9136  1.9017
10551TIP3   OH253067   3.311   6.491  15.219  0.8561  0.3785 -0.7884
10551TIP3    H153068   3.346   6.574  15.250 -1.7887  0.8870  1.1536
10551TIP3    H253069   3.388   6.435  15.210  2.3675  1.8811  1.6093
10552TIP3   OH253070   3.374   6.688  16.871  0.4342 -0.2481  0.0424
10552TIP3    H153071   3.334   6.677  16.958 -0.3845  1.7489 -0.0329
10552TIP3    H253072   3.300   6.694  16.811  0.8293  2.0113 -0.2988
10553TIP3   OH253073   5.950   0.559  16.697  0.4849  0.3742 -0.1114
10553TIP3    H153074   5.876   0.619  16.704 -0.4727 -0.9229  3.8482
10553TIP3    H253075   5.927   0.501  16.625 -1.7970  0.7591  0.2301
10554TIP3   OH253076   4.228   1.801   0.945  0.5749  0.0638  0.1685
10554TIP3    H153077   4.214   1.714   0.908 -1.3636  0.2565  0.3390
10554TIP3    H253078   4.149   1.850   0.922  1.3156  1.5612  0.6932
10555TIP3   OH253079   5.264   0.578  10.757  0.7035  0.6089 -0.5096
10555TIP3    H153080   5.283   0.663  10.719  1.3102  0.4699 -0.5307
10555TIP3    H253081   5.240   0.597  10.848  0.1453  0.8596 -0.7054
10556TIP3   OH253082   6.751   2.753  11.497  0.3729  0.2493  0.1071
10556TIP3    H153083   6.730   2.766  11.589  0.6342  0.8568  0.0861
10556TIP3    H253084   6.772   2.840  11.465  2.7709 -0.2922  0.0799
10557TIP3   OH253085   3.872   1.946   2.993  0.6737 -0.3295  0.6197
10557TIP3    H153086   3.875   1.961   2.898  1.8831 -1.9509  0.3623
10557TIP3    H253087   3.916   2.023   3.030 -1.3311  1.1932  0.0458
10558TIP3   OH253088   5.058   2.822  15.626 -0.1778 -0.6892  0.2136
10558TIP3    H153089   5.020   2.799  15.711  1.7652 -0.5083  1.2019
10558TIP3    H253090   5.066   2.739  15.580 -0.6969 -0.8774  0.4565
10559TIP3   OH253091   6.621   1.836   0.109 -0.1360 -0.5300  0.0294
10559TIP3    H153092   6.664   1.894   0.172  0.0091 -1.4614  0.8268
10559TIP3    H253093   6.683   1.829   0.036 -0.5475  0.9989 -0.4862
10560TIP3   OH253094   0.674   3.154   1.024 -0.2042 -0.4667  0.8468
10560TIP3    H153095   0.614   3.203   0.969 -0.5074 -0.0507  1.5416
10560TIP3    H253096   0.677   3.066   0.985  1.4999  0.4593 -1.3194
10561TIP3   OH253097   0.378   0.968   0.402 -0.4300  0.2625  0.2640
10561TIP3    H153098   0.456   0.994   0.354  0.1362 -0.7552  0.6023
10561TIP3    H253099   0.305   1.006   0.353  0.0843 -1.2459 -1.7755
10562TIP3   OH253100   4.478   5.173   0.530  0.1168  0.1804 -0.0471
10562TIP3    H153101   4.407   5.109   0.534 -0.4353  0.8331  1.0849
10562TIP3    H253102   4.557   5.123   0.546 -0.2957 -0.2460  0.6896
10563TIP3   OH253103   2.833   2.452  17.106  0.9372  0.5939  0.7387
10563TIP3    H153104   2.805   2.480  17.193 -0.1823 -0.0433  0.5989
10563TIP3    H253105   2.926   2.432  17.117  1.0514  1.5010  1.5321
10564TIP3   OH253106   3.627   5.759  12.959 -0.2484  0.1356 -0.4103
10564TIP3    H153107   3.574   5.689  12.920 -0.3662  0.5420 -0.9834
10564TIP3    H253108   3.622   5.831  12.897 -0.7691  0.9395  0.5271
10565TIP3   OH253109   5.380   4.897   2.855  0.4103 -0.6974  0.3004
10565TIP3    H153110   5.380   4.963   2.786 -0.3578  0.7639  1.6464
10565TIP3    H253111   5.466   4.856   2.849  0.5767 -0.1813 -1.1227
10566TIP3   OH253112   2.071   6.216  11.832 -0.1616  0.0660  0.1394
10566TIP3    H153113   2.094   6.131  11.868  0.3670  0.1046 -0.1045
10566TIP3    H253114   2.008   6.252  11.894  0.5942  0.0498  0.9179
10567TIP3   OH253115   4.576   4.468   3.757 -0.5047 -0.1407 -0.1247
10567TIP3    H153116   4.563   4.491   3.665  0.9039  0.6977 -0.1427
10567TIP3    H253117   4.566   4.373   3.759 -1.2680 -0.0968 -1.0052
10568TIP3   OH253118   5.052   2.720  14.700 -0.5606  0.4183 -0.2994
10568TIP3    H153119   4.987   2.753  14.763 -0.2325  2.4431 -0.9586
10568TIP3    H253120   5.105   2.659  14.751 -3.3845 -1.9445  0.0874
10569TIP3   OH253121   4.451   6.315  15.580 -1.2994 -0.9389  0.2292
10569TIP3    H153122   4.367   6.279  15.552 -0.7326 -1.9781 -0.1534
10569TIP3    H253123   4.447   6.314  15.675 -0.8815 -3.0309  0.2525
10570TIP3   OH253124   4.409   4.603  16.969  0.0625  0.3269  0.1863
10570TIP3    H153125   4.496   4.588  16.931 -0.9444 -0.7707 -1.8335
10570TIP3    H253126   4.407   4.698  16.986  1.5446  0.4173  0.0492
10571TIP3   OH253127   0.727   5.035  12.378 -0.2472 -0.0379 -0.0325
10571TIP3    H153128   0.751   5.004  12.465 -1.7657 -0.3670  0.3017
10571TIP3    H253129   0.631   5.045  12.382 -0.2912  0.3403 -1.5289
10572TIP3   OH253130   1.634   5.225   2.693 -0.5794  0.3684  0.1553
10572TIP3    H153131   1.583   5.298   2.729  0.1895  1.4923 -0.9572
10572TIP3    H253132   1.714   5.265   2.660 -1.5752 -0.3374 -3.6198
10573TIP3   OH253133   0.777   5.970   2.407 -0.3351  0.0583 -0.3799
10573TIP3    H153134   0.802   5.884   2.373  1.8327  1.3986 -2.5345
10573TIP3    H253135   0.852   5.999   2.459 -0.4249  1.1939 -0.8443
10574TIP3   OH253136   0.799   0.392   3.996  0.1984 -0.5761  0.4367
10574TIP3    H153137   0.792   0.454   4.069  2.3932  0.8779 -0.4856
10574TIP3    H253138   0.872   0.336   4.020 -0.1163 -1.1451  0.0814
10575TIP3   OH253139   3.139   2.025  14.160  0.2514  0.1576  0.1045
10575TIP3    H153140   3.139   1.930  14.147  0.0571  0.2905 -0.9831
10575TIP3    H253141   3.230   2.046  14.180  1.0002  0.0914 -2.7839
10576TIP3   OH253142   6.627   0.657   0.892  0.3027 -0.2670 -0.8236
10576TIP3    H153143   6.659   0.610   0.969  0.0613  0.7947 -0.0565
10576TIP3    H253144   6.626   0.749   0.918  1.7783  0.3283 -2.6301
10577TIP3   OH253145   2.431   3.960  16.501  0.3452  0.2195  0.1609
10577TIP3    H153146   2.469   4.039  16.461 -1.9906  0.9693 -0.7973
10577TIP3    H253147   2.413   3.986  16.591 -0.2755  0.7794 -0.1082
10578TIP3   OH253148   6.520   1.994  11.446  0.0130 -0.3517 -0.0056
10578TIP3    H153149   6.466   2.039  11.511  1.1978 -0.3762  1.0334
10578TIP3    H253150   6.501   2.038  11.364 -2.2551 -0.9508  0.1390
10579TIP3   OH253151   4.509   2.367  12.386 -0.8798  0.1747 -0.1395
10579TIP3    H153152   4.567   2.340  12.314 -1.6397 -0.3703 -0.5512
10579TIP3    H253153   4.521   2.300  12.453  0.9220  1.4260  0.8893
10580TIP3   OH253154   3.777   2.805  12.797 -0.1273  0.2535 -0.5889
10580TIP3    H153155   3.827   2.830  12.720 -0.1366 -1.1166 -1.0569
10580TIP3    H253156   3.754   2.888  12.839 -0.6384  1.0515 -2.3742
10581TIP3   OH253157   6.484   3.075  16.982  0.6008  0.4935  0.5447
10581TIP3    H153158   6.479   2.988  17.022  0.6027 -0.1513 -0.7819
10581TIP3    H253159   6.517   3.132  17.051  0.5434 -0.5542  1.4598
10582TIP3   OH253160   0.854   4.617   4.244  0.0361  0.0377 -0.0653
10582TIP3    H153161   0.920   4.560   4.283  0.2582  1.2098  1.3983
10582TIP3    H253162   0.849   4.692   4.304 -2.4647  0.1068 -0.2440
10583TIP3   OH253163   4.820   4.859   6.395 -0.1606 -0.3688 -0.2732
10583TIP3    H153164   4.757   4.825   6.459 -0.0032  0.7655  0.5129
10583TIP3    H253165   4.769   4.919   6.341  0.1967  0.5028  0.3246
10584TIP3   OH253166   5.869   1.403  11.717 -0.1585  0.3647  0.1566
10584TIP3    H153167   5.946   1.347  11.724 -0.1789  0.4349  1.0591
10584TIP3    H253168   5.856   1.415  11.623  0.8208  0.2071 -0.0062
10585TIP3   OH253169   0.700   0.360  15.393 -0.2488 -0.0948  0.7823
10585TIP3    H153170   0.714   0.356  15.488  0.7748 -0.0874  0.6428
10585TIP3    H253171   0.786   0.344  15.356 -1.1867 -3.6128 -0.2580
10586TIP3   OH253172   0.534   4.147  12.263 -0.0886  0.3814 -0.2757
10586TIP3    H153173   0.502   4.102  12.185 -0.7043 -2.4143  1.4251
10586TIP3    H253174   0.456   4.189  12.299 -0.4453 -0.6958  0.2615
10587TIP3   OH253175   6.055   0.664   4.818 -0.0472 -0.5429 -0.1337
10587TIP3    H153176   6.074   0.657   4.912 -0.3455  0.3791  0.0016
10587TIP3    H253177   6.126   0.614   4.777  1.5719  1.1184  0.4707
10588TIP3   OH253178   0.042   6.693  13.897 -0.0259  0.1454  0.3253
10588TIP3    H153179   0.035   6.776  13.943  0.3006 -1.2056  2.9886
10588TIP3    H253180  -0.046   6.676  13.865 -0.1025  1.4773 -0.2509
10589TIP3   OH253181   5.001   5.783  11.291 -0.2558  0.1901  0.2648
10589TIP3    H153182   5.043   5.797  11.206 -2.2153 -0.3460 -0.8582
10589TIP3    H253183   4.977   5.871  11.320  0.2519  0.3635  0.1585
10590TIP3   OH253184   5.087   2.925   1.135 -0.1097 -0.1646  0.1073
10590TIP3    H153185   5.162   2.872   1.110  0.2530  0.0387  0.7450
10590TIP3    H253186   5.112   2.966   1.218 -0.2212  1.3019 -0.5358
10591TIP3   OH253187   0.827   3.206  13.748  0.4448 -0.2693 -0.1037
10591TIP3    H153188   0.871   3.271  13.802 -0.5799 -1.0905  1.7907
10591TIP3    H253189   0.893   3.138  13.733  0.7046 -0.0806  0.1809
10592TIP3   OH253190   4.278   2.135   0.924 -0.6670 -0.0126  0.1718
10592TIP3    H153191   4.326   2.214   0.950  0.3418 -0.8053  0.7843
10592TIP3    H253192   4.342   2.082   0.876 -1.1171 -0.7886  0.4101
10593TIP3   OH253193   2.609   5.493   2.043 -0.0669  0.0258  0.2412
10593TIP3    H153194   2.662   5.435   2.097 -1.1574 -0.2437  1.0418
10593TIP3    H253195   2.562   5.435   1.983  0.3675  0.2483 -0.3278
10594TIP3   OH253196   1.555   2.207  11.387  0.0118  1.0992 -0.0773
10594TIP3    H153197   1.599   2.171  11.310  0.2359  1.3202 -0.0530
10594TIP3    H253198   1.616   2.189  11.459  0.2863  1.8495 -0.1202
10595TIP3   OH253199   0.481   5.178   5.483 -0.0314  0.2035 -0.3212
10595TIP3    H153200   0.461   5.258   5.530 -1.0566 -0.5524  0.5862
10595TIP3    H253201   0.458   5.108   5.544  0.3666 -0.7925 -1.2693
10596TIP3   OH253202   6.600   2.320  15.402 -0.3035 -0.5694 -0.2454
10596TIP3    H153203   6.653   2.244  15.425  0.8587  0.1212 -0.5691
10596TIP3    H253204   6.573   2.356  15.486  0.1862 -0.6265 -0.0565
10597TIP3   OH253205   4.622   4.120   3.155  0.6088 -0.1572  0.0153
10597TIP3    H153206   4.535   4.158   3.164  1.1300  1.2163 -0.4196
10597TIP3    H253207   4.639   4.080   3.240 -0.5164 -0.6213  0.0356
10598TIP3   OH253208   0.933   6.789   1.764  0.5088  0.1348 -0.4685
10598TIP3    H153209   0.913   6.757   1.676 -1.2753 -1.9903  0.5892
10598TIP3    H253210   0.865   6.853   1.782  1.4746  1.3304 -0.9693
10599TIP3   OH253211   3.008   3.183   5.069  0.5666  0.2287 -0.6752
10599TIP3    H153212   3.034   3.150   4.982 -0.9918 -0.2308 -0.9989
10599TIP3    H253213   2.939   3.246   5.050 -0.0405 -0.1461  0.2516
10600TIP3   OH253214   5.104   6.150   1.436  0.0369  0.2013 -0.0868
10600TIP3    H153215   5.192   6.185   1.419 -0.1283 -0.2390 -2.2273
10600TIP3    H253216   5.062   6.216   1.491  2.0906 -0.1948  2.1099
10601TIP3   OH253217   1.674   1.018  11.652  0.0358 -0.5632 -0.0096
10601TIP3    H153218   1.656   1.112  11.647 -0.1551 -0.6377 -1.0961
10601TIP3    H253219   1.689   0.992  11.561  0.1870 -1.5660  0.2885
10602TIP3   OH253220   3.801   0.062  12.604  0.5777 -0.1547 -0.2701
10602TIP3    H153221   3.839   0.031  12.522 -1.7914 -2.5545 -0.6071
10602TIP3    H253222   3.840   0.006  12.671  0.9034  0.3720 -0.0101
10603TIP3   OH253223   5.483   1.365  16.788 -0.0687 -0.6766 -0.3162
10603TIP3    H153224   5.421   1.374  16.716 -0.0366  1.1933 -0.1397
10603TIP3    H253225   5.488   1.270  16.804 -0.7098 -1.0521 -2.1954
10604TIP3   OH253226   6.620   1.055   0.593 -0.3202  0.6988 -0.1301
10604TIP3    H153227   6.643   1.060   0.500 -0.1795 -3.4977 -0.5339
10604TIP3    H253228   6.702   1.075   0.638  0.0529  1.1504 -0.9733
10605TIP3   OH253229   0.459   6.519   2.106  0.2587 -0.2972 -0.2242
10605TIP3    H153230   0.461   6.532   2.011 -2.0042 -0.0581 -0.2828
10605TIP3    H253231   0.472   6.607   2.142 -0.7664 -0.0861 -0.3564
10606TIP3   OH253232   4.603   0.965   0.706  0.8555 -0.1451 -0.1923
10606TIP3    H153233   4.528   0.990   0.653  0.2803 -3.4519 -1.1776
10606TIP3    H253234   4.566   0.913   0.777  2.0515 -0.2129  0.4055
10607TIP3   OH253235   2.363   3.530  13.174  0.4274  0.0310 -0.3452
10607TIP3    H153236   2.414   3.449  13.162  0.1039 -0.1784 -0.3057
10607TIP3    H253237   2.315   3.516  13.256 -0.9751 -0.4507 -1.2243
10608TIP3   OH253238   0.868   4.684   6.140 -0.3841  0.4328 -0.1196
10608TIP3    H153239   0.932   4.625   6.179  0.5201  1.8323  0.6111
10608TIP3    H253240   0.897   4.694   6.049  0.0280  0.5062  0.0173
10609TIP3   OH253241   2.791   2.766   2.268 -0.2921  0.4936 -0.1030
10609TIP3    H153242   2.831   2.694   2.316  0.0846  1.8689  1.7333
10609TIP3    H253243   2.699   2.739   2.257  0.2755 -1.1573 -1.3550
10610TIP3   OH253244   4.939   3.931   4.336  0.3587  0.1507 -0.3699
10610TIP3    H153245   4.969   3.905   4.249  1.9001 -1.1567  0.5027
10610TIP3    H253246   5.011   3.982   4.373 -0.9399  2.1594 -0.4363
10611TIP3   OH253247   2.734   3.035   3.407 -0.2815 -0.1517  0.1259
10611TIP3    H153248   2.748   3.071   3.494 -0.3515  1.1696 -0.3704
10611TIP3    H253249   2.819   3.044   3.363 -0.6115  0.5960 -0.3979
10612TIP3   OH253250   4.948   0.308  11.491  0.3220  0.4008  0.9089
10612TIP3    H153251   5.012   0.366  11.532  0.7162  0.4687  0.2157
10612TIP3    H253252   4.998   0.259  11.426 -0.7820  2.4501 -1.6774
10613TIP3   OH253253   6.651   1.427   2.001  0.7246  0.3236  0.1555
10613TIP3    H153254   6.630   1.378   1.922  0.5780  0.2775  0.2233
10613TIP3    H253255   6.619   1.516   1.984  0.4978  0.2596  0.2489
10614TIP3   OH253256   2.641   0.817  17.097 -0.3842 -0.7997 -0.3457
10614TIP3    H153257   2.615   0.739  17.048 -1.4414 -1.8328  1.7411
10614TIP3    H253258   2.634   0.792  17.189  1.5517  1.0457  0.3954
10615TIP3   OH253259   1.272   1.511   1.583  0.1072  0.0927  0.7919
10615TIP3    H153260   1.228   1.556   1.655  1.4895  1.2239  0.9774
10615TIP3    H253261   1.302   1.581   1.525  1.5086 -0.6174  0.6040
10616TIP3   OH253262   0.969   0.640  15.893 -0.1204  0.2286 -0.1426
10616TIP3    H153263   1.014   0.557  15.906 -1.3958 -0.5476 -0.4779
10616TIP3    H253264   1.037   0.706  15.901  0.7957 -0.8008  0.8538
10617TIP3   OH253265   6.026   5.235  15.695  0.6099 -0.1086 -0.4647
10617TIP3    H153266   5.987   5.301  15.752 -1.1425  0.7577 -2.5433
10617TIP3    H253267   6.120   5.252  15.699  0.5163  0.1892  1.7489
10618TIP3   OH253268   2.924   5.503  13.817 -0.3754 -0.2201 -0.2786
10618TIP3    H153269   2.920   5.416  13.777  0.8275  0.4896 -2.1027
10618TIP3    H253270   2.842   5.512  13.866 -2.7672 -0.6232 -3.8607
10619TIP3   OH253271   0.363   1.492   1.582  0.0103 -0.0820  0.3529
10619TIP3    H153272   0.451   1.526   1.570 -0.5538  0.9122 -1.1822
10619TIP3    H253273   0.306   1.569   1.578 -0.9740 -0.7620  0.7952
10620TIP3   OH253274   6.111   2.130   1.397  0.6527  0.7285  0.3864
10620TIP3    H153275   6.081   2.188   1.327  1.3311  0.8729  0.2091
10620TIP3    H253276   6.080   2.043   1.372  0.7129  0.8131  0.0095
10621TIP3   OH253277   3.024   4.363   0.591 -0.0389  0.0887 -0.2124
10621TIP3    H153278   3.064   4.374   0.677  0.5606  0.4760 -0.5335
10621TIP3    H253279   2.938   4.326   0.609 -0.2002  0.8260  0.6015
10622TIP3   OH253280   1.979   1.731   4.307  0.1611 -0.2285 -0.4406
10622TIP3    H153281   2.020   1.788   4.243  2.4988 -2.6047 -1.2530
10622TIP3    H253282   1.909   1.784   4.346  0.5232  2.2542 -2.8771
10623TIP3   OH253283   6.671   2.322   0.406 -0.7563 -0.1391  0.4742
10623TIP3    H153284   6.707   2.244   0.449 -0.1260  0.8023  1.7219
10623TIP3    H253285   6.745   2.383   0.403 -1.9916  1.5705  2.3916
10624TIP3   OH253286   2.343   5.555  13.794  0.4728  0.3567 -0.0965
10624TIP3    H153287   2.317   5.622  13.730 -0.8071  1.6633  1.7022
10624TIP3    H253288   2.260   5.523  13.829  1.1502 -0.0638  1.1509
10625TIP3   OH253289   1.208   4.090  17.146  0.4002 -0.9136 -0.2858
10625TIP3    H153290   1.229   4.159  17.083  0.4997 -1.6026 -1.0367
10625TIP3    H253291   1.130   4.121  17.192  0.7393 -0.0855 -0.2546
10626TIP3   OH253292   5.711   1.705  11.617 -0.7624 -0.5285 -0.1671
10626TIP3    H153293   5.719   1.716  11.712 -0.4636 -1.0497 -0.1264
10626TIP3    H253294   5.666   1.621  11.606 -1.1351 -0.2899 -0.4830
10627TIP3   OH253295   0.094   0.082   2.252 -0.5555 -0.1098  0.6262
10627TIP3    H153296   0.019   0.122   2.208 -0.1836  0.3230  0.3794
10627TIP3    H253297   0.122   0.013   2.192 -0.0169  0.5133  0.1465
10628TIP3   OH253298   3.879   2.931  14.719 -0.1285 -0.1688  0.0107
10628TIP3    H153299   3.832   3.012  14.699 -1.9180 -1.1565 -0.0475
10628TIP3    H253300   3.964   2.959  14.750 -1.2528  1.8116  1.5565
10629TIP3   OH253301   3.123   6.058  13.455  0.0414 -0.6914  0.1601
10629TIP3    H153302   3.128   5.966  13.431 -0.0551 -0.2356 -1.7994
10629TIP3    H253303   3.190   6.101  13.400 -0.4369  0.5003  0.4656
10630TIP3   OH253304   5.808   3.279  11.173  0.0775  0.2408 -0.4250
10630TIP3    H153305   5.763   3.264  11.090 -1.5308  0.4321  0.3655
10630TIP3    H253306   5.745   3.250  11.240  1.2336  0.3140  0.7340
10631TIP3   OH253307   1.254   1.937  13.105 -0.3675  0.2798 -0.5385
10631TIP3    H153308   1.218   1.936  13.016  2.4733  0.4456 -1.7896
10631TIP3    H253309   1.270   1.845  13.125  0.5753  0.3498 -0.9262
10632TIP3   OH253310   6.134   6.375   1.390 -0.1563  0.3554  0.0426
10632TIP3    H153311   6.172   6.350   1.306 -0.4361 -0.3551  0.1224
10632TIP3    H253312   6.094   6.295   1.423  0.4556  0.4724  1.1202
10633TIP3   OH253313   1.015   3.457   0.790  0.4074 -0.7555 -0.0509
10633TIP3    H153314   1.021   3.388   0.856 -0.4904 -1.7990 -1.0187
10633TIP3    H253315   0.997   3.411   0.708  0.8313  0.5554 -0.9179
10634TIP3   OH253316   4.631   0.552  10.760  0.0401 -0.0598 -0.3331
10634TIP3    H153317   4.714   0.599  10.759 -0.2609  0.4694 -0.6414
10634TIP3    H253318   4.635   0.494  10.684 -0.2049  0.5534 -0.8178
10635TIP3   OH253319   2.678   6.779  14.306  0.0429 -0.0411  0.4937
10635TIP3    H153320   2.768   6.795  14.334  0.3509 -2.7229  1.3733
10635TIP3    H253321   2.625   6.801  14.382  0.1949 -0.5622  0.7571
10636TIP3   OH253322   1.740   4.895  12.411 -0.3115  0.1927  0.4314
10636TIP3    H153323   1.810   4.861  12.467 -1.5175  0.7621  2.3680
10636TIP3    H253324   1.693   4.817  12.383  0.5978 -0.1371 -0.2371
10637TIP3   OH253325   3.324   0.899  14.831 -0.0021 -0.3328 -0.2793
10637TIP3    H153326   3.377   0.978  14.822  0.5866 -0.8778 -1.7719
10637TIP3    H253327   3.383   0.827  14.810 -0.7015 -1.1460  0.4539
10638TIP3   OH253328   6.161   2.899   0.475  0.4567 -0.1510 -0.2864
10638TIP3    H153329   6.102   2.967   0.444 -0.0997  0.8522  2.6663
10638TIP3    H253330   6.199   2.861   0.395  0.0614  2.9216 -2.0742
10639TIP3   OH253331   3.649   2.988   6.037  0.0120 -0.0968  0.9414
10639TIP3    H153332   3.600   2.908   6.059 -1.0685  0.9122  2.4070
10639TIP3    H253333   3.642   3.042   6.116 -0.9224  2.2578 -0.6691
10640TIP3   OH253334   4.381   2.249   3.690  0.2158  0.7091 -0.1707
10640TIP3    H153335   4.329   2.325   3.664  0.5531  1.1075  0.3136
10640TIP3    H253336   4.451   2.244   3.625 -0.2928  0.2954 -0.7026
10641TIP3   OH253337   6.125   4.143  15.579 -0.1735 -0.2973  0.0900
10641TIP3    H153338   6.045   4.134  15.526  0.4919  0.9284 -1.1854
10641TIP3    H253339   6.133   4.059  15.624 -3.1058  0.1110  1.6169
10642TIP3   OH253340   0.118   0.814  12.548 -0.3800  0.4881 -0.9931
10642TIP3    H153341   0.070   0.896  12.540 -1.5298 -0.2111 -1.6032
10642TIP3    H253342   0.077   0.769  12.623 -0.9891 -0.2847 -1.7596
10643TIP3   OH253343   4.810   5.382   3.920 -0.2202  0.3058  0.2533
10643TIP3    H153344   4.870   5.388   3.995 -0.3513  0.0208  0.3839
10643TIP3    H253345   4.852   5.321   3.860  0.8188  1.9863 -0.7951
10644TIP3   OH253346   5.774   0.597   0.106 -0.0455  0.1463  0.0518
10644TIP3    H153347   5.697   0.651   0.123 -0.1375  0.4849 -1.3075
10644TIP3    H253348   5.841   0.630   0.167 -0.4797  0.9548  0.0957
10645TIP3   OH253349   6.631   5.343   1.998 -0.4602  0.4532  0.0058
10645TIP3    H153350   6.601   5.278   2.061 -1.7973  1.3226  0.3306
10645TIP3    H253351   6.726   5.334   1.996 -0.5303 -0.6617  0.9553
10646TIP3   OH253352   3.966   5.277  12.571  0.2808  0.1572 -0.4442
10646TIP3    H153353   3.890   5.231  12.608 -0.4021  1.7447  0.2446
10646TIP3    H253354   3.973   5.356  12.623  0.6212  1.4604 -2.3605
10647TIP3   OH253355   1.897   1.445  11.462 -0.1993  0.2512  0.3541
10647TIP3    H153356   1.954   1.381  11.418  1.1137  0.6111  1.4462
10647TIP3    H253357   1.908   1.526  11.412 -1.0656 -0.0767 -0.4114
10648TIP3   OH253358   3.244   3.595  11.825  0.4463  0.4471 -0.1784
10648TIP3    H153359   3.236   3.500  11.811 -0.3023  0.5483 -0.5095
10648TIP3    H253360   3.338   3.611  11.825  0.6235 -0.4486  0.9560
10649TIP3   OH253361   4.253   0.317  12.356 -0.4858  0.8412  0.1720
10649TIP3    H153362   4.252   0.401  12.309 -4.0546 -0.0646 -1.7781
10649TIP3    H253363   4.281   0.253  12.291  1.7236  0.3619  1.5003
10650TIP3   OH253364   5.894   0.167  13.040  0.3129 -0.1705 -0.2016
10650TIP3    H153365   5.914   0.151  13.132 -2.3693 -3.1773  0.0362
10650TIP3    H253366   5.924   0.088  12.995 -1.4774 -0.2824 -1.2939
10651TIP3   OH253367   1.348   0.397   6.641  0.8557 -0.2636  0.2572
10651TIP3    H153368   1.427   0.446   6.618  0.6006  0.3917  0.7484
10651TIP3    H253369   1.277   0.442   6.594  0.4520  0.5631  1.6177
10652TIP3   OH253370   4.506   5.081   1.781  0.6983  0.2968 -0.6415
10652TIP3    H153371   4.537   5.147   1.843 -0.1992  1.2298 -1.1669
10652TIP3    H253372   4.535   5.111   1.696 -0.0567  0.2371 -0.9325
10653TIP3   OH253373   3.016   3.839   6.516 -0.0333 -0.0220  1.0930
10653TIP3    H153374   3.019   3.929   6.547  1.4531  1.3055 -2.3846
10653TIP3    H253375   2.922   3.821   6.502 -0.3746  0.7778  2.2424
10654TIP3   OH253376   4.248   0.185  11.123  0.7176  0.1371  0.2185
10654TIP3    H153377   4.217   0.214  11.209  0.7626  1.8505 -0.3223
10654TIP3    H253378   4.226   0.092  11.121 -0.6467  0.3920  1.4922
10655TIP3   OH253379   0.977   2.732  16.138 -0.1169  0.5022 -0.1058
10655TIP3    H153380   0.913   2.684  16.190 -0.6354  1.3570  0.0610
10655TIP3    H253381   0.986   2.816  16.182  0.6867  0.6170 -0.4614
10656TIP3   OH253382   6.746   6.607  15.868 -0.2999  0.2535 -0.4162
10656TIP3    H153383   6.730   6.696  15.897  0.2374  0.3656 -0.4667
10656TIP3    H253384   6.841   6.597  15.868 -0.3697 -0.5339  0.2482
10657TIP3   OH253385   5.225   0.839   4.074 -0.1497  0.3735  0.1567
10657TIP3    H153386   5.313   0.849   4.039 -0.5207 -0.8537 -1.2462
10657TIP3    H253387   5.238   0.826   4.168  1.3444 -1.5897 -0.2533
10658TIP3   OH253388   0.598   2.103  10.980  0.5537 -0.8611 -0.4228
10658TIP3    H153389   0.542   2.176  10.953 -1.8189 -2.0700  0.9007
10658TIP3    H253390   0.641   2.075  10.899 -0.3964  0.4318 -1.4180
10659TIP3   OH253391   3.531   0.271  15.484 -0.0106 -0.3979 -0.0261
10659TIP3    H153392   3.485   0.211  15.542 -0.2674  0.1426  0.3334
10659TIP3    H253393   3.619   0.234  15.475 -0.0847 -0.6770  0.4128
10660TIP3   OH253394   2.556   3.023   3.160 -0.2143 -0.6253  0.9798
10660TIP3    H153395   2.599   3.070   3.231  0.4322 -1.4033  1.1165
10660TIP3    H253396   2.627   2.981   3.112 -0.6142  0.1083 -0.3043
10661TIP3   OH253397   0.792   6.456  12.871 -0.5348 -0.0742 -0.3226
10661TIP3    H153398   0.794   6.538  12.919 -1.8206  0.3941 -1.0293
10661TIP3    H253399   0.750   6.478  12.787 -0.9748 -1.4573 -0.4906
10662TIP3   OH253400   2.581   0.503   1.456  0.2576 -0.0398  0.5084
10662TIP3    H153401   2.625   0.587   1.469  0.0268  0.1315  0.1954
10662TIP3    H253402   2.573   0.466   1.544  1.7384 -0.4439  0.5038
10663TIP3   OH253403   0.422   5.361   2.046  0.0964 -0.1891  0.6013
10663TIP3    H153404   0.395   5.422   1.977 -3.0039 -2.8748 -0.8933
10663TIP3    H253405   0.457   5.286   1.998  0.0169 -1.1948  2.0604
10664TIP3   OH253406   3.848   2.446  16.470 -0.1411  0.4879  0.2685
10664TIP3    H153407   3.838   2.535  16.504  2.0692  0.1535  2.0412
10664TIP3    H253408   3.911   2.455  16.399  1.6180  0.1403  1.7319
10665TIP3   OH253409   1.222   6.605   3.116  0.0618 -0.1595  0.2812
10665TIP3    H153410   1.155   6.628   3.181  0.2111 -0.6774  0.6236
10665TIP3    H253411   1.257   6.522   3.147 -1.0025 -1.2719 -1.3395
10666TIP3   OH253412   6.612   1.330  15.140 -0.0115 -0.5174  0.3762
10666TIP3    H153413   6.589   1.253  15.192 -0.8710 -0.6573 -0.1732
10666TIP3    H253414   6.626   1.400  15.203  2.1992 -1.4310  0.9945
10667TIP3   OH253415   0.987   4.708   3.493  0.3964 -0.5108 -0.2485
10667TIP3    H153416   1.022   4.757   3.567  1.9996 -0.5622 -0.9292
10667TIP3    H253417   1.043   4.734   3.419  0.0922 -1.9492 -1.0120
10668TIP3   OH253418   6.226   4.470  16.142  0.0173 -0.0657  0.5274
10668TIP3    H153419   6.178   4.436  16.066 -1.4620  2.5636  0.1821
10668TIP3    H253420   6.194   4.417  16.215 -0.7160 -0.7158 -0.2387
10669TIP3   OH253421   0.457   0.689   4.818 -0.6224 -0.0926 -0.2621
10669TIP3    H153422   0.454   0.658   4.728  0.6918 -0.4954 -0.1910
10669TIP3    H253423   0.460   0.609   4.871 -2.8821  0.0931  0.2655
10670TIP3   OH253424   5.623   0.635  13.856  0.5609 -0.1231 -0.1858
10670TIP3    H153425   5.699   0.656  13.802  0.3560  0.4843 -0.2511
10670TIP3    H253426   5.632   0.691  13.933 -0.1902  0.5031 -0.5322
10671TIP3   OH253427   4.772   3.017   3.958 -0.0142 -0.0793 -0.0303
10671TIP3    H153428   4.771   2.938   4.011 -0.2446 -1.1010 -1.4976
10671TIP3    H253429   4.853   3.062   3.985 -0.3142 -0.3489  1.4266
10672TIP3   OH253430   2.505   1.004   5.896 -0.4373  0.4674  0.2546
10672TIP3    H153431   2.557   1.083   5.912  1.9728 -0.5405 -1.8041
10672TIP3    H253432   2.430   1.035   5.847  0.5438  1.5113 -0.6628
10673TIP3   OH253433   2.348   2.754  15.960  0.2877 -0.1510 -0.2489
10673TIP3    H153434   2.322   2.662  15.954  0.9493 -0.3175 -0.6785
10673TIP3    H253435   2.267   2.801  15.980 -0.0113 -0.8535  0.2207
10674TIP3   OH253436   1.153   2.021   1.658  0.4609 -0.3897  0.1801
10674TIP3    H153437   1.128   2.086   1.723 -0.1537 -0.4126 -0.0263
10674TIP3    H253438   1.247   2.007   1.672  0.5786  0.4685  0.2823
10675TIP3   OH253439   3.244   1.913   5.180 -0.2991  0.8668 -0.0628
10675TIP3    H153440   3.278   1.827   5.205  0.8825  1.4566  0.4068
10675TIP3    H253441   3.155   1.895   5.148 -0.4683 -0.3898  1.0451
10676TIP3   OH253442   5.661   1.569  16.082 -0.0368  0.4631  0.2264
10676TIP3    H153443   5.582   1.586  16.134 -0.4824  1.5818 -0.7840
10676TIP3    H253444   5.714   1.648  16.093  0.4906  0.1266  0.1007
10677TIP3   OH253445   1.494   3.101  14.656  0.0758  0.2814 -0.1392
10677TIP3    H153446   1.478   3.020  14.703 -2.0763  1.1439  0.7210
10677TIP3    H253447   1.523   3.163  14.723  0.1045  0.6669 -0.4986
10678TIP3   OH253448   2.720   0.100   4.569  0.7830  0.3348  0.0726
10678TIP3    H153449   2.628   0.103   4.595  0.8401  0.4829  0.2589
10678TIP3    H253450   2.748   0.011   4.588  0.9964  0.6070  1.1188
10679TIP3   OH253451   5.675   5.933   6.450 -0.1538  0.9325  0.1467
10679TIP3    H153452   5.672   5.872   6.376 -1.2166  2.2684 -0.9831
10679TIP3    H253453   5.767   5.932   6.478 -0.2999 -1.8281  0.7948
10680TIP3   OH253454   2.722   1.885  11.259  0.4402 -0.3114  0.0976
10680TIP3    H153455   2.663   1.843  11.321 -0.1355  1.0241  0.4785
10680TIP3    H253456   2.704   1.979  11.267 -0.0645 -0.1145 -2.4860
10681TIP3   OH253457   6.057   0.933   6.202 -0.4115 -0.0515  0.2212
10681TIP3    H153458   6.041   0.853   6.251  0.5389 -0.0327  0.5767
10681TIP3    H253459   6.076   0.999   6.269  0.3847  0.0936 -0.1321
10682TIP3   OH253460   5.500   5.807   0.785  0.3644  0.1824  0.0797
10682TIP3    H153461   5.548   5.889   0.775  1.4051 -0.5661 -1.5498
10682TIP3    H253462   5.569   5.740   0.795 -0.3104 -0.7984 -1.4064
10683TIP3   OH253463   1.256   3.228  15.276 -0.2513 -0.3194  0.2647
10683TIP3    H153464   1.337   3.262  15.239 -0.3859  1.1466  1.2137
10683TIP3    H253465   1.206   3.198  15.200  0.8167 -0.4511 -0.4105
10684TIP3   OH253466   4.567   0.747  15.254  0.1818 -0.3402  0.2261
10684TIP3    H153467   4.487   0.726  15.205  0.2049  0.2419 -0.0700
10684TIP3    H253468   4.631   0.683  15.222 -0.2090 -0.9370  0.6067
10685TIP3   OH253469   4.829   2.735  16.904 -0.1299  0.1407  0.2572
10685TIP3    H153470   4.811   2.734  16.998 -1.1609 -0.0191  0.0631
10685TIP3    H253471   4.770   2.670  16.867  0.0128  0.4600 -0.5530
10686TIP3   OH253472   1.234   4.437  14.043  0.0286 -0.4066  0.5196
10686TIP3    H153473   1.157   4.417  13.990  0.7296  0.4233 -0.8687
10686TIP3    H253474   1.279   4.353  14.051  0.2966 -0.4315 -0.8858
10687TIP3   OH253475   0.767   2.267  14.999 -0.0857  0.0959 -0.1482
10687TIP3    H153476   0.814   2.347  14.976  1.7731  0.2126  3.4120
10687TIP3    H253477   0.820   2.196  14.962  0.4102  0.3920 -0.0090
10688TIP3   OH253478   4.156   0.156   0.578 -0.1439 -0.0696 -0.1142
10688TIP3    H153479   4.096   0.170   0.504 -0.2746 -2.2377 -0.4901
10688TIP3    H253480   4.232   0.211   0.558  0.1688 -1.1875 -2.3254
10689TIP3   OH253481   3.865   0.986   3.434  0.0229 -0.1371  0.0890
10689TIP3    H153482   3.779   0.981   3.393  0.2043  0.6456 -0.3999
10689TIP3    H253483   3.900   0.897   3.426  0.3657  0.1506 -2.1843
10690TIP3   OH253484   1.405   6.639  15.730  0.0002  0.2000  0.3636
10690TIP3    H153485   1.474   6.641  15.663  0.4173  0.7872  0.7979
10690TIP3    H253486   1.348   6.567  15.703  0.6729 -0.1728 -0.1106
10691TIP3   OH253487   3.238   6.377   6.662 -0.8216 -0.7435  0.3310
10691TIP3    H153488   3.155   6.354   6.702 -1.9287  2.5158  0.1365
10691TIP3    H253489   3.284   6.428   6.728 -1.3571  2.0408 -1.2702
10692TIP3   OH253490   4.644   2.031   5.853  0.2499  0.1681 -0.5085
10692TIP3    H153491   4.617   1.990   5.770  0.4758  1.3873 -1.2112
10692TIP3    H253492   4.565   2.030   5.906 -0.1366  0.1497 -1.0672
10693TIP3   OH253493   4.982   2.375  14.127  0.1275 -0.6508 -0.1342
10693TIP3    H153494   4.916   2.341  14.068 -0.2080 -0.4587  0.1290
10693TIP3    H253495   4.933   2.409  14.202  0.5984 -2.5993  1.1651
10694TIP3   OH253496   2.566   1.375  16.792  0.0196 -0.3676  0.7467
10694TIP3    H153497   2.651   1.343  16.761 -0.1358 -1.2420  1.1881
10694TIP3    H253498   2.564   1.467  16.767  0.8419 -0.4949  0.1869
10695TIP3   OH253499   5.567   0.214  11.986  0.0694  1.1332  0.0938
10695TIP3    H153500   5.602   0.127  11.965  1.6268  1.8688 -0.5098
10695TIP3    H253501   5.472   0.204  11.979  0.2452 -0.3942 -0.4708
10696TIP3   OH253502   5.897   2.858  15.061 -0.5623  0.2425 -0.0410
10696TIP3    H153503   5.911   2.767  15.035 -0.2674  0.3308 -0.1902
10696TIP3    H253504   5.823   2.887  15.007  0.3278  0.5584 -1.1226
10697TIP3   OH253505   1.862   5.926   4.579 -0.6521  0.5905  0.3743
10697TIP3    H153506   1.775   5.919   4.617 -1.4141  0.6069 -1.3037
10697TIP3    H253507   1.904   5.842   4.598 -2.4873 -1.0269 -2.1968
10698TIP3   OH253508   2.034   3.942   6.276 -0.1105 -0.0924  0.4304
10698TIP3    H153509   2.118   3.897   6.281 -0.8939 -1.5744  0.6849
10698TIP3    H253510   1.982   3.890   6.215 -0.8379  0.8328  0.2358
10699TIP3   OH253511   0.539   1.159   6.004 -0.3028  0.3149 -0.3924
10699TIP3    H153512   0.559   1.117   5.921 -3.1094 -1.2080 -0.3823
10699TIP3    H253513   0.471   1.223   5.984  1.0294  2.0500  0.3118
10700TIP3   OH253514   5.256   2.464  16.135  0.2297 -0.0817 -0.3251
10700TIP3    H153515   5.271   2.558  16.144  0.2036 -0.1732  0.8009
10700TIP3    H253516   5.339   2.424  16.164 -0.1834 -0.4311  0.4096
10701TIP3   OH253517   3.731   4.568   5.126 -0.1495  0.1230 -0.0992
10701TIP3    H153518   3.804   4.629   5.134  0.5221 -0.5063 -1.2138
10701TIP3    H253519   3.686   4.573   5.211  1.6805 -0.0934  0.9223
10702TIP3   OH253520   4.618   1.827   4.312  0.0211 -0.3422  0.4489
10702TIP3    H153521   4.674   1.856   4.241  0.7526 -3.6786 -0.4981
10702TIP3    H253522   4.630   1.732   4.316 -2.3465 -0.6858  3.0207
10703TIP3   OH253523   6.458   3.400  13.220 -0.3525  0.0072 -0.5549
10703TIP3    H153524   6.402   3.420  13.295 -2.2582 -0.5521 -1.7709
10703TIP3    H253525   6.457   3.480  13.167  1.5616  0.6529  0.3049
10704TIP3   OH253526   3.970   3.675  11.467 -0.4182 -0.6531 -0.1197
10704TIP3    H153527   3.890   3.718  11.498 -0.9876 -1.3424 -0.5905
10704TIP3    H253528   3.991   3.611  11.535 -1.6448 -2.1372 -1.0516
10705TIP3   OH253529   1.996   6.472   5.487  0.1168  0.3103 -0.0062
10705TIP3    H153530   2.018   6.464   5.579  0.1528  0.6428  0.0165
10705TIP3    H253531   2.021   6.388   5.448 -0.2534  0.0326  0.3570
10706TIP3   OH253532   3.901   4.691  12.216  0.2141  0.3196  0.5296
10706TIP3    H153533   3.938   4.602  12.222  0.0252  0.2398  0.5146
10706TIP3    H253534   3.857   4.692  12.131 -0.5702  0.1270  0.9244
10707TIP3   OH253535   3.284   5.488   2.272 -0.1372  0.0905  0.0862
10707TIP3    H153536   3.378   5.470   2.265 -0.5598 -1.6899 -2.1589
10707TIP3    H253537   3.267   5.487   2.366  1.7089 -2.0682  0.4967
10708TIP3   OH253538   3.451   1.084   2.880 -0.1675  0.4420  0.1425
10708TIP3    H153539   3.481   1.013   2.823  1.7196 -0.8314  2.5160
10708TIP3    H253540   3.498   1.161   2.849  0.3960 -0.0948 -0.3752
10709TIP3   OH253541   3.173   4.360  14.119  0.1097 -0.6221  0.5075
10709TIP3    H153542   3.164   4.387  14.211  1.0024  1.6709 -0.0046
10709TIP3    H253543   3.103   4.407  14.074  1.7011  0.9259 -0.4342
10710TIP3   OH253544   2.953   6.183  15.820 -0.1660  0.3190 -0.0846
10710TIP3    H153545   2.882   6.155  15.762  0.6353 -0.3460 -0.7766
10710TIP3    H253546   3.033   6.153  15.776  0.4601 -0.4086  1.4585
10711TIP3   OH253547   6.130   0.035   5.911 -0.4429  0.3485  0.4762
10711TIP3    H153548   6.038   0.031   5.937 -0.5361 -0.5776  0.0298
10711TIP3    H253549   6.151   0.128   5.910 -1.5349  0.6012  0.0560
10712TIP3   OH253550   1.080   5.776   0.412 -0.3359 -0.4467  0.2637
10712TIP3    H153551   1.154   5.836   0.401 -1.1965  0.4486 -0.8693
10712TIP3    H253552   1.007   5.834   0.438 -0.9874 -1.1150 -0.0578
10713TIP3   OH253553   2.022   6.023  13.097 -0.3530 -0.6006  0.0720
10713TIP3    H153554   1.961   6.027  13.171 -1.5472 -0.8167 -0.8602
10713TIP3    H253555   2.054   5.933  13.096  0.2741 -0.3933  0.7787
10714TIP3   OH253556   2.771   4.948   1.433 -0.2227  0.8382  0.0366
10714TIP3    H153557   2.721   4.937   1.353  1.0951 -0.2456 -0.6966
10714TIP3    H253558   2.838   4.879   1.428  0.8307  1.7289  1.3270
10715TIP3   OH253559   4.527   1.622   6.451 -0.0640  0.4358  0.3596
10715TIP3    H153560   4.448   1.664   6.418  0.1845  0.6264  0.0031
10715TIP3    H253561   4.593   1.638   6.384  0.4476  0.8287  0.9453
10716TIP3   OH253562   0.478   0.603   5.277  0.6583 -0.0398  0.1620
10716TIP3    H153563   0.436   0.520   5.300  0.4818 -0.1270 -0.4554
10716TIP3    H253564   0.414   0.647   5.222  1.1168  0.1187 -0.2448
10717TIP3   OH253565   1.865   3.640  15.637  0.0815  0.1617 -0.0739
10717TIP3    H153566   1.823   3.614  15.555 -0.1326  1.1221 -0.2780
10717TIP3    H253567   1.959   3.630  15.619 -0.0127 -1.6029  0.2551
10718TIP3   OH253568   5.303   3.792  15.076 -0.0211  0.4089  0.0699
10718TIP3    H153569   5.349   3.708  15.079  0.4260  0.6836  1.2348
10718TIP3    H253570   5.368   3.853  15.041  0.6248  0.8376  1.8969
10719TIP3   OH253571   5.488   3.959   4.060 -0.7852  0.6200  0.4274
10719TIP3    H153572   5.420   3.904   4.100 -0.3149  0.5238  1.1204
10719TIP3    H253573   5.491   4.037   4.116 -0.7813  0.9228  0.0077
10720TIP3   OH253574   5.820   2.833   1.146  0.0340  0.3197 -0.0204
10720TIP3    H153575   5.812   2.912   1.092 -0.5375  0.3358  0.0832
10720TIP3    H253576   5.914   2.826   1.164 -0.0858  2.2409  1.8003
10721TIP3   OH253577   4.983   1.831   0.667  0.4130 -0.2157 -0.8662
10721TIP3    H153578   4.918   1.901   0.673 -0.1566 -0.8648  2.6586
10721TIP3    H253579   4.951   1.775   0.595 -1.8327  0.5709 -0.5772
10722TIP3   OH253580   2.408   3.572  12.258  0.9915 -0.2491 -0.2005
10722TIP3    H153581   2.364   3.652  12.287  1.3894 -0.1790  0.2329
10722TIP3    H253582   2.352   3.537  12.189  0.7436  0.3307 -0.2983
10723TIP3   OH253583   2.373   2.968  16.621  0.2359  0.4132  0.3009
10723TIP3    H153584   2.371   3.038  16.686 -1.3610 -0.0501  0.8149
10723TIP3    H253585   2.348   3.011  16.539  0.6849  0.7075  0.3170
10724TIP3   OH253586   0.033   2.484  11.563 -0.5009  0.2593  0.5422
10724TIP3    H153587   0.087   2.410  11.536 -1.6406  0.0346 -1.3025
10724TIP3    H253588  -0.055   2.463  11.530 -0.7985  2.5262 -0.2961
10725TIP3   OH253589   3.950   5.707   0.581 -0.1788  0.2471 -0.0233
10725TIP3    H153590   3.939   5.755   0.499 -2.0319 -0.3764 -0.1931
10725TIP3    H253591   3.960   5.615   0.554  1.2043  0.2465  0.3939
10726TIP3   OH253592   2.461   5.212  13.363 -0.6651  0.3467 -0.3758
10726TIP3    H153593   2.513   5.275  13.314 -0.0822  0.3873  0.2941
10726TIP3    H253594   2.429   5.260  13.439  2.1542 -0.8316  1.7244
10727TIP3   OH253595   3.221   4.938  14.726  0.0891 -0.3540 -0.5037
10727TIP3    H153596   3.155   4.945  14.657  0.1756 -3.6269 -1.0932
10727TIP3    H253597   3.294   4.992  14.696 -1.3262  1.3407 -1.0455
10728TIP3   OH253598   0.987   5.532  13.387  0.1933  0.0759 -0.5363
10728TIP3    H153599   0.903   5.538  13.433  1.2855  0.6275  1.5269
10728TIP3    H253600   0.978   5.591  13.312 -1.2993  0.0018 -0.4460
10729TIP3   OH253601   5.634   3.604  15.836 -0.0041  0.1143  0.1596
10729TIP3    H153602   5.614   3.692  15.804  1.0794  0.2629 -0.1632
10729TIP3    H253603   5.720   3.584  15.798 -0.6835 -1.5120 -0.6606
10730TIP3   OH253604   2.870   1.347  14.505 -0.2946 -0.2267 -0.5440
10730TIP3    H153605   2.920   1.429  14.509  0.7490 -0.8096 -0.9453
10730TIP3    H253606   2.931   1.286  14.463 -0.1994 -1.8247  1.7682
10731TIP3   OH253607   0.024   4.871  17.119 -0.1160 -0.0103 -0.0559
10731TIP3    H153608   0.106   4.863  17.070 -0.2879 -2.4231 -0.1004
10731TIP3    H253609   0.051   4.887  17.209  0.5179 -1.6346  0.0901
10732TIP3   OH253610   0.560   5.186   6.508  0.1824  0.4338 -0.0651
10732TIP3    H153611   0.556   5.111   6.450  0.1500  2.0173 -2.2433
10732TIP3    H253612   0.653   5.198   6.527  0.2343  0.1815 -0.1618
10733TIP3   OH253613   0.719   2.126   1.876 -0.2678  0.3250 -0.0824
10733TIP3    H153614   0.673   2.168   1.949 -1.0660  0.7608 -0.8238
10733TIP3    H253615   0.649   2.085   1.824  0.3945 -1.0336  0.0492
10734TIP3   OH253616   3.400   0.963   3.119  0.7034 -0.3812  0.1911
10734TIP3    H153617   3.440   1.002   3.041 -0.3733  1.8738  0.6892
10734TIP3    H253618   3.392   1.036   3.181 -0.8585 -1.5451  1.4436
10735TIP3   OH253619   1.192   6.204   4.203 -0.1323 -0.2959 -0.5573
10735TIP3    H153620   1.222   6.293   4.219 -2.1533  0.3172  0.0521
10735TIP3    H253621   1.163   6.204   4.112  1.1967 -0.7754 -1.0153
10736TIP3   OH253622   1.270   6.630   4.858  0.5727  0.1284  0.5983
10736TIP3    H153623   1.175   6.626   4.870  0.4545 -1.4445 -0.5214
10736TIP3    H253624   1.286   6.583   4.776  2.2651  1.0000  0.3715
10737TIP3   OH253625   1.167   6.362  16.444  0.3131  0.1176  0.4687
10737TIP3    H153626   1.222   6.393  16.516  0.4287  1.9636 -0.3497
10737TIP3    H253627   1.214   6.388  16.365  0.2647 -2.0114 -0.3016
10738TIP3   OH253628   2.755   4.640   0.022 -0.5370 -0.1622  0.1507
10738TIP3    H153629   2.849   4.642   0.004 -0.5690 -0.6731 -0.1065
10738TIP3    H253630   2.748   4.656   0.116 -0.0018 -2.7780  0.7179
10739TIP3   OH253631   2.919   5.882   0.332  0.3789  0.3861  0.0822
10739TIP3    H153632   2.993   5.841   0.287 -0.5935 -0.7592 -0.5521
10739TIP3    H253633   2.882   5.942   0.267  1.3705  1.7749  0.7662
10740TIP3   OH253634   4.334   1.992   3.312  0.2867 -0.1843  0.1114
10740TIP3    H153635   4.325   1.970   3.404  0.8488  0.6851  0.3795
10740TIP3    H253636   4.260   1.947   3.270  0.2862 -0.9533  0.9068
10741TIP3   OH253637   3.438   1.675   1.416  0.1266 -0.0414  0.0661
10741TIP3    H153638   3.415   1.587   1.388  0.1349  0.3154 -1.1364
10741TIP3    H253639   3.436   1.727   1.336  0.0936  1.0615  0.7579
10742TIP3   OH253640   0.597   0.218   1.117  0.0729 -0.3679 -0.0591
10742TIP3    H153641   0.686   0.206   1.084 -0.2146 -1.8449 -0.3557
10742TIP3    H253642   0.551   0.136   1.095 -1.7028  0.8062 -0.9598
10743TIP3   OH253643   2.146   6.507  12.415  0.5683 -0.0924 -0.0573
10743TIP3    H153644   2.130   6.423  12.373  0.2072  0.4613 -1.0737
10743TIP3    H253645   2.211   6.489  12.483  0.9331 -1.0732 -0.6550
10744TIP3   OH253646   3.853   4.905  16.903  0.0024  0.0822 -0.5816
10744TIP3    H153647   3.792   4.897  16.830  0.7492 -0.4465 -1.1688
10744TIP3    H253648   3.926   4.957  16.869 -0.3969  1.2718  0.3083
10745TIP3   OH253649   4.620   3.284   4.450  0.2014 -0.2970  0.6100
10745TIP3    H153650   4.661   3.235   4.521 -0.1329 -0.1597  0.9007
10745TIP3    H253651   4.583   3.362   4.492 -0.1453 -0.2968  0.3142
10746TIP3   OH253652   6.239   4.433  12.547 -0.6772  0.1521  0.3763
10746TIP3    H153653   6.269   4.479  12.469  0.7591 -0.4992  0.5048
10746TIP3    H253654   6.291   4.472  12.619  0.0918 -1.1674  0.5733
10747TIP3   OH253655   4.047   4.446  13.505  0.3582  0.4268 -0.4963
10747TIP3    H153656   4.126   4.402  13.536  0.5153  2.0204  1.5685
10747TIP3    H253657   3.986   4.441  13.579 -1.4315 -0.5141 -1.9342
10748TIP3   OH253658   5.253   1.431   5.782  0.4113 -0.7671 -0.4756
10748TIP3    H153659   5.265   1.442   5.876  0.7058  0.1921 -0.6120
10748TIP3    H253660   5.168   1.388   5.773 -0.7201  1.2191  0.1561
10749TIP3   OH253661   1.119   3.743  15.604 -0.1312 -0.9399 -0.0824
10749TIP3    H153662   1.156   3.675  15.660  0.0618 -0.8398 -0.0842
10749TIP3    H253663   1.179   3.747  15.530  0.7229  0.2514  0.6196
10750TIP3   OH253664   6.636   0.027   3.063  0.3032 -0.4072 -0.2862
10750TIP3    H153665   6.636  -0.007   2.974 -0.5106  0.2848 -0.5622
10750TIP3    H253666   6.632   0.122   3.053 -0.6014 -0.3508  0.4834
10751TIP3   OH253667   6.726   1.882  14.658 -0.4714 -0.0025 -0.3175
10751TIP3    H153668   6.663   1.923  14.717 -1.9423 -1.2386 -0.9596
10751TIP3    H253669   6.811   1.896  14.700 -1.3117  0.5066  1.2907
10752TIP3   OH253670   5.797   5.637   1.831 -0.3309 -0.1522  0.3858
10752TIP3    H153671   5.799   5.671   1.921 -1.1445 -0.7149  0.6310
10752TIP3    H253672   5.797   5.542   1.841  0.8258 -0.2379 -0.2653
10753TIP3   OH253673   5.829   3.272  13.815 -0.0435  0.4011  0.3537
10753TIP3    H153674   5.924   3.268  13.801  0.5559 -1.0679  3.7889
10753TIP3    H253675   5.814   3.359  13.849 -0.3734  1.3875 -2.0886
10754TIP3   OH253676   3.241   5.708   2.078 -0.1914 -0.6097  0.4489
10754TIP3    H153677   3.204   5.648   2.014 -2.9881  2.8579 -1.5726
10754TIP3    H253678   3.227   5.664   2.162 -1.3393 -3.0851 -0.9214
10755TIP3   OH253679   3.860   0.208   1.777 -0.5458 -0.0526  0.0847
10755TIP3    H153680   3.931   0.180   1.834  0.3794 -0.2136 -1.1028
10755TIP3    H253681   3.872   0.302   1.767 -0.4283 -0.0975 -0.2075
10756TIP3   OH253682   2.701   0.887   5.696  0.4976  0.5574  0.0537
10756TIP3    H153683   2.651   0.912   5.619 -0.7153  1.3524  1.0769
10756TIP3    H253684   2.664   0.938   5.768  0.5370 -1.2961  1.4794
10757TIP3   OH253685   2.108   2.155  16.182 -0.0421  0.6218  0.4512
10757TIP3    H153686   2.155   2.214  16.241 -2.5671  2.2018  1.0180
10757TIP3    H253687   2.030   2.128  16.232 -0.3947 -0.9659 -0.8595
10758TIP3   OH253688   5.706   6.594   3.583  0.1498 -0.3542  0.1818
10758TIP3    H153689   5.679   6.624   3.669 -1.5433 -0.9509 -0.1122
10758TIP3    H253690   5.786   6.544   3.599  0.7857  0.9059  1.1661
10759TIP3   OH253691   4.159   5.422   5.398 -0.4762 -0.4389 -0.0129
10759TIP3    H153692   4.144   5.495   5.338 -1.2823 -0.7990 -0.2616
10759TIP3    H253693   4.166   5.463   5.484  3.2867  0.3872 -0.5523
10760TIP3   OH253694   0.917   2.612  15.840 -0.9752 -0.7216 -0.3194
10760TIP3    H153695   0.855   2.572  15.779 -2.6311 -2.1002  2.1208
10760TIP3    H253696   0.865   2.629  15.919  1.1734  0.5433  0.9058
10761TIP3   OH253697   1.468   5.239  12.877 -0.1022 -0.4162  0.2983
10761TIP3    H153698   1.460   5.295  12.800 -0.4281  1.6600  1.7852
10761TIP3    H253699   1.532   5.172  12.851 -0.8720 -0.3417 -2.0553
10762TIP3   OH253700   5.778   2.215   3.871 -0.9239  0.3468  0.1900
10762TIP3    H153701   5.868   2.248   3.880 -0.4757  0.3377 -3.1619
10762TIP3    H253702   5.723   2.289   3.897 -0.1017 -0.0057  3.4402
10763TIP3   OH253703   1.848   3.110  13.091  0.5448  0.2490  0.3247
10763TIP3    H153704   1.931   3.067  13.067 -0.4258 -1.5589 -0.0212
10763TIP3    H253705   1.848   3.110  13.186  0.4023 -0.9571  0.3479
10764TIP3   OH253706   3.350   3.141  15.752  0.3112 -0.2325 -0.6108
10764TIP3    H153707   3.396   3.159  15.834 -1.5336  1.0309  0.2035
10764TIP3    H253708   3.263   3.179  15.764 -0.3090 -0.8028 -2.8350
10765TIP3   OH253709   4.896   2.671  14.083 -0.1072 -0.2987 -0.4409
10765TIP3    H153710   4.959   2.599  14.077  0.7096  0.4312 -0.8545
10765TIP3    H253711   4.871   2.674  14.175 -0.1210 -1.0794 -0.4149
10766TIP3   OH253712   6.622   0.955   4.692 -0.4874 -0.0794 -0.3006
10766TIP3    H153713   6.629   0.936   4.785  0.5053 -0.3737 -0.4242
10766TIP3    H253714   6.705   0.927   4.655 -0.6872  0.4577 -1.2048
10767TIP3   OH253715   6.467   3.323  12.954 -0.2220 -0.3097 -0.2159
10767TIP3    H153716   6.499   3.335  13.043 -0.4540  2.3912 -0.4051
10767TIP3    H253717   6.493   3.403  12.908 -2.1733 -0.5589 -1.9210
10768TIP3   OH253718   3.917   5.026   3.939  0.1257 -0.0522 -0.0055
10768TIP3    H153719   3.923   4.933   3.915  2.4422  0.9048 -4.1464
10768TIP3    H253720   4.006   5.049   3.968 -0.8528  0.6265  2.7927
10769TIP3   OH253721   6.510   3.659  11.601  0.5118 -0.1666 -0.1544
10769TIP3    H153722   6.510   3.650  11.505 -0.3096 -0.4496 -0.1415
10769TIP3    H253723   6.596   3.694  11.622  0.3816  0.7694 -1.0828
10770TIP3   OH253724   6.751   2.153   3.075  0.1165  0.9517 -0.0748
10770TIP3    H153725   6.658   2.137   3.089  0.1188 -0.1225 -1.0619
10770TIP3    H253726   6.760   2.248   3.075 -0.9937  1.0668 -0.0322
10771TIP3   OH253727   3.993   5.667  12.160  0.5281  0.5844 -0.6605
10771TIP3    H153728   3.973   5.662  12.253  1.5895 -0.8004 -0.4714
10771TIP3    H253729   3.924   5.615  12.118  1.6190 -1.1989 -0.3436
10772TIP3   OH253730   6.256   6.121   3.373 -0.6335 -0.4778  0.1966
10772TIP3    H153731   6.328   6.114   3.436 -0.2398  0.6375 -0.1024
10772TIP3    H253732   6.200   6.190   3.408 -0.4739  0.0700 -0.5841
10773TIP3   OH253733   2.858   1.900   0.627 -0.2543 -0.2376  0.7514
10773TIP3    H153734   2.794   1.956   0.583  0.5710  1.9415  2.1409
10773TIP3    H253735   2.905   1.959   0.686  0.0217 -2.5898  3.1078
10774TIP3   OH253736   3.060   2.801   5.944 -0.0507 -0.4914  0.1840
10774TIP3    H153737   3.079   2.794   6.038  3.0756 -1.0682 -0.3784
10774TIP3    H253738   3.069   2.895   5.925  0.0969 -0.4750  0.3289
10775TIP3   OH253739   4.000   3.962   4.068  0.1688 -0.0181 -0.0136
10775TIP3    H153740   3.961   4.000   4.147  0.3588  1.3045 -0.5352
10775TIP3    H253741   4.089   3.939   4.095  0.0980  0.0246  0.2639
10776TIP3   OH253742   1.043   4.330  10.853 -0.0783  0.1546  0.1684
10776TIP3    H153743   1.045   4.372  10.767 -0.4885  0.9497  0.5403
10776TIP3    H253744   0.954   4.297  10.861 -1.6335  4.1600  2.1589
10777TIP3   OH253745   3.840   3.218   1.519  0.5126  0.4415  0.2383
10777TIP3    H153746   3.769   3.158   1.541  1.9226 -0.6429  2.0223
10777TIP3    H253747   3.807   3.304   1.542 -0.1706 -0.0698  1.2000
10778TIP3   OH253748   4.146   1.541  15.189  0.7645  0.0709 -0.3139
10778TIP3    H153749   4.054   1.546  15.166  0.6853  1.6933  0.2602
10778TIP3    H253750   4.148   1.499  15.274  0.6233 -0.6006 -0.6347
10779TIP3   OH253751   4.311   5.541   2.779  0.0860  0.5611 -0.1209
10779TIP3    H153752   4.361   5.474   2.825 -0.6404 -1.4747 -2.0842
10779TIP3    H253753   4.233   5.494   2.746 -1.0671  2.6700 -0.5694
10780TIP3   OH253754   6.254   1.546   2.110 -0.0626  0.3414 -0.6252
10780TIP3    H153755   6.332   1.544   2.165 -0.1139  0.6463 -0.5415
10780TIP3    H253756   6.275   1.488   2.037 -0.4599 -1.0639  0.3207
10781TIP3   OH253757   2.520   6.469   3.471 -0.6419  0.4952 -0.0067
10781TIP3    H153758   2.517   6.530   3.545 -1.8674  1.2267 -0.6294
10781TIP3    H253759   2.569   6.515   3.403 -1.5847  0.8211 -0.4841
10782TIP3   OH253760   6.730   0.466   1.487  1.2927 -0.7159  0.3260
10782TIP3    H153761   6.662   0.402   1.509  1.4107 -1.9804 -2.5887
10782TIP3    H253762   6.790   0.464   1.563 -2.0559  0.9122  3.3033
10783TIP3   OH253763   2.209   3.952   5.167  0.4086  0.0923  0.6853
10783TIP3    H153764   2.278   3.927   5.106 -0.5294 -1.1936  0.1086
10783TIP3    H253765   2.131   3.960   5.113 -0.1206  0.4419  1.4851
10784TIP3   OH253766   1.429   3.329  10.550  0.2147  0.3406 -0.2930
10784TIP3    H153767   1.512   3.352  10.592 -0.0740  1.9432 -0.5382
10784TIP3    H253768   1.380   3.282  10.618  0.7317  0.7322  0.3604
10785TIP3   OH253769   3.961   3.739  10.736  0.2214 -0.1973 -0.0278
10785TIP3    H153770   4.008   3.793  10.800  0.1822 -0.0149 -0.1507
10785TIP3    H253771   3.998   3.765  10.651 -0.8429  0.7294 -0.2264
10786TIP3   OH253772   1.270   1.654  12.651 -0.7301 -0.0416  0.1274
10786TIP3    H153773   1.263   1.612  12.737  0.7486  0.7401  0.6737
10786TIP3    H253774   1.264   1.747  12.669  0.0632  0.1528 -0.5362
10787TIP3   OH253775   6.001   5.893  16.796 -0.3651  0.2286 -0.6320
10787TIP3    H153776   5.951   5.949  16.856  0.1571 -0.1587  0.1868
10787TIP3    H253777   6.080   5.943  16.776 -0.5053  0.3273 -0.9254
10788TIP3   OH253778   5.430   4.612   3.452  0.2272 -0.5580  0.5692
10788TIP3    H153779   5.344   4.622   3.412  0.8812  2.0793 -0.3865
10788TIP3    H253780   5.491   4.615   3.379  1.1851 -4.6615  0.9721
10789TIP3   OH253781   0.779   3.847   2.706 -0.3949 -0.3160  0.3069
10789TIP3    H153782   0.855   3.791   2.693  0.7395  0.8855  1.5556
10789TIP3    H253783   0.814   3.930   2.737 -2.1247  0.7171 -0.3137
10790TIP3   OH253784   2.037   6.152   1.154 -0.2278 -0.1506  0.4103
10790TIP3    H153785   2.100   6.135   1.084 -0.0008 -1.5924  0.9249
10790TIP3    H253786   1.971   6.084   1.144 -0.4151 -0.1174  1.3285
10791TIP3   OH253787   6.706   1.752  10.784  0.2620 -0.0493 -0.4574
10791TIP3    H153788   6.775   1.790  10.729  0.3447 -0.0350 -0.3438
10791TIP3    H253789   6.729   1.659  10.792  1.2407  0.2830  1.0197
10792TIP3   OH253790   4.192   1.835   2.786  0.6845 -0.1022  0.4143
10792TIP3    H153791   4.197   1.800   2.697 -0.2669 -1.8227  0.9945
10792TIP3    H253792   4.162   1.925   2.775 -0.8860 -0.7452 -0.9519
10793TIP3   OH253793   6.302   4.805  11.208 -0.5476 -0.5510 -0.4109
10793TIP3    H153794   6.234   4.840  11.150  0.7799  0.2110 -1.5541
10793TIP3    H253795   6.294   4.858  11.288 -0.1745  0.7270 -1.1988
10794TIP3   OH253796   1.866   0.449   4.960  0.6754 -0.5238 -0.1403
10794TIP3    H153797   1.933   0.382   4.945 -0.8550 -2.3756  0.8342
10794TIP3    H253798   1.805   0.438   4.887 -0.8689 -1.9320  1.2888
10795TIP3   OH253799   1.227   2.444   2.601 -0.2500  0.1834  0.0966
10795TIP3    H153800   1.248   2.372   2.542 -0.0163 -0.2745  0.7231
10795TIP3    H253801   1.310   2.466   2.642 -0.0196  1.8236 -1.1681
10796TIP3   OH253802   2.542   3.636   4.497  0.1719  0.1848  0.0118
10796TIP3    H153803   2.465   3.585   4.474 -0.6609  0.6516  1.5809
10796TIP3    H253804   2.525   3.723   4.459  0.0446  0.2124  0.1309
10797TIP3   OH253805   3.926   5.276   1.913 -0.2571 -0.4444  0.2573
10797TIP3    H153806   3.854   5.339   1.918  0.3953  0.2666  1.0111
10797TIP3    H253807   4.004   5.329   1.927  0.5202 -1.0441 -1.5052
10798TIP3   OH253808   0.388   5.310  12.606 -0.0980 -0.2177  0.0720
10798TIP3    H153809   0.299   5.331  12.578  0.0159 -0.4130 -0.4444
10798TIP3    H253810   0.437   5.390  12.593 -0.1498 -0.1723  0.1563
10799TIP3   OH253811   2.583   3.559   0.296 -0.4641  0.0267 -0.3586
10799TIP3    H153812   2.599   3.559   0.201  1.3733  1.6670 -0.1290
10799TIP3    H253813   2.580   3.652   0.319 -0.5156 -0.3534  1.2527
10800TIP3   OH253814   2.177   4.623   4.470  0.1773 -0.3073 -0.4958
10800TIP3    H153815   2.262   4.598   4.435  0.7218 -1.1030  1.2813
10800TIP3    H253816   2.120   4.549   4.451  0.1553 -0.2175 -0.7763
10801TIP3   OH253817   5.820   1.310  17.180 -0.0183  1.3436  0.1502
10801TIP3    H153818   5.791   1.389  17.135  1.6011  1.6600 -0.4103
10801TIP3    H253819   5.901   1.286  17.135 -0.6278 -0.8151  0.1107
10802TIP3   OH253820   4.144   4.301  13.178  0.1425  0.4967 -0.4023
10802TIP3    H153821   4.055   4.327  13.156 -0.4755 -1.0530  0.1133
10802TIP3    H253822   4.174   4.368  13.240 -1.0163  0.5410  0.1453
10803TIP3   OH253823   3.953   3.716  16.194 -0.3048 -0.2329 -0.4650
10803TIP3    H153824   3.876   3.714  16.252 -0.9452  1.8387 -1.1673
10803TIP3    H253825   4.022   3.755  16.248 -0.1854 -0.6514 -0.3152
10804TIP3   OH253826   1.032   4.530  17.148 -0.4154  0.4005 -0.4892
10804TIP3    H153827   1.026   4.559  17.239  1.3012  0.4698 -0.3643
10804TIP3    H253828   1.034   4.611  17.097 -1.4593  0.3613 -0.6182
10805TIP3   OH253829   2.475   3.559  14.115 -0.2916 -0.2294  0.0521
10805TIP3    H153830   2.561   3.524  14.091 -0.4059 -0.3042 -0.2557
10805TIP3    H253831   2.476   3.649  14.081  0.0598  0.1305  0.9790
10806TIP3   OH253832   3.504   1.110  14.830  0.1554  0.6580  0.3049
10806TIP3    H153833   3.470   1.194  14.799 -1.3952  1.3158  3.4328
10806TIP3    H253834   3.599   1.122  14.833  0.0917  1.6745 -0.8852
10807TIP3   OH253835   5.702   6.339  13.735 -0.0934 -0.3363  0.4777
10807TIP3    H153836   5.626   6.282  13.740  1.0696 -1.8498  2.5655
10807TIP3    H253837   5.707   6.380  13.821  1.1211  0.1587  0.1887
10808TIP3   OH253838   3.338   4.022   6.276 -0.1042  0.5363 -0.2015
10808TIP3    H153839   3.405   4.065   6.330  1.7492 -0.4121 -1.6314
10808TIP3    H253840   3.341   3.930   6.304  1.5605 -0.1731 -2.4351
10809TIP3   OH253841   5.185   0.608   0.402 -0.1509  0.0742 -0.2442
10809TIP3    H153842   5.215   0.523   0.435  1.1485  0.3804 -0.5699
10809TIP3    H253843   5.110   0.587   0.347  2.0137 -1.3310 -2.9654
10810TIP3   OH253844   2.957   1.604   3.170 -0.1402 -0.3504 -0.0782
10810TIP3    H153845   3.013   1.653   3.111  1.0720 -2.3940 -0.6969
10810TIP3    H253846   2.873   1.650   3.167  0.4940  0.7731 -1.7841
10811TIP3   OH253847   1.123   1.612  14.253  0.2034 -0.2863  0.1212
10811TIP3    H153848   1.197   1.590  14.310  0.7992  0.2214 -0.4467
10811TIP3    H253849   1.163   1.638  14.170 -0.6548 -1.1868 -0.6084
10812TIP3   OH253850   0.732   1.971  15.542  0.2008  0.3659 -0.1989
10812TIP3    H153851   0.674   2.029  15.494  1.5728  2.7286  0.8185
10812TIP3    H253852   0.731   2.005  15.632  3.8226  1.1961 -0.3330
10813TIP3   OH253853   4.904   1.151   3.101 -0.6141 -0.6060 -0.9130
10813TIP3    H153854   4.829   1.195   3.061 -1.8679 -1.3647  0.5060
10813TIP3    H253855   4.905   1.065   3.059 -1.6813 -1.2518  0.2945
10814TIP3   OH253856   5.020   5.820  11.705  0.4943  0.2259  0.0882
10814TIP3    H153857   4.934   5.862  11.710  0.5373  0.2006  1.2658
10814TIP3    H253858   5.078   5.878  11.754  0.9126 -0.3500  0.2835
10815TIP3   OH253859   2.107   5.466  17.087 -0.3698  0.0012  0.4773
10815TIP3    H153860   2.167   5.524  17.041  0.1171  0.2083  1.3524
10815TIP3    H253861   2.020   5.503  17.070 -0.2851 -0.3896 -0.9169
10816TIP3   OH253862   6.671   2.368   2.702  0.2845  0.1522 -0.0379
10816TIP3    H153863   6.651   2.447   2.752  1.4415  0.6747 -0.3585
10816TIP3    H253864   6.629   2.381   2.618 -2.5900 -1.1994  1.0486
10817TIP3   OH253865   6.705   5.592  11.668  0.6261  0.2034 -0.5420
10817TIP3    H153866   6.670   5.676  11.697 -1.0480 -0.4714 -0.4996
10817TIP3    H253867   6.692   5.592  11.573 -3.2278 -1.5454 -0.2136
10818TIP3   OH253868   6.183   2.148   5.096  0.2358  0.6400  0.4619
10818TIP3    H153869   6.141   2.123   5.179 -0.8343  1.1576  0.0967
10818TIP3    H253870   6.216   2.066   5.061 -0.3985  0.2217  0.8124
10819TIP3   OH253871   3.982   5.671   4.540  0.0236  0.8301  0.1996
10819TIP3    H153872   3.987   5.576   4.551 -0.4205  0.8888  1.0063
10819TIP3    H253873   3.889   5.690   4.540  0.1133  1.4473  1.9340
10820TIP3   OH253874   3.212   0.674   5.255 -0.3295 -0.3869 -0.4291
10820TIP3    H153875   3.120   0.678   5.230 -0.1439  0.2141 -1.0171
10820TIP3    H253876   3.211   0.635   5.343 -1.2274  0.6590  0.0380
10821TIP3   OH253877   5.359   4.434  12.124 -0.1732 -0.0105 -0.1698
10821TIP3    H153878   5.373   4.359  12.182  1.1971  0.7399  0.5129
10821TIP3    H253879   5.439   4.440  12.072  0.3148  1.7539  0.7193
10822TIP3   OH253880   0.924   3.838   4.236  0.1199 -0.4479  0.1521
10822TIP3    H153881   0.830   3.839   4.255  0.3071  1.9025  1.4241
10822TIP3    H253882   0.931   3.807   4.146 -1.8706 -0.7438  0.0619
10823TIP3   OH253883   3.084   2.415  14.182 -0.3703  0.5222  1.2256
10823TIP3    H153884   3.101   2.383  14.270  0.3143  1.1414  1.3301
10823TIP3    H253885   3.078   2.510  14.192 -0.3669  0.5889  0.6221
10824TIP3   OH253886   5.642   1.169  14.856 -0.0207  0.0566  0.4261
10824TIP3    H153887   5.700   1.200  14.926  1.2988 -1.9107  0.2961
10824TIP3    H253888   5.603   1.248  14.820  2.0472  1.4153  1.0206
10825TIP3   OH253889   4.295   3.436   0.740 -0.2981  0.6349 -0.3518
10825TIP3    H153890   4.353   3.447   0.816  0.2256 -1.8481 -0.3372
10825TIP3    H253891   4.353   3.418   0.667 -0.8325  2.5895 -1.3516
10826TIP3   OH253892   0.739   6.387  16.745 -0.9231 -0.1167  0.2326
10826TIP3    H153893   0.784   6.470  16.758 -0.1912 -0.2333 -1.2940
10826TIP3    H253894   0.650   6.412  16.717 -0.7565  0.1515 -0.0628
10827TIP3   OH253895   3.806   5.696   4.898  0.5743  0.1111 -0.2627
10827TIP3    H153896   3.892   5.732   4.919  0.6166  1.1681 -2.0520
10827TIP3    H253897   3.758   5.770   4.859 -0.8404 -0.6868 -0.1062
10828TIP3   OH253898   6.081   2.010  11.471  0.2747 -0.2626  0.3304
10828TIP3    H153899   5.988   1.990  11.468  0.5960 -2.1976  1.2094
10828TIP3    H253900   6.090   2.095  11.428 -1.4327 -1.7039 -3.2711
10829TIP3   OH253901   3.319   2.621   1.458 -0.0852  0.3266  0.4529
10829TIP3    H153902   3.294   2.554   1.395  0.5088 -0.1669  0.7342
10829TIP3    H253903   3.305   2.704   1.411  1.3964 -0.0512 -0.7255
10830TIP3   OH253904   2.218   5.216   1.232  0.0967  0.3586  0.1105
10830TIP3    H153905   2.192   5.268   1.308  0.0598  0.1247  0.2614
10830TIP3    H253906   2.191   5.268   1.156  0.6333  0.8509  0.2473
10831TIP3   OH253907   4.691   1.239   0.826 -1.0287 -0.1842 -0.2317
10831TIP3    H153908   4.732   1.247   0.740  0.2427 -0.8945  0.2777
10831TIP3    H253909   4.657   1.150   0.828 -0.5047 -0.3757  0.2304
10832TIP3   OH253910   6.361   0.326   1.263  0.5044  0.0683 -0.0470
10832TIP3    H153911   6.356   0.413   1.223  0.4516  0.3653  0.5972
10832TIP3    H253912   6.320   0.336   1.349  1.0275 -0.4517  0.2745
10833TIP3   OH253913   1.879   6.356   3.874 -0.3205 -0.2122 -0.7201
10833TIP3    H153914   1.836   6.343   3.958 -0.8776 -1.9525 -1.2261
10833TIP3    H253915   1.807   6.363   3.811  0.1049  0.2002 -1.1720
10834TIP3   OH253916   6.763   2.173  15.062  0.0439  0.0446 -0.3926
10834TIP3    H153917   6.847   2.169  15.016  0.9918  3.2781  0.7742
10834TIP3    H253918   6.762   2.094  15.116  3.4843  0.9241  1.2315
10835TIP3   OH253919   0.308   6.356  15.633  0.0766 -0.3115  0.0081
10835TIP3    H153920   0.247   6.297  15.590 -0.3806  0.0880  0.0974
10835TIP3    H253921   0.379   6.367  15.570  1.1519 -2.4894  0.7757
10836TIP3   OH253922   2.892   0.880  17.002 -0.1400  0.0966  0.0631
10836TIP3    H153923   2.907   0.806  17.061 -0.7276 -1.1805 -1.3071
10836TIP3    H253924   2.797   0.892  17.003 -0.1410  0.1644 -0.4928
10837TIP3   OH253925   5.784   5.105  15.759 -0.0617 -0.0859 -0.5279
10837TIP3    H153926   5.858   5.158  15.731 -0.2155 -0.1284 -1.0294
10837TIP3    H253927   5.794   5.097  15.853 -0.0745  0.9085 -0.4295
10838TIP3   OH253928   1.358   0.456  14.487  0.0191  0.1977  0.1962
10838TIP3    H153929   1.349   0.479  14.579 -2.7452 -0.3363  0.1548
10838TIP3    H253930   1.426   0.389  14.485  1.2147  1.3004  1.5953
10839TIP3   OH253931   0.024   2.747   5.055 -0.1479  0.7081  0.1747
10839TIP3    H153932  -0.024   2.736   5.137  1.0450  1.7019  1.0453
10839TIP3    H253933   0.100   2.690   5.064  1.3343  2.6825  0.9089
10840TIP3   OH253934   4.707   1.512   2.690  0.1853 -0.2470  0.1039
10840TIP3    H153935   4.709   1.433   2.635 -0.1579 -0.0705 -0.1674
10840TIP3    H253936   4.618   1.546   2.679  0.9559  1.4550 -1.6023
10841TIP3   OH253937   5.466   0.586  12.422  0.4710 -0.2381 -0.2117
10841TIP3    H153938   5.550   0.594  12.467  0.8423 -0.1719 -0.9030
10841TIP3    H253939   5.420   0.668  12.442  1.2281  0.4337 -1.1189
10842TIP3   OH253940   1.666   3.567  12.672 -0.7898 -0.2583 -0.1640
10842TIP3    H153941   1.575   3.560  12.643 -0.9484 -1.3777  0.5429
10842TIP3    H253942   1.716   3.520  12.605 -0.3593  2.5501 -1.9797
10843TIP3   OH253943   0.885   1.940  13.052  0.5398 -0.0835 -0.3106
10843TIP3    H153944   0.928   1.899  13.127 -0.8218 -1.5772 -0.2886
10843TIP3    H253945   0.809   1.884  13.034  0.0884  0.9806 -1.9770
10844TIP3   OH253946   0.512   0.822  11.984  0.4338 -0.6884 -0.4273
10844TIP3    H153947   0.500   0.733  12.017 -0.0228 -0.1786  0.8348
10844TIP3    H253948   0.594   0.852  12.023  0.2025 -0.2887 -0.2393
10845TIP3   OH253949   6.143   6.197   2.844  0.0712  0.2607  0.2736
10845TIP3    H153950   6.130   6.129   2.910  0.6888  0.8506  1.0143
10845TIP3    H253951   6.133   6.151   2.761  1.4863 -0.9573  0.7385
10846TIP3   OH253952   3.807   5.975   4.324  0.0233 -0.1610 -0.2226
10846TIP3    H153953   3.851   6.060   4.323  0.8367 -0.5614 -1.7425
10846TIP3    H253954   3.754   5.975   4.245 -0.2032 -0.9603 -0.0756
10847TIP3   OH253955   1.409   6.608  12.449  0.6982 -0.3716 -0.1877
10847TIP3    H153956   1.404   6.704  12.445  1.4010 -0.3568 -1.5742
10847TIP3    H253957   1.322   6.581  12.479  0.0871  0.6643 -0.9333
10848TIP3   OH253958   6.172   0.957   0.785 -0.0084  0.0913 -0.6274
10848TIP3    H153959   6.093   0.967   0.731  1.5546  1.4063 -2.8629
10848TIP3    H253960   6.244   0.973   0.724  1.9466  0.8240  1.7296
10849TIP3   OH253961   1.187   2.331  15.442 -0.3471 -0.4414  0.3734
10849TIP3    H153962   1.217   2.403  15.386 -0.0206 -0.5169  0.4506
10849TIP3    H253963   1.149   2.375  15.518  1.0104 -0.3394  1.0328
10850TIP3   OH253964   2.249   4.346  13.993  0.3879 -0.3248  0.3682
10850TIP3    H153965   2.284   4.434  13.979  0.7595 -0.6002 -0.4448
10850TIP3    H253966   2.155   4.356  13.983  0.3954  0.0366  0.6061
10851TIP3   OH253967   6.350   0.836  17.046  0.8563  0.4201 -0.2035
10851TIP3    H153968   6.432   0.821  16.999  0.8335  2.8139 -1.1706
10851TIP3    H253969   6.288   0.862  16.977  0.0980  1.4864  0.8486
10852TIP3   OH253970   4.456   5.970  13.774  0.2782  0.0033 -0.0086
10852TIP3    H153971   4.363   5.947  13.778  0.6184 -1.4441  0.6594
10852TIP3    H253972   4.471   6.023  13.852  0.1975 -0.6522  0.4695
10853TIP3   OH253973   4.895   3.071  14.956  0.3479  0.4194 -0.0192
10853TIP3    H153974   4.935   3.057  14.870  1.0683 -0.6732  0.4687
10853TIP3    H253975   4.817   3.123  14.937  0.4174  0.0953 -1.3605
10854TIP3   OH253976   1.570   6.365  13.911  0.0164 -0.2120 -0.5618
10854TIP3    H153977   1.658   6.339  13.884  0.0150 -0.2276 -0.5521
10854TIP3    H253978   1.580   6.454  13.944  0.3634 -0.8172  1.0858
10855TIP3   OH253979   0.135   4.058   4.651 -0.1299  0.5409 -0.3206
10855TIP3    H153980   0.124   4.010   4.733 -0.3728 -0.6701 -1.0360
10855TIP3    H253981   0.084   4.138   4.662  1.9870  1.7560  1.7176
10856TIP3   OH253982   1.758   0.606  15.398  0.0072  0.0342 -0.5683
10856TIP3    H153983   1.822   0.662  15.443  0.7793 -1.4938  0.3300
10856TIP3    H253984   1.677   0.657  15.398  0.7254  1.2142  0.0472
10857TIP3   OH253985   5.278   3.760   4.409 -0.4099 -0.0936 -0.0435
10857TIP3    H153986   5.360   3.739   4.365  0.4709  1.5156  0.7621
10857TIP3    H253987   5.279   3.707   4.488 -0.4885 -0.6024 -0.3804
10858TIP3   OH253988   1.550   0.619   3.799 -0.2363 -0.1901 -0.0859
10858TIP3    H153989   1.526   0.572   3.879  2.1327  0.3306  1.0044
10858TIP3    H253990   1.592   0.699   3.830  0.3756  0.2256 -1.8678
10859TIP3   OH253991   0.131   5.819  13.737 -0.0135  0.1208 -0.8040
10859TIP3    H153992   0.042   5.795  13.765 -0.5489  1.1544 -1.5560
10859TIP3    H253993   0.140   5.911  13.762  0.6375  0.1781 -1.2325
10860TIP3   OH253994   6.067   2.674   4.432 -0.0659 -0.0276  0.3652
10860TIP3    H153995   6.136   2.740   4.423 -0.9481  0.9426  0.6104
10860TIP3    H253996   6.069   2.650   4.525  1.5886 -1.8665 -0.0698
10861TIP3   OH253997   0.475   1.464   2.492 -0.5376  0.0408  0.3274
10861TIP3    H153998   0.459   1.420   2.409  2.2484  1.9240 -1.3314
10861TIP3    H253999   0.555   1.424   2.526  0.3755  1.7276  0.2592
10862TIP3   OH254000   5.741   0.015  15.586 -0.4695 -0.7248 -0.2190
10862TIP3    H154001   5.808   0.081  15.604 -0.8424 -0.7467  1.3091
10862TIP3    H254002   5.682   0.057  15.524  0.2360 -0.2445 -0.5781
10863TIP3   OH254003   4.239   2.990   6.703  0.1791 -0.7669  0.3667
10863TIP3    H154004   4.309   2.961   6.644 -1.3322  1.5102 -2.8762
10863TIP3    H254005   4.167   2.929   6.687  0.3808 -1.2908  1.3862
10864TIP3   OH254006   3.442   2.950   0.786 -0.2982 -1.0616 -0.1151
10864TIP3    H154007   3.447   2.969   0.693  1.7128  0.2041  0.1809
10864TIP3    H254008   3.371   3.006   0.818  1.5847  1.6236 -0.3056
10865TIP3   OH254009   3.695   1.595  14.023 -0.1840 -0.0357  0.3700
10865TIP3    H154010   3.780   1.594  14.066  0.1541  0.1037 -0.2940
10865TIP3    H254011   3.711   1.632  13.937 -0.5910 -1.6083 -0.4263
10866TIP3   OH254012   2.322   5.327  14.043 -0.0391  0.1558  0.3177
10866TIP3    H154013   2.234   5.355  14.019  0.8488  0.9736 -2.3776
10866TIP3    H254014   2.319   5.232  14.042 -1.2096  0.1523  1.7301
10867TIP3   OH254015   1.225   3.568   2.670 -0.6446 -0.4679 -0.8872
10867TIP3    H154016   1.291   3.567   2.739 -0.1264  1.1098 -1.3169
10867TIP3    H254017   1.172   3.490   2.687  0.8492 -1.3689 -0.0801
10868TIP3   OH254018   5.275   2.714  15.875  0.3603  0.1966  0.4313
10868TIP3    H154019   5.206   2.649  15.888 -2.4711  3.0000  0.8353
10868TIP3    H254020   5.324   2.682  15.799 -0.7415 -2.4095  0.6995
10869TIP3   OH254021   4.135   4.545   1.494 -0.0672  0.0627  0.2104
10869TIP3    H154022   4.201   4.476   1.487 -0.9740 -0.8690  0.6058
10869TIP3    H254023   4.142   4.577   1.584 -0.0120  0.1199  0.1862
10870TIP3   OH254024   6.456   1.731   6.338  0.7835 -0.2516  0.3925
10870TIP3    H154025   6.444   1.642   6.371 -0.7216  0.3707  1.6487
10870TIP3    H254026   6.547   1.733   6.309  1.4270 -1.6473  2.0898
10871TIP3   OH254027   5.575   2.525  11.871 -0.0117 -0.1133 -0.1561
10871TIP3    H154028   5.606   2.476  11.948  1.2242  1.1898  0.2111
10871TIP3    H254029   5.480   2.526  11.881 -0.0543 -1.9189  0.1221
10872TIP3   OH254030   5.538   1.148   3.890  0.0129 -0.0893 -0.2146
10872TIP3    H154031   5.561   1.198   3.968  0.1742 -1.7133  0.8216
10872TIP3    H254032   5.442   1.148   3.888  0.0010 -0.4981  0.2928
10873TIP3   OH254033   5.194   6.136  14.141  0.5120  0.5871 -0.3426
10873TIP3    H154034   5.248   6.097  14.072  0.7283 -0.6747  0.5018
10873TIP3    H254035   5.254   6.194  14.188  1.0851 -0.5532  0.3824
10874TIP3   OH254036   6.523   2.393  17.088  0.2477 -0.2960 -0.1461
10874TIP3    H154037   6.598   2.380  17.030 -1.0820 -2.5901 -1.4762
10874TIP3    H254038   6.474   2.465  17.049  1.6561  1.2095  0.7226
10875TIP3   OH254039   0.208   4.833   5.575 -0.0331  0.0168  0.0119
10875TIP3    H154040   0.207   4.779   5.496  0.0710  0.0542 -0.0148
10875TIP3    H254041   0.170   4.777   5.643  1.6678 -0.7277  0.4000
10876TIP3   OH254042   4.166   0.623  14.939  0.2920 -0.5636  0.2784
10876TIP3    H154043   4.227   0.681  14.894 -0.2631  0.9853  1.4600
10876TIP3    H254044   4.192   0.535  14.910  3.1017  0.0084  0.7585
10877TIP3   OH254045   1.923   0.964   4.913 -0.1110 -0.9251 -0.6742
10877TIP3    H154046   1.990   1.033   4.921 -0.1854 -0.9857  0.8754
10877TIP3    H254047   1.965   0.895   4.863  2.0920 -2.1781  2.6015
10878TIP3   OH254048   2.297   4.304   3.437 -0.1402 -0.2100  0.0004
10878TIP3    H154049   2.327   4.265   3.355 -1.3372 -0.2689 -0.4371
10878TIP3    H254050   2.354   4.268   3.504  1.9533  1.1044 -0.9862
10879TIP3   OH254051   0.845   1.161  12.223 -0.4075 -0.0180 -0.3418
10879TIP3    H154052   0.846   1.210  12.306 -0.8358  0.3654 -0.5589
10879TIP3    H254053   0.927   1.184  12.180  1.2683 -2.4756  1.2498
10880TIP3   OH254054   0.653   5.145   3.010  0.3729 -0.0659  0.7307
10880TIP3    H154055   0.618   5.062   3.045 -1.6438  0.0823 -0.7561
10880TIP3    H254056   0.612   5.212   3.064 -1.3866  0.0909 -0.7322
10881TIP3   OH254057   3.069   5.979   0.624  0.1021  0.2617  0.0588
10881TIP3    H154058   2.997   5.957   0.565 -0.5846 -0.3446  1.0890
10881TIP3    H254059   3.063   5.913   0.694  1.3017  0.5603  0.4554
10882TIP3   OH254060   5.168   1.594  16.196  0.0189  0.2517 -0.2786
10882TIP3    H154061   5.195   1.575  16.107  0.1604  2.6065 -0.8041
10882TIP3    H254062   5.110   1.669  16.188 -1.1253 -0.3769  1.5056
10883TIP3   OH254063   4.832   4.679  16.152  0.3665 -0.0977  0.2842
10883TIP3    H154064   4.891   4.698  16.225  0.9669 -1.4256  0.1766
10883TIP3    H254065   4.769   4.616  16.188  0.2259 -0.1990 -0.1367
10884TIP3   OH254066   3.479   0.146  13.547 -0.2230 -0.2413 -0.5652
10884TIP3    H154067   3.419   0.183  13.482  0.9045 -0.4065 -1.7594
10884TIP3    H254068   3.458   0.052  13.548 -1.4941  0.0283  0.7214
10885TIP3   OH254069   2.023   5.481  12.956 -0.1690  0.5631  0.1220
10885TIP3    H154070   1.928   5.467  12.962 -0.8960  4.7302  1.6546
10885TIP3    H254071   2.040   5.493  12.862 -0.7726 -1.6640 -0.3390
10886TIP3   OH254072   5.568   2.898  13.594 -0.3734 -0.3101  0.0729
10886TIP3    H154073   5.571   2.980  13.643 -1.0806 -0.2574  0.0438
10886TIP3    H254074   5.618   2.836  13.648  0.8208  0.3123 -0.2751
10887TIP3   OH254075   6.387   5.372  12.642  0.0425 -0.2323  0.3739
10887TIP3    H154076   6.376   5.453  12.592  0.5592  0.2214  0.9670
10887TIP3    H254077   6.303   5.327  12.634 -0.5672  0.7919  0.7772
10888TIP3   OH254078   4.370   4.931   0.058 -0.5323 -0.0540 -0.0045
10888TIP3    H154079   4.407   4.889   0.135 -0.7485  0.0640  0.1652
10888TIP3    H254080   4.340   5.017   0.089  0.5009  0.4941 -0.4894
10889TIP3   OH254081   4.836   5.388  13.236  0.0599 -0.1065  0.1152
10889TIP3    H154082   4.843   5.451  13.308 -1.3158  0.3659 -0.1380
10889TIP3    H254083   4.825   5.303  13.280  2.7368 -0.3611  0.4696
10890TIP3   OH254084   5.873   2.606  11.880  0.3851  0.3858  0.2554
10890TIP3    H154085   5.807   2.537  11.887 -1.2388  2.0135  3.0480
10890TIP3    H254086   5.947   2.575  11.932  0.2769  0.1219  0.2535
10891TIP3   OH254087   0.923   0.380  15.180 -0.0145  0.4998  0.4091
10891TIP3    H154088   0.836   0.370  15.141  0.1924  0.6664 -0.1042
10891TIP3    H254089   0.956   0.463  15.143 -0.2907  1.2891  1.8664
10892TIP3   OH254090   3.400   6.362   4.632  0.2754 -0.4310 -0.1539
10892TIP3    H154091   3.364   6.450   4.619 -0.9236 -0.6268  1.5095
10892TIP3    H254092   3.333   6.303   4.599  0.7932 -0.7545 -0.6497
10893TIP3   OH254093   6.215   0.434   5.271 -0.5549 -0.0849  0.3812
10893TIP3    H154094   6.230   0.456   5.363  2.1594 -0.6636  0.1414
10893TIP3    H254095   6.287   0.477   5.224 -1.6471 -0.1580 -1.4412
10894TIP3   OH254096   3.848   4.121  12.469 -0.4098 -0.5283  0.2604
10894TIP3    H154097   3.854   4.085  12.558  1.5213 -1.2261 -0.1022
10894TIP3    H254098   3.853   4.045  12.412 -2.4280 -0.1532 -0.4758
10895TIP3   OH254099   2.415   6.569  12.945 -0.1470  0.3013  0.6285
10895TIP3    H154100   2.508   6.590  12.931 -0.2151  0.3430  0.2286
10895TIP3    H254101   2.368   6.647  12.915 -0.3496 -0.0197  0.0985
10896TIP3   OH254102   4.530   4.601   0.215 -0.1235  0.3383  0.3310
10896TIP3    H154103   4.470   4.569   0.148 -0.2979  1.2130  0.0532
10896TIP3    H254104   4.608   4.546   0.207 -0.8984 -0.8432  0.7348
10897TIP3   OH254105   3.868   3.363   2.547 -0.4044 -0.3710 -0.1997
10897TIP3    H154106   3.842   3.429   2.611  1.8962 -0.5123  0.9716
10897TIP3    H254107   3.917   3.299   2.597 -0.0068 -1.4142 -1.8420
10898TIP3   OH254108   1.838   3.827  12.950  0.1230  0.2334 -0.3693
10898TIP3    H154109   1.834   3.923  12.955 -0.0644  0.1894  0.5360
10898TIP3    H254110   1.839   3.808  12.856 -0.2320  1.1069 -0.5617
10899TIP3   OH254111   0.831   6.161  15.325  0.0231 -0.0391 -0.2530
10899TIP3    H154112   0.791   6.232  15.275 -0.5330  1.4118  2.1226
10899TIP3    H254113   0.895   6.204  15.382 -0.6505 -1.3408  1.5693
10900TIP3   OH254114   2.325   0.472  12.445 -0.1281 -0.1700  0.1484
10900TIP3    H154115   2.334   0.449  12.353 -2.5383  2.1250 -0.8065
10900TIP3    H254116   2.309   0.388  12.489  1.8892 -1.4090 -1.3211
10901TIP3   OH254117   2.295   3.577   5.168 -0.2573 -0.2202  0.5844
10901TIP3    H154118   2.272   3.621   5.086 -2.0472  0.0897  1.2048
10901TIP3    H254119   2.388   3.595   5.180  0.0597 -0.3103 -1.3830
10902TIP3   OH254120   3.394   4.870  17.182 -0.4754  0.3534  0.0282
10902TIP3    H154121   3.467   4.916  17.140  2.6171 -3.0371  1.1495
10902TIP3    H254122   3.344   4.833  17.109 -1.4738  3.0616 -0.7791
10903TIP3   OH254123   2.739   2.879  15.262 -0.2397  0.1180 -0.2024
10903TIP3    H154124   2.756   2.832  15.344 -1.6563  0.5824  0.4016
10903TIP3    H254125   2.719   2.968  15.290 -0.2401  0.4120 -1.1037
10904TIP3   OH254126   3.718   3.576   0.085 -0.0763 -0.0490  0.4564
10904TIP3    H154127   3.624   3.566   0.095 -0.0592 -0.6414  0.0952
10904TIP3    H254128   3.732   3.670   0.076 -0.8933 -0.0844 -1.9420
10905TIP3   OH254129   4.162   5.211  16.158  0.4049 -1.0625 -0.5168
10905TIP3    H154130   4.111   5.140  16.119 -0.4725  0.4657 -2.3643
10905TIP3    H254131   4.107   5.244  16.229  1.1437 -2.6324  0.8457
10906TIP3   OH254132   0.124   0.241   4.012  0.3818 -0.1237 -0.2125
10906TIP3    H154133   0.160   0.317   4.057  1.8355  0.3993 -2.1275
10906TIP3    H254134   0.129   0.170   4.076  0.0761  1.1267  1.2218
10907TIP3   OH254135   0.543   1.526   2.122  0.6754  0.1551  0.0589
10907TIP3    H154136   0.510   1.443   2.155  1.4551  0.2018  0.9843
10907TIP3    H254137   0.541   1.517   2.027  0.7988 -0.9319  0.1533
10908TIP3   OH254138   0.211   1.651   4.435 -0.0355  0.8714 -0.4476
10908TIP3    H154139   0.266   1.720   4.397  0.9162  1.6072  2.0767
10908TIP3    H254140   0.122   1.680   4.421  0.3480  3.3130  1.6129
10909TIP3   OH254141   5.082   4.430   3.047  0.2936  0.3750 -0.2581
10909TIP3    H154142   5.089   4.440   2.952  1.2618  1.1663 -0.1247
10909TIP3    H254143   5.070   4.520   3.079  1.1005  0.2447  0.4409
10910TIP3   OH254144   0.387   0.489   5.995 -0.0326 -0.2796 -0.8566
10910TIP3    H154145   0.350   0.524   6.076 -1.5248 -2.7901 -0.3663
10910TIP3    H254146   0.407   0.567   5.942 -1.3101  1.3428  0.9268
10911TIP3   OH254147   4.585   5.093   3.320 -0.8199  0.0117  0.2021
10911TIP3    H154148   4.673   5.058   3.305 -0.5731  0.7586 -0.1609
10911TIP3    H254149   4.578   5.102   3.415 -0.5617 -0.1900  0.2396
10912TIP3   OH254150   2.795   0.479  13.432  0.1870  0.0397  0.1972
10912TIP3    H154151   2.757   0.562  13.463 -0.6225 -0.0780 -0.4281
10912TIP3    H254152   2.760   0.413  13.491 -1.5412 -0.2151 -1.0279
10913TIP3   OH254153   2.615   5.523  13.860  0.6871 -0.0446 -0.2392
10913TIP3    H154154   2.539   5.544  13.806  1.6130  3.9114 -0.3275
10913TIP3    H254155   2.628   5.601  13.914  1.3715 -2.7313  3.9703
10914TIP3   OH254156   0.368   6.289  12.982  0.2430  0.3587 -0.3896
10914TIP3    H154157   0.280   6.298  13.018 -0.2297  1.1522 -1.6801
10914TIP3    H254158   0.368   6.204  12.939  0.4516 -0.0888  0.4601
10915TIP3   OH254159   1.678   1.859  15.711  0.1238 -0.8100 -0.4342
10915TIP3    H154160   1.652   1.875  15.620 -0.6350  0.1168 -0.0637
10915TIP3    H254161   1.617   1.911  15.763  1.9323  0.4657  0.5162
10916TIP3   OH254162   2.026   4.239   2.943  0.2618 -0.5070 -0.4446
10916TIP3    H154163   1.945   4.235   2.892 -0.5877  0.3394  0.7798
10916TIP3    H254164   2.003   4.200   3.027  0.7327  0.9914  0.4016
10917TIP3   OH254165   4.665   5.812  13.789  0.1731  0.1602 -0.0296
10917TIP3    H154166   4.668   5.770  13.875  1.4244 -0.1660 -0.2158
10917TIP3    H254167   4.586   5.866  13.791 -0.3491 -0.6273  0.9570
10918TIP3   OH254168   2.798   3.353   4.235  0.0321 -0.6520 -0.1179
10918TIP3    H154169   2.706   3.334   4.253  0.0068 -0.8489 -0.4419
10918TIP3    H254170   2.839   3.361   4.321 -0.5896  0.9484  0.0483
10919TIP3   OH254171   3.723   3.622  10.420 -0.1131 -0.1780 -0.4730
10919TIP3    H154172   3.710   3.716  10.422  1.0609 -0.0153  1.3749
10919TIP3    H254173   3.638   3.586  10.393 -0.4075  1.3915 -1.7695
10920TIP3   OH254174   4.098   2.252  11.705 -0.6147  0.4081  0.9221
10920TIP3    H154175   4.063   2.341  11.707 -0.3541  0.6308 -1.2158
10920TIP3    H254176   4.081   2.217  11.792 -0.1789  2.7400  2.0248
10921TIP3   OH254177   5.124   2.001   0.393  0.2536 -0.0107 -0.0039
10921TIP3    H154178   5.133   2.056   0.315  0.1111 -1.9450 -1.4359
10921TIP3    H254179   5.200   1.943   0.390 -0.5398 -1.0988  0.4933
10922TIP3   OH254180   0.013   5.314   4.176  0.0189 -0.6032 -0.0248
10922TIP3    H154181  -0.043   5.390   4.164  0.6756 -0.1892 -0.5671
10922TIP3    H254182   0.017   5.301   4.271 -1.4952 -1.0494 -0.0003
10923TIP3   OH254183   6.614   4.529  13.579  0.4772 -0.3822  0.7328
10923TIP3    H154184   6.680   4.465  13.551  0.3286 -0.7754  1.2697
10923TIP3    H254185   6.531   4.482  13.570  0.4561 -0.6736  2.2439
10924TIP3   OH254186   2.262   1.830   0.453  0.2692 -0.4145  0.0459
10924TIP3    H154187   2.265   1.772   0.377  0.8090 -3.0272  1.9176
10924TIP3    H254188   2.351   1.828   0.488 -0.7690 -2.6321  2.9710
10925TIP3   OH254189   6.493   2.492  13.305 -0.0062  0.1320  0.0157
10925TIP3    H154190   6.447   2.419  13.264 -0.5116 -0.4500  1.5654
10925TIP3    H254191   6.425   2.556  13.323  0.3351  0.7258 -0.7134
10926TIP3   OH254192   3.073   1.018  15.884 -0.0249 -0.1187 -0.2597
10926TIP3    H154193   3.011   0.985  15.949 -0.7285  1.6514  0.0231
10926TIP3    H254194   3.114   0.940  15.848 -2.0577 -1.3291 -0.0847
10927TIP3   OH254195   1.171   5.255   1.107 -0.3668 -0.0075  0.0792
10927TIP3    H154196   1.152   5.327   1.047 -0.4408  1.4973  1.8338
10927TIP3    H254197   1.156   5.176   1.055 -0.0041  1.2124 -1.9918
10928TIP3   OH254198   0.169   5.294  11.049 -0.1384  0.6936 -0.6148
10928TIP3    H154199   0.117   5.374  11.051 -0.0891  0.7200  1.6213
10928TIP3    H254200   0.105   5.225  11.028 -0.7751  0.9654  0.3407
10929TIP3   OH254201   3.097   3.919  12.592  0.1022  0.0039  0.5428
10929TIP3    H154202   3.060   4.007  12.600 -0.5380 -0.2048  0.0133
10929TIP3    H254203   3.054   3.869  12.661 -1.8197 -0.6199 -1.0299
10930TIP3   OH254204   0.153   1.422  12.355 -0.0364 -0.9413  0.1260
10930TIP3    H154205   0.181   1.337  12.324 -2.4078 -2.0091  0.6885
10930TIP3    H254206   0.063   1.408  12.386  0.1970  1.3063  2.0998
10931TIP3   OH254207   6.404   1.044  13.038 -0.2098 -0.2920  0.2574
10931TIP3    H154208   6.428   0.956  13.007 -1.3391 -0.6051  0.2232
10931TIP3    H254209   6.482   1.076  13.083  0.6326 -0.8228 -0.7742
10932TIP3   OH254210   3.208   1.800   2.043  0.1509 -0.2520 -0.6898
10932TIP3    H154211   3.248   1.875   1.997 -0.0057  0.4991  0.3715
10932TIP3    H254212   3.118   1.798   2.011 -0.6261  1.6533  1.1496
10933TIP3   OH254213   5.024   0.959  13.050  0.1218  0.0741 -0.0373
10933TIP3    H154214   4.963   0.991  13.116 -0.2820 -0.9000  0.0734
10933TIP3    H254215   5.082   0.899  13.098  0.5343  0.2271 -0.3407
10934TIP3   OH254216   3.316   3.610  12.869 -0.0906 -0.0877  0.8136
10934TIP3    H154217   3.408   3.589  12.886  0.2109  0.4114 -0.1512
10934TIP3    H254218   3.316   3.649  12.782 -1.2137 -0.0142  0.8350
10935TIP3   OH254219   1.788   1.421   5.391 -0.2707 -0.4585  0.1338
10935TIP3    H154220   1.709   1.380   5.355  0.2069  0.4649 -2.1340
10935TIP3    H254221   1.860   1.375   5.349  0.4404 -1.0483  1.9120
10936TIP3   OH254222   4.075   4.267  12.329 -0.2931  0.0737 -0.4949
10936TIP3    H154223   4.092   4.326  12.403 -0.1552 -0.3237 -0.2086
10936TIP3    H254224   3.995   4.301  12.289 -0.8098 -0.1780  0.3091
10937TIP3   OH254225   5.567   4.322   2.023  0.3467  0.2790  0.0941
10937TIP3    H154226   5.549   4.233   2.053  2.0028 -0.1114 -0.0091
10937TIP3    H254227   5.511   4.377   2.077 -0.3784 -0.7781  0.4532
10938TIP3   OH254228   1.683   2.835   6.015  0.0859 -0.4008  0.3801
10938TIP3    H154229   1.750   2.819   6.082 -0.4158 -3.3621  0.2995
10938TIP3    H254230   1.617   2.888   6.059  1.8927  1.6308  0.7887
10939TIP3   OH254231   5.640   3.420   4.223 -0.0896 -0.4323  0.1355
10939TIP3    H154232   5.547   3.428   4.205  0.0114  0.2770 -0.0707
10939TIP3    H254233   5.673   3.364   4.152 -0.4914 -1.3630  0.6609
10940TIP3   OH254234   2.623   4.383  14.516  0.2798  0.7819  0.1363
10940TIP3    H154235   2.622   4.385  14.611  0.3639 -0.2198  0.1742
10940TIP3    H254236   2.555   4.320  14.492  1.1406  0.0249 -0.4028
10941TIP3   OH254237   4.622   1.963  16.197  0.0739  0.5531  0.1101
10941TIP3    H154238   4.539   2.010  16.207 -0.7129 -0.8745  0.5302
10941TIP3    H254239   4.650   1.945  16.287 -0.1072 -0.5594 -0.0464
10942TIP3   OH254240   4.974   4.955  12.762 -0.0250 -0.1039 -0.0958
10942TIP3    H154241   5.059   4.985  12.730  0.5513 -0.2896  1.1994
10942TIP3    H254242   4.994   4.900  12.837 -1.2964 -0.0728  0.3042
10943TIP3   OH254243   3.153   4.356   0.885 -0.2633  0.2540 -0.0105
10943TIP3    H154244   3.192   4.275   0.853 -0.4592 -0.6027  1.8032
10943TIP3    H254245   3.170   4.355   0.980  0.5798  2.8064 -0.0519
10944TIP3   OH254246   1.133   1.411   2.594  0.0905 -0.5853  0.0529
10944TIP3    H154247   1.194   1.338   2.589  2.1328  1.1183 -2.3441
10944TIP3    H254248   1.093   1.415   2.507 -0.6565  0.5733  0.4274
10945TIP3   OH254249   6.737   3.015  10.495  0.3900 -0.6912  0.1181
10945TIP3    H154250   6.719   2.925  10.469  0.8791 -0.5385 -0.7702
10945TIP3    H254251   6.787   3.052  10.422  1.1158 -0.0203  0.9332
10946TIP3   OH254252   6.058   5.565  12.690  0.4337 -0.0102 -0.4657
10946TIP3    H154253   6.016   5.510  12.756  0.8700 -0.4842 -0.5730
10946TIP3    H254254   5.999   5.639  12.679  0.8367  0.6051  1.2081
10947TIP3   OH254255   1.507   1.604  15.882 -0.2482  0.2259 -0.4239
10947TIP3    H154256   1.573   1.654  15.930 -2.8668  1.2466  2.4180
10947TIP3    H254257   1.444   1.670  15.852 -1.6092 -0.9593 -0.2735
10948TIP3   OH254258   1.036   1.782   3.047 -0.0889  0.4471 -0.4484
10948TIP3    H154259   0.957   1.837   3.052  0.3412  1.0205  0.0927
10948TIP3    H254260   1.012   1.702   3.094 -0.6613  0.2322 -1.0941
10949TIP3   OH254261   5.752   0.117   2.383  0.4400 -0.6012 -0.1942
10949TIP3    H154262   5.692   0.048   2.412 -0.2044  0.1488  0.2705
10949TIP3    H254263   5.696   0.192   2.364  1.3087  0.5057  1.3729
10950TIP3   OH254264   2.895   6.078  14.106 -0.2729 -0.1123  0.1328
10950TIP3    H154265   2.885   6.144  14.174  2.6451  1.6157 -0.9289
10950TIP3    H254266   2.874   6.124  14.025  1.9378 -0.3678 -0.6448
10951TIP3   OH254267   3.530   1.409  16.138  0.1643 -0.1281  0.5018
10951TIP3    H154268   3.441   1.399  16.103 -0.2340  0.3968  1.3423
10951TIP3    H254269   3.578   1.334  16.101 -0.2806  0.2777 -0.9976
10952TIP3   OH254270   6.111   2.053  14.008  0.5243  0.1581  0.1484
10952TIP3    H154271   6.057   1.981  13.977  0.9051 -0.1927  0.2851
10952TIP3    H254272   6.179   2.061  13.941  1.1699 -0.3972  0.7182
10953TIP3   OH254273   2.396   1.016  15.028 -0.2908  0.1780 -0.3800
10953TIP3    H154274   2.348   1.074  14.969 -0.2396  0.0638 -0.5342
10953TIP3    H254275   2.333   0.946  15.048  0.3062 -0.8354 -1.8415
10954TIP3   OH254276   0.983   0.768  12.867 -0.8617  0.2963 -0.2949
10954TIP3    H154277   0.950   0.824  12.937 -2.2654 -0.8601  0.0253
10954TIP3    H254278   0.935   0.686  12.877  1.8590 -1.4027 -0.0941
10955TIP3   OH254279   0.595   1.406   1.043  0.5050 -0.4987  0.9125
10955TIP3    H154280   0.602   1.424   1.136 -0.1994  0.5380  0.7919
10955TIP3    H254281   0.670   1.351   1.022  1.0779 -0.1309  1.9471
10956TIP3   OH254282   0.817   0.358   4.452  0.0828  0.0559  0.5893
10956TIP3    H154283   0.762   0.311   4.515 -1.1773 -1.3097 -1.4045
10956TIP3    H254284   0.776   0.445   4.444  0.0763  0.1283  1.4147
10957TIP3   OH254285   5.592   1.700   1.191 -0.2360  0.1466  0.2199
10957TIP3    H154286   5.660   1.749   1.144  1.3375 -1.9657  0.1518
10957TIP3    H254287   5.510   1.725   1.147  0.7690  0.9396 -1.2928
10958TIP3   OH254288   0.017   3.700  11.187 -0.1030  0.3462 -0.6835
10958TIP3    H154289   0.090   3.639  11.177 -1.3847 -1.4798  0.3257
10958TIP3    H254290  -0.060   3.643  11.192 -1.3200  2.0210  0.8920
10959TIP3   OH254291   2.318   0.339  16.390 -0.1787 -0.0581  0.5535
10959TIP3    H154292   2.289   0.262  16.439 -1.4608 -0.7303 -1.1412
10959TIP3    H254293   2.387   0.377  16.444  0.3332 -2.2458  1.5907
10960TIP3   OH254294   0.558   1.019  14.164 -0.0169  0.3787  0.3802
10960TIP3    H154295   0.470   0.994  14.136  0.5312 -1.3465  0.1120
10960TIP3    H254296   0.576   0.964  14.239  2.2160 -2.1036 -1.7667
10961TIP3   OH254297   3.950   3.084  17.082 -0.0283 -0.5922 -0.2622
10961TIP3    H154298   4.029   3.043  17.116  0.0345  0.6257  1.1483
10961TIP3    H254299   3.884   3.069  17.149 -0.1290  1.1401  0.0578
10962TIP3   OH254300   0.845   2.906  15.908 -0.0609  0.4119 -0.0666
10962TIP3    H154301   0.875   2.998  15.906  1.5660 -0.0872 -1.2388
10962TIP3    H254302   0.926   2.856  15.916 -0.8464 -0.9608 -0.5401
10963TIP3   OH254303   3.449   1.392  13.776  0.6107  0.6615  0.3402
10963TIP3    H154304   3.390   1.452  13.821 -0.2707  0.9633 -1.1437
10963TIP3    H254305   3.479   1.440  13.699  2.1071  0.1858  0.5813
10964TIP3   OH254306   4.176   3.083   4.472  0.8383 -0.3692  0.0632
10964TIP3    H154307   4.123   3.069   4.393 -1.1500 -1.4022  1.5101
10964TIP3    H254308   4.132   3.032   4.540  2.0131  1.1525  2.0603
10965TIP3   OH254309   5.452   0.297  11.651  0.3614 -0.2014 -0.5446
10965TIP3    H154310   5.369   0.284  11.606  0.5569 -2.0568 -0.4424
10965TIP3    H254311   5.434   0.270  11.741  0.3749  2.0424  0.1869
10966TIP3   OH254312   5.927   1.215   6.217 -0.7510  0.3580 -0.1031
10966TIP3    H154313   6.005   1.224   6.272 -1.1791 -0.7224  0.7499
10966TIP3    H254314   5.866   1.281   6.250 -1.2000 -0.6200  1.1443
10967TIP3   OH254315   0.173   3.905  13.921 -0.7218  0.5992  0.2521
10967TIP3    H154316   0.164   3.871  13.833 -0.3570  0.0560  0.4198
10967TIP3    H254317   0.230   3.842  13.966 -0.6921  1.0034  0.7966
10968TIP3   OH254318   6.790   0.262  16.268  0.2876  0.1608  0.0442
10968TIP3    H154319   6.806   0.323  16.340  2.0197 -0.4691  0.2280
10968TIP3    H254320   6.860   0.280  16.205 -1.0612  0.5427 -1.4159
10969TIP3   OH254321   1.590   3.692  16.284 -0.4284 -0.1234 -0.5772
10969TIP3    H154322   1.586   3.623  16.350  1.7355 -0.2458 -0.4937
10969TIP3    H254323   1.619   3.648  16.204 -1.3795  0.3085 -1.1800
10970TIP3   OH254324   2.741   3.226   4.778  1.0008 -0.2087 -0.1614
10970TIP3    H154325   2.725   3.310   4.734 -1.1794 -1.0250 -1.0801
10970TIP3    H254326   2.660   3.209   4.827  2.0031 -1.0669  1.2593
10971TIP3   OH254327   4.928   6.712  15.434  0.2728  0.1392  0.1305
10971TIP3    H154328   4.951   6.723  15.341  2.1956  0.0128  0.5593
10971TIP3    H254329   4.844   6.666  15.432  0.4995 -0.2823 -1.5534
10972TIP3   OH254330   2.737   0.607  12.256  0.2219  0.4453 -0.5124
10972TIP3    H154331   2.790   0.531  12.283  1.2499  1.2370 -0.2178
10972TIP3    H254332   2.766   0.625  12.167  0.6393  1.0198 -0.2712
10973TIP3   OH254333   3.773   4.826   5.419 -0.4524 -0.4416  0.0796
10973TIP3    H154334   3.794   4.755   5.480  1.4466  0.9217  1.1116
10973TIP3    H254335   3.717   4.885   5.470 -0.4141 -0.2216 -0.1319
10974TIP3   OH254336   1.596   3.131  10.906 -0.4061  0.0842 -0.4849
10974TIP3    H154337   1.539   3.064  10.869 -1.4927  0.8123 -0.1723
10974TIP3    H254338   1.606   3.196  10.837 -0.6639  0.3844 -0.2401
10975TIP3   OH254339   0.070   5.900  14.520  0.3337  0.2861 -0.2344
10975TIP3    H154340   0.066   5.995  14.532  0.2079  0.1694  0.7095
10975TIP3    H254341   0.161   5.882  14.499  0.6365  0.4825  0.8623
10976TIP3   OH254342   2.090   2.997  16.346  0.5170 -0.0964 -0.2577
10976TIP3    H154343   2.185   2.992  16.350  0.7346  1.1786 -2.3339
10976TIP3    H254344   2.060   2.915  16.386  2.5341 -1.2787 -0.9973
10977TIP3   OH254345   1.444   0.482   4.415  0.2311 -0.4178 -0.5255
10977TIP3    H154346   1.396   0.402   4.396  2.3430 -1.8184 -0.3493
10977TIP3    H254347   1.532   0.467   4.379  0.0005  2.9479 -3.0180
10978TIP3   OH254348   6.735   5.466  17.194 -0.2613  0.0960  0.4908
10978TIP3    H154349   6.790   5.542  17.177 -1.0643  0.6242  0.1320
10978TIP3    H254350   6.650   5.491  17.157 -0.6832 -0.7605  0.8665
10979TIP3   OH254351   4.834   4.496  14.915  0.0883  0.1453 -0.5974
10979TIP3    H154352   4.782   4.574  14.895 -2.3936 -0.7094  1.7966
10979TIP3    H254353   4.868   4.512  15.003  0.5350 -0.9671 -0.5541
10980TIP3   OH254354   0.435   5.964   1.760  0.1617 -1.0301  0.9699
10980TIP3    H154355   0.438   5.888   1.818 -0.0267 -1.3432  0.5686
10980TIP3    H254356   0.353   6.008   1.784 -0.7010 -2.0012 -0.1088
10981TIP3   OH254357   5.570   5.755  15.350 -0.9135 -0.3115 -0.1240
10981TIP3    H154358   5.530   5.835  15.385  0.7488  0.6698 -0.3553
10981TIP3    H254359   5.527   5.684  15.397 -3.1703  0.6216 -0.6259
10982TIP3   OH254360   4.338   1.214   0.515 -0.0334 -0.0972 -0.9581
10982TIP3    H154361   4.295   1.174   0.590 -1.8939  0.9081 -1.4337
10982TIP3    H254362   4.386   1.142   0.474 -0.1775 -0.9743  0.3523
10983TIP3   OH254363   6.454   6.124  13.827  0.2239 -0.3877 -0.6738
10983TIP3    H154364   6.513   6.193  13.797  0.3651  0.0768  0.6348
10983TIP3    H254365   6.369   6.167  13.835  0.7118  0.2604  2.1735
10984TIP3   OH254366   4.738   6.014   5.453 -0.3654  0.1086  0.9366
10984TIP3    H154367   4.680   6.006   5.378  1.0537 -0.4457 -0.1302
10984TIP3    H254368   4.749   6.109   5.465 -1.2070  0.2134  0.9552
10985TIP3   OH254369   1.798   1.899  11.459 -0.3976  0.4028  0.1711
10985TIP3    H154370   1.810   1.970  11.396 -2.1440 -0.9613 -1.8703
10985TIP3    H254371   1.882   1.892  11.504  0.0938  3.1406 -0.1519
10986TIP3   OH254372   1.404   3.693   2.082 -0.1027 -0.5959 -0.1361
10986TIP3    H154373   1.417   3.689   1.987 -1.3704  0.4356 -0.3787
10986TIP3    H254374   1.388   3.785   2.100  2.7171 -0.3183  1.4950
10987TIP3   OH254375   0.140   2.391  10.506 -0.4395 -0.1675 -0.2679
10987TIP3    H154376   0.097   2.364  10.424  0.2360 -0.8022 -0.4240
10987TIP3    H254377   0.233   2.394  10.484 -0.1495 -1.2034  0.6944
10988TIP3   OH254378   6.398   1.136   4.629  1.1139  0.2249  0.0007
10988TIP3    H154379   6.378   1.177   4.713 -1.6127  0.3193 -0.6143
10988TIP3    H254380   6.462   1.068   4.650  0.7467  0.4714  2.1093
10989TIP3   OH254381   1.770   3.997  12.473  0.0270  0.3037 -0.2671
10989TIP3    H154382   1.692   4.037  12.434  0.1614  1.0502  0.2036
10989TIP3    H254383   1.835   4.067  12.472  0.0858  0.2898  1.1009
10990TIP3   OH254384   6.179   1.732   0.222  0.6611 -0.6192  0.2168
10990TIP3    H154385   6.089   1.763   0.228  0.4059 -1.1201 -0.8312
10990TIP3    H254386   6.228   1.803   0.182  0.2388 -1.2219 -1.4322
10991TIP3   OH254387   1.473   6.277  14.149 -0.1767 -0.0471 -0.2177
10991TIP3    H154388   1.427   6.350  14.191 -1.7699  0.2299 -2.3266
10991TIP3    H254389   1.488   6.306  14.059  0.5211 -1.7521 -0.6930
10992TIP3   OH254390   5.816   0.124   1.987 -0.4638  0.0823 -0.6099
10992TIP3    H154391   5.882   0.193   1.980 -1.3672  1.0013 -0.2442
10992TIP3    H254392   5.742   0.157   1.936 -1.2767 -0.1744  0.3908
10993TIP3   OH254393   3.698   0.122   5.421  0.9385 -0.1528 -0.2358
10993TIP3    H154394   3.682   0.210   5.453 -1.0550 -0.7529  0.5757
10993TIP3    H254395   3.661   0.121   5.333  0.5558 -0.2864 -0.0766
10994TIP3   OH254396   1.444   3.575  14.131 -0.0087  0.2467  0.3426
10994TIP3    H154397   1.539   3.585  14.129  0.2142 -1.5754 -1.4973
10994TIP3    H254398   1.430   3.497  14.185 -0.5970  1.2471  1.6983
10995TIP3   OH254399   1.638   1.334  16.297  0.3573  0.2196 -0.2917
10995TIP3    H154400   1.708   1.289  16.344  0.2279 -0.2696 -0.5671
10995TIP3    H254401   1.596   1.389  16.363 -0.1744 -0.8760  0.3037
10996TIP3   OH254402   0.108   3.643  12.227  0.3024 -0.2020  0.0830
10996TIP3    H154403   0.133   3.732  12.201 -0.3759 -0.0423 -0.0464
10996TIP3    H254404   0.022   3.653  12.266 -0.1063 -0.9003 -0.6013
10997TIP3   OH254405   5.061   2.978  13.075 -0.0616 -0.3830  0.1698
10997TIP3    H154406   5.143   3.002  13.118  0.2854 -0.0116 -0.6853
10997TIP3    H254407   4.998   3.043  13.106  0.4829  0.6542 -0.8317
10998TIP3   OH254408   3.368   3.623  16.502 -0.1987  0.3403 -0.2131
10998TIP3    H154409   3.319   3.703  16.521  1.3991  1.6061 -1.1976
10998TIP3    H254410   3.374   3.621  16.407  1.6338  0.2299 -0.1180
10999TIP3   OH254411   6.624   2.826   2.610 -0.2980  0.3007  0.5224
10999TIP3    H154412   6.694   2.764   2.631 -0.5551  0.3315  1.5510
10999TIP3    H254413   6.605   2.812   2.517  2.2816  1.4999 -0.2838
11000TIP3   OH254414   4.864   1.815  11.465 -0.0545  0.7538  0.7730
11000TIP3    H154415   4.945   1.837  11.510  1.1289 -0.7641 -0.4946
11000TIP3    H254416   4.875   1.724  11.439 -1.3517  1.0921 -1.1651
11001TIP3   OH254417   1.621   5.223  12.627 -0.1712  0.1019 -0.2746
11001TIP3    H154418   1.633   5.149  12.686  2.3879  1.1462  0.6325
11001TIP3    H254419   1.616   5.184  12.539  1.4832 -1.1467  0.1455
11002TIP3   OH254420   4.192   0.830   3.454 -0.4885  1.1739  0.4427
11002TIP3    H154421   4.110   0.793   3.486 -0.1555  0.9591  1.0663
11002TIP3    H254422   4.168   0.874   3.373 -0.8605 -0.6062 -0.4723
11003TIP3   OH254423   5.425   6.487  12.427 -0.3286  0.1316  0.1744
11003TIP3    H154424   5.376   6.503  12.508  0.3047  3.0608  0.0892
11003TIP3    H254425   5.368   6.522  12.358  0.4827  0.5766 -0.2772
11004TIP3   OH254426   4.945   2.676  11.569 -0.7223  0.0321  0.6754
11004TIP3    H154427   4.903   2.656  11.486 -0.7761 -0.8014  0.8948
11004TIP3    H254428   5.017   2.613  11.575  0.4349  1.2926  0.4095
11005TIP3   OH254429   0.355   4.418   2.308 -0.2662 -0.2022 -0.2650
11005TIP3    H154430   0.383   4.470   2.233 -2.3354  0.7994 -0.4320
11005TIP3    H254431   0.420   4.435   2.375 -0.2375  1.7082 -0.7213
11006TIP3   OH254432   1.982   2.120  15.471  0.3936 -0.4559 -0.1746
11006TIP3    H154433   1.939   2.154  15.550  1.3754 -0.4618  0.3778
11006TIP3    H254434   1.918   2.060  15.433 -1.3324  1.7904 -1.0564
11007TIP3   OH254435   5.004   0.414  13.159 -0.1045  0.6742 -0.1872
11007TIP3    H154436   4.909   0.423  13.164 -0.1278 -0.1222  1.3272
11007TIP3    H254437   5.033   0.494  13.117 -1.4285  1.0354 -0.4667
11008TIP3   OH254438   2.102   5.958   4.831  0.6544  0.2184  0.6957
11008TIP3    H154439   2.109   5.955   4.736 -2.0772 -1.8198  0.4312
11008TIP3    H254440   2.138   5.874   4.861  0.6289  0.4443  1.3765
11009TIP3   OH254441   2.580   1.944   0.996 -0.5720  0.2521 -0.3647
11009TIP3    H154442   2.649   2.010   0.993 -1.9199  1.6871 -1.7025
11009TIP3    H254443   2.539   1.956   1.082  0.1928  0.0675  0.0328
11010TIP3   OH254444   4.973   4.942  16.107  0.0298 -0.0034  0.4038
11010TIP3    H154445   4.930   4.856  16.102 -0.8356  0.4801 -1.2985
11010TIP3    H254446   4.986   4.957  16.201 -0.1394 -1.8205  0.7586
11011TIP3   OH254447   4.534   1.667   2.136 -0.3485  0.0850  0.7700
11011TIP3    H154448   4.527   1.580   2.096 -1.1208 -0.2599  1.6093
11011TIP3    H254449   4.466   1.719   2.093 -2.0456 -0.6318  2.3908
11012TIP3   OH254450   4.309   4.698   0.440 -0.1538  0.3992  0.2355
11012TIP3    H154451   4.288   4.667   0.352  0.8005  1.6509 -0.4758
11012TIP3    H254452   4.224   4.706   0.484 -0.8041  1.1791 -1.0953
11013TIP3   OH254453   6.728   1.988   2.187 -0.3691 -0.1566  0.1702
11013TIP3    H154454   6.701   1.908   2.143  2.6227 -1.3331  0.2117
11013TIP3    H254455   6.734   2.053   2.116 -4.4453  0.7016  0.3671
11014TIP3   OH254456   0.321   3.808   1.008 -0.8245  0.0704  0.1999
11014TIP3    H154457   0.388   3.762   1.059 -0.8900 -0.4697 -0.1972
11014TIP3    H254458   0.256   3.835   1.072 -0.3437  0.4018  0.5608
11015TIP3   OH254459   4.830   3.074  11.990 -0.9207 -0.0025 -0.7307
11015TIP3    H154460   4.760   3.044  12.049 -0.1765  1.2663  0.8938
11015TIP3    H254461   4.909   3.071  12.044  0.2627 -1.0349 -2.4103
11016TIP3   OH254462   2.564   4.362  13.454 -0.7858  0.1080 -0.6769
11016TIP3    H154463   2.584   4.375  13.547 -1.0313 -0.6587 -0.5085
11016TIP3    H254464   2.647   4.332  13.416 -0.7454  0.1946 -0.6575
11017TIP3   OH254465   6.407   5.095  12.805 -0.1262  0.3993  0.7354
11017TIP3    H154466   6.410   5.166  12.742 -1.7831  0.0157  0.1583
11017TIP3    H254467   6.426   5.016  12.753  0.3986  0.2744  1.1077
11018TIP3   OH254468   2.584   5.961  16.558  0.0333 -0.3248  0.0143
11018TIP3    H154469   2.618   6.024  16.494 -2.6859  0.9925 -0.3103
11018TIP3    H254470   2.596   6.004  16.643 -0.9976  0.3167 -0.1330
11019TIP3   OH254471   5.188   4.523  13.034 -0.1790 -0.1912 -0.0326
11019TIP3    H154472   5.245   4.448  13.016  0.0984 -0.9147  3.1287
11019TIP3    H254473   5.242   4.582  13.087 -1.6725  0.1024  1.2630
11020TIP3   OH254474   2.997   4.647  10.394 -0.2806  0.5381  0.3498
11020TIP3    H154475   3.015   4.737  10.365  0.1427 -0.0169 -1.2537
11020TIP3    H254476   2.916   4.654  10.445 -2.0409  1.4795 -2.3018
11021TIP3   OH254477   6.371   3.686   2.150  0.7158 -0.3272  0.0818
11021TIP3    H154478   6.405   3.765   2.109 -2.4784  1.1661  0.0207
11021TIP3    H254479   6.352   3.712   2.240  1.0082 -1.5027  0.5035
11022TIP3   OH254480   6.495   3.035  13.712  0.2631  0.0423 -0.5771
11022TIP3    H154481   6.428   3.054  13.778  0.5840  0.6803 -0.4203
11022TIP3    H254482   6.498   2.940  13.707 -0.3185 -0.0000 -0.2408
11023TIP3   OH254483   1.352   5.121  11.938 -0.5440  0.8015 -0.1688
11023TIP3    H154484   1.301   5.173  12.001 -1.3968  0.4332 -0.5299
11023TIP3    H254485   1.371   5.040  11.985  1.1706  1.5675  0.5535
11024TIP3   OH254486   1.625   5.709   1.840 -0.5622  0.3608  0.2709
11024TIP3    H154487   1.694   5.647   1.867  1.7223  2.6420  0.0177
11024TIP3    H254488   1.643   5.725   1.747  0.3126  2.9706  0.8126
11025TIP3   OH254489   6.412   4.641  15.149  0.0405  0.0023  0.4322
11025TIP3    H154490   6.478   4.588  15.193 -0.2867 -1.4980 -0.7903
11025TIP3    H254491   6.344   4.579  15.125 -0.4543  1.0094 -0.8926
11026TIP3   OH254492   4.866   3.049  13.440  0.3131  0.3735 -0.1733
11026TIP3    H154493   4.809   3.080  13.511  0.9440 -0.8144  0.8986
11026TIP3    H254494   4.935   3.115  13.434  0.1890  0.5460  0.2410
11027TIP3   OH254495   6.127   2.403  14.718  0.1550  0.0059  0.0570
11027TIP3    H154496   6.095   2.357  14.640 -0.2315  1.2393 -0.5362
11027TIP3    H254497   6.057   2.391  14.782 -0.6761  1.0488 -0.6101
11028TIP3   OH254498   0.157   4.721  13.180 -0.2733  0.3571  0.0042
11028TIP3    H154499   0.153   4.817  13.188 -0.1231  0.3321  0.4222
11028TIP3    H254500   0.116   4.689  13.261  0.4169  0.0727  0.2483
11029TIP3   OH254501   5.608   4.174  13.344 -0.0705  0.1884 -0.5863
11029TIP3    H154502   5.567   4.107  13.289 -0.6184  0.2537 -0.2726
11029TIP3    H254503   5.694   4.139  13.364 -0.2494 -0.3039 -0.6478
11030TIP3   OH254504   2.608   4.978   4.959 -0.3745  0.1515  0.3938
11030TIP3    H154505   2.593   5.061   5.004 -1.2719 -0.1424  0.6707
11030TIP3    H254506   2.631   4.916   5.029 -0.7771 -0.0740  0.3321
11031TIP3   OH254507   6.166   3.010   0.209 -0.4884 -0.4734 -0.1370
11031TIP3    H154508   6.224   3.081   0.183  0.5030 -0.7554  1.1694
11031TIP3    H254509   6.130   2.976   0.127 -0.2892  0.9487 -0.8357
11032TIP3   OH254510   0.402   4.153  13.679  0.1362  0.1088 -0.9682
11032TIP3    H154511   0.489   4.138  13.716  0.5250  0.8481 -1.5652
11032TIP3    H254512   0.388   4.079  13.620 -0.3903 -0.9545  0.4381
11033TIP3   OH254513   6.623   4.603   2.515  0.0692  0.1547  0.2463
11033TIP3    H154514   6.611   4.571   2.426 -1.2880  1.1246  0.0479
11033TIP3    H254515   6.545   4.575   2.562  1.0419 -0.8615  1.3168
11034TIP3   OH254516   1.540   0.135   0.221 -0.0918  0.2642 -0.3521
11034TIP3    H154517   1.588   0.053   0.234  0.1539 -0.0526 -2.8474
11034TIP3    H254518   1.606   0.198   0.192 -0.5948  0.8052 -0.3421
11035TIP3   OH254519   0.975   3.876  16.599  0.0944 -0.9422  0.0512
11035TIP3    H154520   1.025   3.853  16.521  0.1434 -2.1744  0.4212
11035TIP3    H254521   1.037   3.864  16.671 -0.1737 -0.5695  0.3504
11036TIP3   OH254522   2.355   0.442   5.469 -0.3113 -0.0493 -0.3046
11036TIP3    H154523   2.322   0.363   5.512 -0.6882  1.1628  1.7614
11036TIP3    H254524   2.298   0.453   5.392 -0.6280 -1.4446 -0.2853
11037TIP3   OH254525   0.884   4.371  12.124 -0.1718  0.1258 -0.0603
11037TIP3    H154526   0.939   4.369  12.046  0.5043 -0.1550  0.4091
11037TIP3    H254527   0.836   4.453  12.118  0.6427  0.5997 -0.2531
11038TIP3   OH254528   6.727   0.210   5.675 -0.7247 -0.6189  0.1910
11038TIP3    H154529   6.695   0.142   5.734 -2.1896 -0.6398 -0.5895
11038TIP3    H254530   6.689   0.292   5.709 -0.9651 -0.5315 -0.2830
11039TIP3   OH254531   0.255   3.174  16.479  0.3224 -0.4272  0.0358
11039TIP3    H154532   0.307   3.242  16.435  0.8402 -0.3986  0.6834
11039TIP3    H254533   0.296   3.163  16.564 -0.9180 -0.2023  0.6824
11040TIP3   OH254534   5.747   0.796  16.675 -0.0162  0.5483  0.0705
11040TIP3    H154535   5.821   0.857  16.668  1.1813 -0.8572 -0.0239
11040TIP3    H254536   5.691   0.818  16.601  1.7122 -0.1110 -1.5339
11041TIP3   OH254537   0.641   3.742   2.293  0.1276 -0.1117  0.0031
11041TIP3    H154538   0.608   3.710   2.377 -0.2302 -1.4470 -0.6196
11041TIP3    H254539   0.736   3.739   2.301  0.0939 -1.0698  0.0631
11042TIP3   OH254540   3.402   5.554   5.567 -0.3957 -0.4793  0.3692
11042TIP3    H154541   3.480   5.594   5.606 -0.5723 -0.4654  0.7042
11042TIP3    H254542   3.402   5.587   5.477  0.7355 -1.5500 -0.0539
11043TIP3   OH254543   5.958   3.076   1.729 -0.1392 -0.2667  0.9795
11043TIP3    H154544   6.008   3.149   1.692  0.8020 -0.4318  1.8601
11043TIP3    H254545   5.908   3.041   1.656  1.3473 -0.3468 -0.0451
11044TIP3   OH254546   5.274   2.861   4.082  0.2132  0.1115  0.1530
11044TIP3    H154547   5.280   2.954   4.062  1.3993  0.1657  0.6912
11044TIP3    H254548   5.197   2.831   4.034 -1.1418  1.6941  1.2161
11045TIP3   OH254549   6.544   1.811   3.505 -0.0134 -0.6235  1.1497
11045TIP3    H154550   6.541   1.885   3.566 -0.0486  0.9141 -0.6423
11045TIP3    H254551   6.625   1.823   3.456 -1.6723  0.2923 -1.5631
11046TIP3   OH254552   1.430   5.684  16.848  0.1800 -0.3439  0.5319
11046TIP3    H154553   1.493   5.748  16.881  1.2305 -0.6622 -0.7315
11046TIP3    H254554   1.464   5.600  16.877 -0.1019 -0.4587  0.5279
11047TIP3   OH254555   0.003   6.456  12.719 -0.4867 -0.4142  0.7553
11047TIP3    H154556  -0.042   6.381  12.681 -0.9837  0.1656  0.1726
11047TIP3    H254557  -0.046   6.476  12.799 -1.0466 -0.0249  0.3244
11048TIP3   OH254558   5.204   2.555  10.798 -0.1487  0.7886  0.2708
11048TIP3    H154559   5.221   2.463  10.815  0.6384  0.1358 -3.3546
11048TIP3    H254560   5.108   2.562  10.801 -0.2883 -0.4339 -0.5170
11049TIP3   OH254561   6.585   6.341  13.257 -0.0154  0.1998  0.9224
11049TIP3    H154562   6.537   6.419  13.283  0.6915  0.4870  1.4095
11049TIP3    H254563   6.653   6.332  13.323 -0.5173 -1.2399  1.2846
11050TIP3   OH254564   5.675   4.274  11.744 -0.0808 -0.0889 -0.1433
11050TIP3    H154565   5.644   4.275  11.654 -1.3144  1.4381  0.2563
11050TIP3    H254566   5.654   4.361  11.778 -0.6364 -0.9599  1.9255
11051TIP3   OH254567   3.730   5.981  14.365 -0.0282 -0.2006  0.3611
11051TIP3    H154568   3.720   6.028  14.282  1.2226 -1.6677 -0.6927
11051TIP3    H254569   3.790   6.035  14.416  2.9692 -1.3906 -1.5915
11052TIP3   OH254570   1.477   1.299  12.707 -0.1096  0.1452 -0.4897
11052TIP3    H154571   1.542   1.261  12.648  0.8922 -0.5469  0.9957
11052TIP3    H254572   1.432   1.223  12.744 -0.2923  0.5426  0.1022
11053TIP3   OH254573   4.143   0.764   4.334 -0.1788 -0.7489  0.4145
11053TIP3    H154574   4.171   0.701   4.400  2.3506 -0.7109 -0.5069
11053TIP3    H254575   4.183   0.847   4.361  0.8364 -0.7194 -1.0659
11054TIP3   OH254576   6.347   4.541  12.782 -0.0308  0.6093  0.3801
11054TIP3    H154577   6.364   4.464  12.836  2.5067  0.0381 -1.1131
11054TIP3    H254578   6.276   4.586  12.828 -0.6901 -1.8799  2.0189
11055TIP3   OH254579   1.005   5.354   4.630  0.3100 -0.2343 -0.3330
11055TIP3    H154580   0.993   5.412   4.705  0.5250  1.6920 -1.7264
11055TIP3    H254581   1.064   5.285   4.661  1.1122  1.0180  0.9991
11056TIP3   OH254582   6.790   3.912  13.309 -0.1092 -0.1819  0.2438
11056TIP3    H154583   6.837   3.829  13.308  1.4754  0.6615  1.2854
11056TIP3    H254584   6.801   3.948  13.221 -1.7362 -1.5153 -0.5685
11057TIP3   OH254585   5.527   5.743   5.787 -0.2574  0.2431  0.3174
11057TIP3    H154586   5.529   5.653   5.819 -0.4968 -0.0011 -0.3462
11057TIP3    H254587   5.491   5.793   5.861 -0.8428 -0.3204  0.4262
11058TIP3   OH254588   5.753   6.034   5.369  0.1810  0.4750  0.1904
11058TIP3    H154589   5.837   6.079   5.377 -0.2667  1.4113 -0.1977
11058TIP3    H254590   5.698   6.071   5.439  0.0760 -0.1211  0.4365
11059TIP3   OH254591   1.267   2.755  16.741  0.1906  0.1351 -0.5719
11059TIP3    H154592   1.214   2.834  16.743 -0.9659 -0.6354 -0.0593
11059TIP3    H254593   1.357   2.787  16.728 -0.4509  1.4079 -2.2930
11060TIP3   OH254594   1.272   5.296   1.387  0.1022  0.5969  0.8126
11060TIP3    H154595   1.289   5.269   1.297  2.4823 -2.1664  1.9401
11060TIP3    H254596   1.190   5.345   1.382  0.9397  1.9509 -3.0254
11061TIP3   OH254597   0.403   0.341   5.362  0.0757  0.4899 -0.1226
11061TIP3    H154598   0.403   0.320   5.455  1.0331  1.2294  0.0533
11061TIP3    H254599   0.326   0.295   5.327  0.5272 -1.0013  0.7458
11062TIP3   OH254600   3.695   4.621  11.710  0.3661  0.2231 -0.6505
11062TIP3    H154601   3.697   4.571  11.628  0.6484 -0.3315 -0.3146
11062TIP3    H254602   3.623   4.683  11.698 -0.3641 -0.6346 -0.8737
11063TIP3   OH254603   6.389   2.541   4.657 -0.0116 -0.0772  0.4692
11063TIP3    H154604   6.390   2.448   4.678 -1.3707 -0.1070  0.5056
11063TIP3    H254605   6.452   2.550   4.585 -2.0503 -1.6205 -1.7029
11064TIP3   OH254606   3.507   4.248  13.584 -0.5323 -0.7096  0.5559
11064TIP3    H154607   3.533   4.184  13.651 -0.5304 -1.2581  0.0328
11064TIP3    H254608   3.497   4.330  13.633  0.9216 -0.7673  0.9859
11065TIP3   OH254609   0.437   3.441   1.054 -0.2615 -0.5566  0.0338
11065TIP3    H154610   0.384   3.378   1.104 -2.6097  1.8002  0.7368
11065TIP3    H254611   0.473   3.500   1.120  2.3618 -1.3202 -0.5681
11066TIP3   OH254612   6.568   0.273  13.526 -0.1745 -0.7885 -0.3800
11066TIP3    H154613   6.586   0.201  13.586  1.9616  1.3245  1.7243
11066TIP3    H254614   6.644   0.275  13.468  0.8125  0.9171  0.8863
11067TIP3   OH254615   0.916   0.753   2.698 -0.9066  0.0274 -0.0034
11067TIP3    H154616   0.863   0.711   2.630  0.7402  2.2280 -2.8510
11067TIP3    H254617   1.000   0.707   2.694 -0.4801  0.8096 -0.1687
11068TIP3   OH254618   3.043   1.241   3.858  0.0311 -0.3059 -0.1958
11068TIP3    H154619   3.078   1.190   3.785 -1.6068 -1.8117 -0.0150
11068TIP3    H254620   3.113   1.242   3.923  1.0746  0.0113 -1.3023
11069TIP3   OH254621   1.607   5.282  13.367 -0.1645  0.2395  0.0327
11069TIP3    H154622   1.539   5.214  13.371  0.0461 -0.0775 -1.1778
11069TIP3    H254623   1.634   5.294  13.458 -0.4044 -1.1165  0.3158
11070TIP3   OH254624   2.912   2.479   3.322 -0.7710  0.2575 -0.6034
11070TIP3    H154625   2.859   2.443   3.392 -0.9034  1.4377 -0.0690
11070TIP3    H254626   3.001   2.480   3.357 -0.9404  1.5021 -0.1512
11071TIP3   OH254627   3.876   0.524  12.291 -0.4606  0.1865  0.4752
11071TIP3    H154628   3.873   0.617  12.316  0.4154  1.0874 -2.3642
11071TIP3    H254629   3.784   0.501  12.275 -0.5015  1.6628 -2.0491
11072TIP3   OH254630   6.449   1.307  12.866 -0.3502 -0.2677  0.0056
11072TIP3    H154631   6.385   1.246  12.902 -1.6356 -0.1453 -1.9022
11072TIP3    H254632   6.525   1.252  12.846 -0.5224 -0.7546  0.6418
11073TIP3   OH254633   3.268   4.505  16.224  0.4344 -0.4204 -0.4550
11073TIP3    H154634   3.270   4.433  16.161  1.1779 -0.6373 -0.2009
11073TIP3    H254635   3.235   4.465  16.305  0.9309 -0.4960 -0.2907
11074TIP3   OH254636   4.462   5.789  15.874  0.4336  0.2188 -0.2080
11074TIP3    H154637   4.441   5.763  15.964  0.2322 -1.4284 -0.6999
11074TIP3    H254638   4.424   5.876  15.865  2.0202  1.2147  1.8581
11075TIP3   OH254639   2.212   6.102  15.246  1.0523 -0.5729 -0.3857
11075TIP3    H154640   2.242   6.069  15.331  0.9760 -1.4129 -0.6706
11075TIP3    H254641   2.120   6.074  15.240  1.1537 -0.8156 -0.8826
11076TIP3   OH254642   0.095   1.677  13.305  0.4309 -0.2414 -0.3645
11076TIP3    H154643   0.056   1.756  13.341  1.2437  0.7734 -1.5925
11076TIP3    H254644   0.069   1.607  13.365 -1.6205  0.6844 -0.1008
11077TIP3   OH254645   5.103   4.170  11.869 -0.3331 -0.1385  0.0463
11077TIP3    H154646   5.102   4.245  11.929 -1.6237 -0.0708 -0.0236
11077TIP3    H254647   5.021   4.177  11.821 -0.2091 -1.2848 -0.3657
11078TIP3   OH254648   5.698   3.406  13.276  0.1341  0.4071  0.2008
11078TIP3    H154649   5.711   3.376  13.366 -1.4102  1.4941  0.8297
11078TIP3    H254650   5.775   3.459  13.257  0.7277 -0.2651  0.6724
11079TIP3   OH254651   0.602   6.410   1.644 -0.1623  0.1891  0.0298
11079TIP3    H154652   0.568   6.322   1.664  2.7776 -1.4034 -1.3235
11079TIP3    H254653   0.566   6.430   1.558 -0.9904  0.4335  0.4203
11080TIP3   OH254654   3.151   0.844  15.015  0.1840 -0.5887 -0.2496
11080TIP3    H154655   3.202   0.854  14.935 -0.6097 -1.4644 -0.8882
11080TIP3    H254656   3.209   0.795  15.074  0.6044 -0.3313 -0.4437
11081TIP3   OH254657   2.974   3.253  13.881 -0.4260  0.0335 -0.0123
11081TIP3    H154658   2.948   3.338  13.846  0.1526  0.1114 -0.2709
11081TIP3    H254659   2.893   3.204  13.890 -0.6154  0.1245 -1.1865
11082TIP3   OH254660   3.182   5.043  14.442  0.0997  0.0877 -0.1230
11082TIP3    H154661   3.104   5.091  14.470 -1.0870  0.3681 -3.5319
11082TIP3    H254662   3.256   5.097  14.472 -1.1455  2.7270 -1.4648
11083TIP3   OH254663   3.878   4.504  16.858 -0.1220 -0.0387 -0.1287
11083TIP3    H154664   3.905   4.429  16.911 -1.1760  0.1471  0.6935
11083TIP3    H254665   3.783   4.510  16.870 -0.1511  1.0072 -0.7280
11084TIP3   OH254666   0.250   6.429   1.224 -0.6196 -0.0736  0.0200
11084TIP3    H154667   0.213   6.391   1.304  2.8267 -0.7744  1.4353
11084TIP3    H254668   0.261   6.522   1.245  0.7236 -0.3430  0.6096
11085TIP3   OH254669   5.552   5.664  15.097  0.7388  0.3049  0.4278
11085TIP3    H154670   5.647   5.652  15.090  0.5897 -0.9100  0.3511
11085TIP3    H254671   5.538   5.694  15.187  1.2261  0.8776  0.3174
11086TIP3   OH254672   0.686   3.778  10.976 -0.8788 -0.1680  0.1514
11086TIP3    H154673   0.764   3.788  10.920 -0.1760 -1.5300  0.8347
11086TIP3    H254674   0.614   3.811  10.923  0.0580  0.4112 -0.7973
11087TIP3   OH254675   6.434   2.552   1.568 -0.2100 -1.0037 -0.1644
11087TIP3    H154676   6.365   2.583   1.626 -0.6463 -0.5867 -0.8913
11087TIP3    H254677   6.388   2.505   1.498  0.0316  0.9507 -1.7333
11088TIP3   OH254678   5.482   2.878   4.822  0.0773  0.2295 -0.0911
11088TIP3    H154679   5.433   2.891   4.741 -2.0381  0.7068  1.1849
11088TIP3    H254680   5.487   2.966   4.861 -1.4859 -0.3686  1.6235
11089TIP3   OH254681   6.628   6.602  13.498 -0.0663 -0.7420  0.3671
11089TIP3    H154682   6.615   6.674  13.560  0.4601 -1.7891  1.7712
11089TIP3    H254683   6.541   6.566  13.484 -0.4220  0.5281 -0.8380
11090TIP3   OH254684   2.239   3.170  11.675 -0.1461  0.5377  0.5328
11090TIP3    H154685   2.226   3.122  11.757 -2.1283 -2.1836 -1.1598
11090TIP3    H254686   2.163   3.227  11.668 -0.9815 -0.6021 -0.1676
11091TIP3   OH254687   0.847   4.366  16.490  0.3028  0.2286 -0.1222
11091TIP3    H154688   0.852   4.270  16.496  0.7448 -0.1497 -4.0206
11091TIP3    H254689   0.938   4.394  16.500  0.3770  0.1108 -0.4703
11092TIP3   OH254690   0.597   2.614   3.904 -0.2289  0.1422 -0.6412
11092TIP3    H154691   0.567   2.637   3.816 -0.3542 -0.1787 -0.6850
11092TIP3    H254692   0.518   2.584   3.948  0.1136 -1.2250 -0.9218
11093TIP3   OH254693   4.393   1.743  11.031 -0.1867 -0.2884  0.0995
11093TIP3    H154694   4.350   1.828  11.028 -1.6692 -0.8160  2.8228
11093TIP3    H254695   4.336   1.684  10.982 -0.3542 -0.1687  0.1525
11094TIP3   OH254696   2.496   6.285  14.191 -0.2517 -0.2567 -0.5607
11094TIP3    H154697   2.423   6.325  14.144  0.8253  1.7296 -0.6064
11094TIP3    H254698   2.550   6.358  14.219  0.8995 -1.5971  0.8776
11095TIP3   OH254699   6.136   2.615  12.502  0.1439 -0.3843  0.2251
11095TIP3    H154700   6.081   2.617  12.424  0.1497 -2.3348  0.1089
11095TIP3    H254701   6.159   2.706  12.519  0.2102  0.0766 -2.1006
11096TIP3   OH254702   1.660   0.885  16.216 -0.0245 -0.4733 -0.1021
11096TIP3    H154703   1.599   0.959  16.220  0.0797 -0.1856 -2.4311
11096TIP3    H254704   1.690   0.874  16.306  0.5888  2.8584  0.2084
11097TIP3   OH254705   0.407   3.155   2.993  0.1690 -0.0864 -0.1165
11097TIP3    H154706   0.458   3.109   2.927  0.7074 -3.6240  2.4627
11097TIP3    H254707   0.316   3.132   2.974  0.4630 -3.0684  1.4757
11098TIP3   OH254708   5.512   3.159  14.077 -0.7007 -0.1829  0.1033
11098TIP3    H154709   5.583   3.204  14.121 -0.8856  0.9278 -0.6588
11098TIP3    H254710   5.433   3.207  14.103 -1.0897 -0.9678  0.4028
11099TIP3   OH254711   3.956   4.276  11.120 -0.2792 -0.4600  0.6430
11099TIP3    H154712   3.966   4.182  11.131 -1.4360 -0.5656  0.9119
11099TIP3    H254713   3.949   4.288  11.025 -1.5359 -0.8236  0.6686
11100TIP3   OH254714   3.399   2.156   5.068 -0.1824 -0.0048 -0.0949
11100TIP3    H154715   3.464   2.099   5.109 -0.5261  0.0446  0.5219
11100TIP3    H254716   3.315   2.114   5.087 -0.4188  0.5747  0.1427
11101TIP3   OH254717   4.679   1.073  12.614 -0.3548 -0.5277  0.2094
11101TIP3    H154718   4.743   1.140  12.637 -0.8215 -0.5795  1.7665
11101TIP3    H254719   4.729   0.992  12.609 -0.2976 -0.6184  1.7101
11102TIP3   OH254720   0.348   1.070   4.733 -0.0957 -0.2602  0.2767
11102TIP3    H154721   0.287   1.131   4.775 -0.0611 -0.1923  0.2285
11102TIP3    H254722   0.340   1.089   4.639 -1.6250 -1.7280  0.0563
11103TIP3   OH254723   2.530   2.340   3.301 -0.3442  0.4511 -0.5577
11103TIP3    H154724   2.529   2.421   3.351  1.9414 -0.7716  1.7003
11103TIP3    H254725   2.527   2.271   3.367  1.1391 -1.2793 -2.1780
11104TIP3   OH254726   6.386   6.573  14.851 -0.2001 -0.2134 -0.5358
11104TIP3    H154727   6.410   6.486  14.885  0.2522  0.0875 -0.0835
11104TIP3    H254728   6.349   6.619  14.926 -1.0225 -0.2210 -0.9242
11105TIP3   OH254729   0.544   5.696   4.942  0.1998  0.4831  0.0297
11105TIP3    H154730   0.546   5.611   4.986  0.9988  0.5942  0.2139
11105TIP3    H254731   0.584   5.680   4.856  0.8166  0.7819  0.2601
11106TIP3   OH254732   2.698   1.725   3.169  0.1761  0.4996 -0.7693
11106TIP3    H154733   2.686   1.820   3.168 -1.4158  0.3267 -0.3050
11106TIP3    H254734   2.655   1.694   3.090 -0.6432  0.0346 -0.1542
11107TIP3   OH254735   1.927   5.077   2.924 -0.5511 -0.5588 -0.0541
11107TIP3    H154736   1.833   5.088   2.932 -0.3926  0.2294  0.9840
11107TIP3    H254737   1.963   5.164   2.942  0.5456 -1.5799  3.6839
11108TIP3   OH254738   1.622   2.138   1.660  0.3082  0.5170  0.7871
11108TIP3    H154739   1.569   2.204   1.616  0.9811 -0.0727 -1.0014
11108TIP3    H254740   1.640   2.175   1.746 -0.8622  1.8321  0.5030
11109TIP3   OH254741   0.693   5.926  10.579 -0.0365  0.1458  0.0398
11109TIP3    H154742   0.715   5.897  10.667  1.4132 -0.0850 -0.3637
11109TIP3    H254743   0.598   5.917  10.573  0.0217 -1.4908  1.0102
11110TIP3   OH254744   1.252   4.911  10.532 -0.7596 -0.5225  0.0074
11110TIP3    H154745   1.168   4.872  10.506 -0.9252  0.7992 -1.6114
11110TIP3    H254746   1.263   4.985  10.472  1.0399  0.0005  0.9314
11111TIP3   OH254747   5.531   2.458   2.099 -0.6670 -0.6621 -0.0621
11111TIP3    H154748   5.617   2.448   2.141  0.9626  3.2920 -1.9268
11111TIP3    H254749   5.484   2.520   2.155 -1.2031 -0.6608 -0.5038
11112TIP3   OH254750   2.648   5.958   6.096 -0.0185  0.6857 -0.5896
11112TIP3    H154751   2.722   6.004   6.137  1.6505 -0.8176 -1.7339
11112TIP3    H254752   2.574   6.017   6.107  1.5779  2.7662 -0.3034
11113TIP3   OH254753   0.889   0.576   3.714  0.1518  0.0646  0.1949
11113TIP3    H154754   0.886   0.602   3.622  0.0472 -1.6418 -0.3295
11113TIP3    H254755   0.968   0.523   3.721  1.4473  2.0642  1.6728
11114TIP3   OH254756   6.446   0.488   5.136  0.4989  0.9690 -0.3325
11114TIP3    H154757   6.402   0.453   5.059 -1.1313  0.7084  0.6789
11114TIP3    H254758   6.505   0.418   5.164  1.6055  1.3162 -1.6989
11115TIP3   OH254759   1.052   6.034  16.247 -0.1757 -0.7752 -0.4318
11115TIP3    H154760   1.129   5.981  16.266 -0.3395 -0.7923  0.2030
11115TIP3    H254761   1.038   6.085  16.326 -0.5811 -0.4765 -0.6923
11116TIP3   OH254762   2.918   6.028  17.203 -0.6672  0.2810  0.7381
11116TIP3    H154763   2.958   6.071  17.128 -0.9377  0.9236  0.9612
11116TIP3    H254764   2.896   5.940  17.170  1.0802 -0.1715  0.6666
11117TIP3   OH254765   5.133   3.884   1.189  0.3908  0.2454  0.2359
11117TIP3    H154766   5.063   3.941   1.222 -0.4775 -0.3825 -0.4592
11117TIP3    H254767   5.152   3.918   1.101 -1.9519 -1.9760 -1.2864
11118TIP3   OH254768   2.534   1.769  14.471 -0.0634  0.2040  0.4812
11118TIP3    H154769   2.549   1.732  14.384  0.9076  0.6238  0.4614
11118TIP3    H254770   2.441   1.792  14.471 -0.1623 -0.1484 -0.3071
11119TIP3   OH254771   3.119   6.428  14.301  0.6553 -0.0064  0.1052
11119TIP3    H154772   3.123   6.409  14.395  0.8438 -0.5132  0.0012
11119TIP3    H254773   3.103   6.522  14.295  1.7757  0.2305  0.6366
11120TIP3   OH254774   3.209   4.380   3.822 -0.4495 -0.7542  0.7311
11120TIP3    H154775   3.129   4.372   3.875  0.2285  1.2330  2.1692
11120TIP3    H254776   3.186   4.443   3.754 -0.0148  0.1342  1.3924
11121TIP3   OH254777   0.411   3.728   0.414  0.1501  0.3366  0.1795
11121TIP3    H154778   0.485   3.678   0.448  0.5132  1.0814  0.5172
11121TIP3    H254779   0.391   3.791   0.483 -0.7465  0.1988  0.0532
11122TIP3   OH254780   4.913   0.837  11.062 -0.0846 -0.5059  0.0004
11122TIP3    H154781   4.891   0.801  11.148 -1.2954  0.4670  0.1073
11122TIP3    H254782   5.007   0.857  11.068 -0.1167 -0.6213  1.0194
11123TIP3   OH254783   5.679   4.594  12.923 -0.0916  0.3355 -0.6402
11123TIP3    H154784   5.664   4.645  12.844  0.1533 -0.1305 -0.9857
11123TIP3    H254785   5.764   4.553  12.911  0.7572  1.6279  0.6086
11124TIP3   OH254786   5.094   3.699   4.975  0.8383 -0.3271 -0.4681
11124TIP3    H154787   5.063   3.778   5.019  0.4751 -1.4458  1.4112
11124TIP3    H254788   5.178   3.679   5.017 -0.3478 -2.4037  1.1278
11125TIP3   OH254789   2.874   0.086   2.588 -0.1023  0.1173 -0.0926
11125TIP3    H154790   2.828   0.056   2.510  0.6685  0.7518 -0.7967
11125TIP3    H254791   2.927   0.011   2.615  1.3712  0.5879 -1.5107
11126TIP3   OH254792   5.070   4.174  13.068 -0.3822  0.5302  0.7137
11126TIP3    H154793   5.121   4.179  12.987 -0.5603 -1.8714  0.3868
11126TIP3    H254794   4.978   4.178  13.039 -0.4563  1.9544  1.0506
11127TIP3   OH254795   5.965   2.543  12.936 -0.1491 -0.1355 -0.0865
11127TIP3    H154796   5.924   2.628  12.949 -1.7360 -1.0527  1.3417
11127TIP3    H254797   6.059   2.560  12.944 -0.4344  1.4639  0.1615
11128TIP3   OH254798   3.226   2.497   4.839  0.1256  0.2562  0.4774
11128TIP3    H154799   3.260   2.562   4.778  0.1530  0.0769  0.3011
11128TIP3    H254800   3.220   2.543   4.923  0.4422  0.3947  0.4248
11129TIP3   OH254801   4.146   0.652   4.593  0.2674  0.2322  0.0864
11129TIP3    H154802   4.196   0.570   4.597 -0.8181 -0.4328  0.6512
11129TIP3    H254803   4.151   0.687   4.682  0.3034  0.5191 -0.0288
11130TIP3   OH254804   2.191   6.539  14.759 -0.3166  0.2680 -0.4390
11130TIP3    H154805   2.116   6.577  14.803 -0.6544 -0.9584  0.0719
11130TIP3    H254806   2.154   6.489  14.686  0.0741  0.3963 -0.7327
11131TIP3   OH254807   3.676   6.633  10.970  0.1924 -0.8662 -0.5113
11131TIP3    H154808   3.620   6.656  10.896  1.4469  0.6940 -1.0231
11131TIP3    H254809   3.726   6.557  10.940  0.7649 -0.1775 -1.3086
11132TIP3   OH254810   4.079   4.853   5.998  0.1539  0.0226  0.0276
11132TIP3    H154811   4.164   4.825   6.033 -0.5796  0.1884  2.0619
11132TIP3    H254812   4.050   4.781   5.942 -0.6517 -2.3773  3.3110
11133TIP3   OH254813   3.385   6.154  16.069  0.2395 -0.3012 -0.2705
11133TIP3    H154814   3.428   6.167  16.154  0.7015 -0.0496 -0.5445
11133TIP3    H254815   3.311   6.096  16.089 -0.0277  0.2613  0.4198
11134TIP3   OH254816   3.455   0.235   4.328  0.0649 -0.0684 -0.1464
11134TIP3    H154817   3.437   0.325   4.356  0.1966 -1.2371  4.5771
11134TIP3    H254818   3.370   0.192   4.329  0.4162 -0.8076  1.5373
11135TIP3   OH254819   3.677   6.628   3.124 -0.2883 -0.1163 -0.2059
11135TIP3    H154820   3.705   6.597   3.038 -0.5877 -0.8634 -0.0438
11135TIP3    H254821   3.756   6.626   3.177 -0.5683 -2.1765  0.2398
11136TIP3   OH254822   3.477   6.701   2.456 -0.2600 -0.1407  0.1661
11136TIP3    H154823   3.535   6.741   2.391 -1.2273 -1.1401 -1.3527
11136TIP3    H254824   3.394   6.748   2.446 -0.1395  0.3835  1.4112
11137TIP3   OH254825   2.595   2.166  16.330  0.2383  0.4685  0.0235
11137TIP3    H154826   2.548   2.086  16.306  1.5842 -0.6590  1.0084
11137TIP3    H254827   2.633   2.197  16.247 -1.5194  0.9613 -0.6378
11138TIP3   OH254828   5.545   2.357  11.101  0.1587 -0.2812 -0.5939
11138TIP3    H154829   5.467   2.322  11.057 -0.4794  0.2574  0.0666
11138TIP3    H254830   5.610   2.368  11.032 -0.5344 -0.2409 -1.2499
11139TIP3   OH254831   6.035   4.704  11.501  0.5751 -0.0218 -0.1851
11139TIP3    H154832   6.035   4.700  11.405 -0.1142 -1.2667 -0.1456
11139TIP3    H254833   5.943   4.713  11.525  0.4282 -2.6399  0.4402
11140TIP3   OH254834   0.184   6.531   0.209  0.1070  0.0914  0.0012
11140TIP3    H154835   0.182   6.439   0.185  1.4625 -0.0178  0.2626
11140TIP3    H254836   0.121   6.538   0.281 -1.0457 -0.3343 -0.9309
11141TIP3   OH254837   3.313   1.185  13.637  0.0292 -0.1539  1.0666
11141TIP3    H154838   3.375   1.181  13.564 -2.5087  1.6961 -1.4039
11141TIP3    H254839   3.349   1.252  13.695  0.6575  0.4969 -0.0385
11142TIP3   OH254840   1.687   4.191   1.890 -0.0630  1.0293 -0.1854
11142TIP3    H154841   1.649   4.193   1.977  0.0324 -2.1384  0.0473
11142TIP3    H254842   1.731   4.275   1.881 -1.0014  1.8867  2.3508
11143TIP3   OH254843   5.083   0.412  16.601 -0.1397  0.1497 -0.1834
11143TIP3    H154844   5.029   0.464  16.541  1.8708  0.6234 -1.6918
11143TIP3    H254845   5.146   0.475  16.636 -1.2007 -0.1373  2.4447
11144TIP3   OH254846   3.760   3.439   1.705  0.8311  0.6907 -0.1748
11144TIP3    H154847   3.720   3.382   1.770 -2.1385 -1.6880 -3.6587
11144TIP3    H254848   3.697   3.510   1.693  1.4967  1.2780 -0.2534
11145TIP3   OH254849   1.544   1.044   1.484  0.2579 -0.0261 -0.3133
11145TIP3    H154850   1.545   1.106   1.556  0.1945  0.1911 -0.4974
11145TIP3    H254851   1.503   0.965   1.520 -2.5387  1.0434 -0.8620
11146TIP3   OH254852   2.752   3.077  11.527 -0.5416 -0.5081 -0.0376
11146TIP3    H154853   2.701   3.024  11.465 -1.9057  1.0866 -0.3566
11146TIP3    H254854   2.756   3.023  11.607 -0.8552 -1.5772 -0.7249
11147TIP3   OH254855   6.635   4.442  14.712 -0.1360 -0.0717  0.4917
11147TIP3    H154856   6.650   4.415  14.622  0.2185  0.8146  0.2768
11147TIP3    H254857   6.655   4.364  14.764  0.0001 -0.4815 -0.1632
11148TIP3   OH254858   1.720   1.868   2.818  0.1887 -0.0972 -0.1077
11148TIP3    H154859   1.758   1.953   2.798 -3.4416  1.7425 -0.0642
11148TIP3    H254860   1.677   1.840   2.737  0.3502 -1.3419  0.2096
11149TIP3   OH254861   2.746   0.604   4.753  0.0188  0.5011 -0.3278
11149TIP3    H154862   2.770   0.522   4.710  0.2577  0.2147  0.3493
11149TIP3    H254863   2.764   0.671   4.687 -2.1046 -0.1298 -1.6571
11150TIP3   OH254864   2.773   5.485  15.212 -0.6457  0.3923  0.2047
11150TIP3    H154865   2.719   5.512  15.286 -0.4433  0.0126  0.4983
11150TIP3    H254866   2.835   5.421  15.250 -0.8798 -0.1941 -0.3861
11151TIP3   OH254867   5.796   0.995   3.398  0.5944  0.1121 -0.7008
11151TIP3    H154868   5.759   0.939   3.330 -0.7437  0.0130  0.0747
11151TIP3    H254869   5.771   1.084   3.372  2.5325  0.3873 -1.8164
11152TIP3   OH254870   4.682   1.697  13.396  0.4900  0.0741  0.3458
11152TIP3    H154871   4.700   1.615  13.349  1.1987  0.4097  0.0131
11152TIP3    H254872   4.651   1.757  13.329  0.0761  0.1167  0.5713
11153TIP3   OH254873   3.544   1.764   3.644  0.5134  0.0748  0.6815
11153TIP3    H154874   3.493   1.722   3.713  1.7822 -0.5703  1.2791
11153TIP3    H254875   3.628   1.785   3.687  0.4885  1.8095 -0.0298
11154TIP3   OH254876   2.413   5.279   0.098  0.0539 -0.2391 -0.3561
11154TIP3    H154877   2.417   5.279   0.194  0.8731  1.0627 -0.3623
11154TIP3    H254878   2.496   5.317   0.070 -1.5132  2.8189 -1.4483
11155TIP3   OH254879   3.592   5.863   1.340 -0.8263 -0.7520  0.3040
11155TIP3    H154880   3.659   5.801   1.311  0.1077  1.6078 -3.2950
11155TIP3    H254881   3.639   5.926   1.394 -0.6931 -0.5993  0.0164
11156TIP3   OH254882   5.574   4.559  14.223  0.2367 -0.1827  0.2071
11156TIP3    H154883   5.532   4.541  14.306  1.5195  0.0854  0.9394
11156TIP3    H254884   5.518   4.518  14.158  0.2448 -2.1289  1.3637
11157TIP3   OH254885   0.977   6.257  12.689 -0.1639 -1.0597  0.7777
11157TIP3    H154886   0.917   6.329  12.706  1.8251  0.8571  0.2297
11157TIP3    H254887   1.042   6.263  12.759  0.8327 -1.3957 -0.0908
11158TIP3   OH254888   5.468   3.113   2.970 -0.0232 -0.2443  0.3314
11158TIP3    H154889   5.414   3.151   2.900  0.3153  0.4325  0.4297
11158TIP3    H254890   5.494   3.027   2.936  0.8586  0.4196 -0.7572
11159TIP3   OH254891   2.622   2.370  13.056 -0.6604 -0.3395 -0.2986
11159TIP3    H154892   2.634   2.293  13.001  0.3329 -0.8127  0.5373
11159TIP3    H254893   2.541   2.353  13.104 -0.7391 -0.6116 -0.5296
11160TIP3   OH254894   5.504   2.052   0.368  0.4484 -0.3002 -0.1856
11160TIP3    H154895   5.593   2.072   0.340  0.8445 -0.6342  0.8034
11160TIP3    H254896   5.455   2.132   0.348  1.0730  0.0654 -0.2846
11161TIP3   OH254897   6.359   5.604  15.251 -0.0008 -0.1335  0.1765
11161TIP3    H154898   6.380   5.691  15.286 -0.2242  1.1850 -2.7047
11161TIP3    H254899   6.444   5.566  15.229  0.0198 -0.1607  0.2975
11162TIP3   OH254900   5.502   1.919  10.147 -0.1274 -0.1909 -0.4675
11162TIP3    H154901   5.491   1.824  10.138 -0.8946 -0.2985  1.2549
11162TIP3    H254902   5.596   1.932  10.153 -0.0069 -0.8171 -0.9113
11163TIP3   OH254903   6.294   2.891  11.943  0.2615 -0.3531 -0.0477
11163TIP3    H154904   6.222   2.871  11.883  1.5157 -0.7239 -1.5004
11163TIP3    H254905   6.270   2.975  11.983  0.1440  0.8247 -2.3993
11164TIP3   OH254906   1.828   0.925   2.733  0.5010  0.4335 -0.2851
11164TIP3    H154907   1.886   0.934   2.809  0.8263  0.2924 -0.5129
11164TIP3    H254908   1.784   0.841   2.746 -0.2895  0.9266  0.3161
11165TIP3   OH254909   5.523   4.666   5.751 -0.3132  0.1674 -0.2207
11165TIP3    H154910   5.608   4.709   5.760 -0.4509  0.5234 -0.6123
11165TIP3    H254911   5.477   4.686   5.833  0.9732 -2.3087  1.2401
11166TIP3   OH254912   5.720   0.467  14.913 -0.7626 -0.1300 -0.1423
11166TIP3    H154913   5.746   0.474  14.821 -2.1776 -0.7658 -0.6132
11166TIP3    H254914   5.769   0.537  14.957  0.1682 -0.0180 -1.3171
11167TIP3   OH254915   4.639   4.626   3.216  0.0873 -0.1842  0.0176
11167TIP3    H154916   4.683   4.567   3.154 -0.4034 -0.5166 -0.0136
11167TIP3    H254917   4.617   4.571   3.290 -2.2107 -0.5423 -0.8489
11168TIP3   OH254918   4.332   0.490  11.306 -0.0980 -0.0071  0.5908
11168TIP3    H154919   4.381   0.546  11.246 -1.5923  1.3158  0.5460
11168TIP3    H254920   4.384   0.488  11.386 -0.0920  1.6478  0.6659
11169TIP3   OH254921   4.039   0.984   5.411 -0.6052  0.5161  0.8625
11169TIP3    H154922   3.999   1.053   5.357  0.4684 -0.4077 -1.1997
11169TIP3    H254923   4.074   0.921   5.349  1.4313 -0.2257  2.6104
11170TIP3   OH254924   5.619   1.634   4.187 -0.0008  0.1903 -0.1034
11170TIP3    H154925   5.593   1.724   4.203 -1.1069  0.0518 -1.0367
11170TIP3    H254926   5.713   1.633   4.205  0.1267  1.6508 -0.5859
11171TIP3   OH254927   3.475   6.175  16.336 -0.0991 -0.1439 -0.6798
11171TIP3    H154928   3.409   6.107  16.349 -0.5401 -0.2590 -3.0482
11171TIP3    H254929   3.440   6.251  16.382 -1.9131 -0.2261 -1.7911
11172TIP3   OH254930   5.899   6.186   5.944 -0.4752  0.2694  0.1456
11172TIP3    H154931   5.961   6.127   5.901  1.8432  2.3262  0.4465
11172TIP3    H254932   5.917   6.177   6.037 -2.1776 -0.6525  0.4297
11173TIP3   OH254933   4.011   4.046   5.383 -0.4826  0.0615 -0.2611
11173TIP3    H154934   4.060   4.126   5.400  0.1107 -0.2984 -0.2436
11173TIP3    H254935   3.921   4.066   5.410  0.2887 -0.3329  3.0228
11174TIP3   OH254936   0.767   6.460   2.044 -0.6719  0.1224 -1.1199
11174TIP3    H154937   0.814   6.543   2.051  0.8281 -0.8029  0.6415
11174TIP3    H254938   0.686   6.475   2.093  0.4914  0.0008  0.9350
11175TIP3   OH254939   5.733   1.782   3.103 -0.0959  0.0446  0.3580
11175TIP3    H154940   5.722   1.865   3.056 -0.7722 -0.3301 -0.1402
11175TIP3    H254941   5.784   1.727   3.044 -0.3371 -0.1777  0.3577
11176TIP3   OH254942   3.592   0.145   4.086 -0.2550 -0.2501 -0.1282
11176TIP3    H154943   3.649   0.223   4.082 -0.2942 -0.2337 -0.3888
11176TIP3    H254944   3.509   0.179   4.121 -0.0389 -0.3164  0.4725
11177TIP3   OH254945   5.205   2.765  16.628 -0.0958 -0.0263 -0.4406
11177TIP3    H154946   5.153   2.786  16.704  0.4185 -0.3243  0.0045
11177TIP3    H254947   5.195   2.840  16.569  0.0784  0.5292  0.2317
11178TIP3   OH254948   3.004   6.453   0.815 -0.2521  0.6684  0.0590
11178TIP3    H154949   2.910   6.453   0.831 -0.1007  0.2836  1.0350
11178TIP3    H254950   3.041   6.409   0.892  0.6443 -0.0371 -0.7506
11179TIP3   OH254951   4.283   5.086   2.785  0.0082  0.4014 -0.3026
11179TIP3    H154952   4.324   5.173   2.780 -1.1121  0.8656 -2.6864
11179TIP3    H254953   4.189   5.104   2.790 -0.3070 -0.6418 -1.9055
11180TIP3   OH254954   4.774   4.169  14.053 -0.5408  0.1564  0.5324
11180TIP3    H154955   4.793   4.105  13.983 -2.4085 -0.5262  0.6068
11180TIP3    H254956   4.712   4.125  14.110  0.4034  0.9771  2.2840
11181TIP3   OH254957   4.898   0.693  16.942 -0.0578 -0.0772  0.2529
11181TIP3    H154958   4.969   0.727  16.888  0.0571  0.1934  0.5650
11181TIP3    H254959   4.874   0.610  16.901 -0.3745  0.4014 -0.5559
11182TIP3   OH254960   4.427   3.117   4.316  0.4015  0.0032 -0.2040
11182TIP3    H154961   4.412   3.070   4.399 -1.1621 -1.7407 -1.3934
11182TIP3    H254962   4.487   3.188   4.340 -0.1491 -0.2944  2.4638
11183TIP3   OH254963   1.799   0.220  11.619  0.1557  0.1595  0.1336
11183TIP3    H154964   1.855   0.152  11.582  0.1536  0.1492  0.1493
11183TIP3    H254965   1.760   0.180  11.696  2.8741  1.2944  2.2652
11184TIP3   OH254966   3.954   6.496  14.266 -0.1431  0.0128 -0.3228
11184TIP3    H154967   4.028   6.466  14.212  0.6150  0.2772  0.5483
11184TIP3    H254968   3.892   6.423  14.265  0.7956 -0.8165  0.1471
11185TIP3   OH254969   4.102   2.762   1.119  0.7638 -0.0515  0.0197
11185TIP3    H154970   4.134   2.725   1.201 -1.1516  1.0600  1.3110
11185TIP3    H254971   4.019   2.803   1.141 -0.1752 -0.3599 -2.6386
11186TIP3   OH254972   5.143   2.627   1.755 -0.4112 -0.0756 -0.4985
11186TIP3    H154973   5.157   2.719   1.777 -0.3098  0.0262 -0.9797
11186TIP3    H254974   5.203   2.580   1.813 -0.1432  0.1878 -0.5560
11187TIP3   OH254975   2.595   5.549  15.423 -0.4742 -0.3096 -0.2679
11187TIP3    H154976   2.652   5.509  15.489 -0.9079 -0.5629 -0.0403
11187TIP3    H254977   2.513   5.500  15.430 -0.7440  0.0997 -0.5371
11188TIP3   OH254978   1.202   0.139  12.260  0.1683 -0.4164 -0.2154
11188TIP3    H154979   1.257   0.121  12.337  0.0604 -0.7240 -0.2114
11188TIP3    H254980   1.242   0.216  12.220  1.2765 -1.2956 -0.8451
11189TIP3   OH254981   0.367   1.107   0.152  0.2061 -0.1980 -0.4997
11189TIP3    H154982   0.332   1.138   0.068  3.1180 -0.5884 -1.9702
11189TIP3    H254983   0.429   1.039   0.129 -0.0348 -1.4372  2.1415
11190TIP3   OH254984   6.548   0.408   0.495 -0.1228 -0.1121 -0.3257
11190TIP3    H154985   6.457   0.427   0.474 -0.4094  0.0100  0.9577
11190TIP3    H254986   6.566   0.459   0.573  0.7621 -0.8721 -0.0107
11191TIP3   OH254987   3.944   5.297   4.791 -0.4186  0.4751 -0.1215
11191TIP3    H154988   3.905   5.211   4.780 -0.0863  0.1747  0.9045
11191TIP3    H254989   3.895   5.338   4.862 -0.1592  0.8844 -0.1695
11192TIP3   OH254990   1.699   6.385   5.422 -0.1108  0.2084  0.2463
11192TIP3    H154991   1.746   6.356   5.343 -0.1610  0.0689  0.2666
11192TIP3    H254992   1.763   6.376   5.492  0.2456  1.2776  0.0684
11193TIP3   OH254993   2.994   1.917  15.525  0.6496 -0.1167 -0.3151
11193TIP3    H154994   2.912   1.875  15.552  0.4042 -0.2638 -1.2435
11193TIP3    H254995   3.032   1.857  15.461  1.5065 -0.0620  0.1331
11194TIP3   OH254996   4.910   1.317   6.124  0.3608  0.1073  0.0614
11194TIP3    H154997   4.896   1.399   6.171 -0.2106 -0.8038  1.5236
11194TIP3    H254998   4.986   1.278   6.165  0.6506 -0.0883 -0.6537
11195TIP3   OH254999   0.912   3.829   4.858  0.0611 -0.5135  0.4930
11195TIP3    H155000   0.832   3.779   4.839  0.1728 -0.2218 -0.9079
11195TIP3    H255001   0.880   3.916   4.884 -0.1115 -0.0799 -1.0338
11196TIP3   OH255002   4.003   2.389  14.529 -0.3390 -0.2556  0.2824
11196TIP3    H155003   3.994   2.448  14.454 -2.0909 -0.0259  0.6249
11196TIP3    H255004   3.932   2.326  14.519 -1.0597  0.1995  2.0756
11197TIP3   OH255005   5.574   4.457   1.791  0.0040 -0.2879 -0.2686
11197TIP3    H155006   5.549   4.390   1.855  1.0209 -1.3253 -0.9282
11197TIP3    H255007   5.574   4.539   1.842 -0.0129 -0.9650  0.8594
11198TIP3   OH255008   3.508   4.515  11.336  0.4319  0.4617 -0.0147
11198TIP3    H155009   3.438   4.458  11.302 -1.2311  1.1322  2.0749
11198TIP3    H255010   3.588   4.464  11.324 -0.7255 -1.4296 -0.1869
11199TIP3   OH255011   5.897   3.549   3.453  0.2159 -0.2619  0.0058
11199TIP3    H155012   5.894   3.548   3.357  1.9672  1.5056 -0.1058
11199TIP3    H255013   5.815   3.591   3.478 -0.7212 -1.6239 -0.6458
11200TIP3   OH255014   3.885   4.067   4.298  0.1308 -0.1474 -0.2988
11200TIP3    H155015   3.829   4.033   4.369  0.8619 -1.7240 -0.4257
11200TIP3    H255016   3.951   4.120   4.342  1.3579 -2.1556  0.4101
11201TIP3   OH255017   5.469   4.393   1.538  0.3659  0.3935 -0.1543
11201TIP3    H155018   5.512   4.448   1.604 -0.4352  1.1246 -0.2140
11201TIP3    H255019   5.500   4.428   1.455  1.4612 -0.5999 -0.1715
11202TIP3   OH255020   0.655   4.264  11.285  0.0126 -0.8028 -0.1938
11202TIP3    H155021   0.697   4.316  11.216  0.1560  1.3397  1.3924
11202TIP3    H255022   0.686   4.175  11.270  1.1956 -0.1526 -2.0033
11203TIP3   OH255023   2.184   5.534   0.114 -0.4141  0.6427 -0.3697
11203TIP3    H155024   2.182   5.523   0.019 -2.1865  1.0905 -0.4123
11203TIP3    H255025   2.134   5.460   0.148 -1.9236  1.7846  0.0319
11204TIP3   OH255026   0.676   1.781  15.300 -0.2197  0.0533  0.4536
11204TIP3    H155027   0.694   1.864  15.344  0.5791 -0.0039  0.2578
11204TIP3    H255028   0.666   1.804  15.208  1.3452 -0.1980  0.1786
11205TIP3   OH255029   6.615   2.645  11.783  0.2981 -0.7155  0.3537
11205TIP3    H155030   6.689   2.705  11.779  0.1301 -0.4873  0.6344
11205TIP3    H255031   6.551   2.682  11.722  0.7116 -1.3289 -0.4735
11206TIP3   OH255032   5.427   0.600  14.824 -0.8969 -0.1692  0.0626
11206TIP3    H155033   5.413   0.539  14.752 -0.6620 -0.2178  0.0583
11206TIP3    H255034   5.426   0.686  14.784 -2.3073 -0.0917  0.2155
11207TIP3   OH255035   1.751   2.376   3.279  0.2430  0.1276 -0.5181
11207TIP3    H155036   1.766   2.429   3.358 -0.9185 -0.9647  0.4794
11207TIP3    H255037   1.670   2.329   3.297  1.0193 -1.6947 -1.5226
11208TIP3   OH255038   5.689   1.971   2.931 -0.2192 -0.6692  0.5181
11208TIP3    H155039   5.621   1.920   2.888  0.1994 -0.6153 -0.2076
11208TIP3    H255040   5.741   2.007   2.860  0.7800 -0.9861  1.0709
11209TIP3   OH255041   2.827   4.645  11.344  0.1782 -0.2927 -0.4630
11209TIP3    H155042   2.747   4.601  11.316 -0.0348 -1.1910  1.4168
11209TIP3    H255043   2.808   4.738  11.330 -0.5802 -0.5784 -1.5038
11210TIP3   OH255044   0.104   1.514  11.627  0.4605  0.3883  0.0794
11210TIP3    H155045   0.074   1.527  11.716  0.9831 -1.3230  0.5491
11210TIP3    H255046   0.187   1.467  11.636  1.9652  2.5665 -1.2473
11211TIP3   OH255047   0.100   3.777  12.545  0.0475  0.4424  0.3177
11211TIP3    H155048   0.090   3.682  12.548  1.1421  0.1305 -2.6474
11211TIP3    H255049   0.194   3.791  12.551 -0.0149  1.2320 -0.4000
11212TIP3   OH255050   2.162   2.055   3.079  0.5424 -0.5414  0.6660
11212TIP3    H155051   2.160   2.150   3.093  1.4236 -0.2642 -0.8275
11212TIP3    H255052   2.242   2.041   3.027  0.0835 -2.0176  0.3288
11213TIP3   OH255053   1.761   5.509   4.127  0.4940  0.1837 -0.3991
11213TIP3    H155054   1.773   5.421   4.163  0.6124  0.1430 -0.5379
11213TIP3    H255055   1.845   5.531   4.088  0.5956  0.5337  0.0124
11214TIP3   OH255056   6.758   6.402  15.549  0.5441 -0.2368 -0.4891
11214TIP3    H155057   6.733   6.312  15.525  0.1666 -1.0986  2.6807
11214TIP3    H255058   6.680   6.454  15.530  0.5253 -0.6772 -1.7071
11215TIP3   OH255059   2.943   1.509   4.254  0.2595  0.0178 -0.1133
11215TIP3    H155060   2.865   1.489   4.202 -0.2776  1.3316  0.1439
11215TIP3    H255061   2.919   1.586   4.304  1.5780  0.1601  0.3395
11216TIP3   OH255062   3.265   2.724  13.677 -0.2088 -0.3887  0.8602
11216TIP3    H155063   3.208   2.701  13.603 -1.6146  0.5101  1.6057
11216TIP3    H255064   3.239   2.664  13.746  0.5949 -0.7471  0.8578
11217TIP3   OH255065   5.097   3.480  11.111  0.1749  0.4601 -0.0578
11217TIP3    H155066   5.044   3.502  11.035  1.1607  0.5708 -0.7375
11217TIP3    H255067   5.035   3.445  11.175 -0.6592  0.2894 -0.9451
11218TIP3   OH255068   0.793   6.157   0.168  0.0883 -0.0538 -0.1962
11218TIP3    H155069   0.746   6.092   0.116  2.0361 -0.6097 -1.3546
11218TIP3    H255070   0.843   6.106   0.232 -1.5143  0.5792  1.6691
11219TIP3   OH255071   6.070   6.658   4.813 -0.0999 -0.1431  0.3231
11219TIP3    H155072   6.040   6.574   4.779  0.4133 -0.6805  1.1571
11219TIP3    H255073   6.152   6.675   4.766 -0.4901  0.1856 -0.2589
11220TIP3   OH255074   1.701   4.154   0.554 -0.3295  0.1653 -0.0055
11220TIP3    H155075   1.663   4.114   0.632 -0.7311  1.6978  0.6367
11220TIP3    H255076   1.785   4.110   0.542 -0.7465 -0.8349  0.6456
11221TIP3   OH255077   3.542   0.562   0.492  0.7688 -0.2540 -0.0884
11221TIP3    H155078   3.527   0.657   0.494  0.0576 -0.3679  0.5276
11221TIP3    H255079   3.456   0.524   0.509  1.0163 -1.0171 -0.5249
11222TIP3   OH255080   5.552   5.852  14.719 -0.0518  0.3762 -0.0336
11222TIP3    H155081   5.645   5.850  14.739  0.7001  3.2349 -2.4705
11222TIP3    H255082   5.543   5.797  14.640 -0.2631  0.7173 -0.2523
11223TIP3   OH255083   3.176   1.184   2.850  0.1727  0.0123  0.2866
11223TIP3    H155084   3.241   1.162   2.917 -0.3913  1.0943  1.2438
11223TIP3    H255085   3.228   1.208   2.773  0.8395 -1.1641  0.3440
11224TIP3   OH255086   5.986   1.154   2.110 -0.3113 -0.2257  0.6753
11224TIP3    H155087   5.998   1.230   2.166 -1.2480  1.2316 -1.0143
11224TIP3    H255088   5.921   1.181   2.046 -0.9222 -2.5801  0.2091
11225TIP3   OH255089   0.551   1.885  14.412  0.1947 -0.3290  0.6180
11225TIP3    H155090   0.584   1.908  14.326  0.1598  0.0612  0.7079
11225TIP3    H255091   0.504   1.963  14.442  0.5626 -0.3101  1.1638
11226TIP3   OH255092   3.543   5.015   1.414  0.0865 -0.7202 -0.9510
11226TIP3    H155093   3.554   4.998   1.508  0.8981 -0.7209 -1.0345
11226TIP3    H255094   3.598   5.092   1.397  0.1269 -0.8567 -1.4654
11227TIP3   OH255095   4.490   5.520   0.101  0.2554 -0.2539 -0.3236
11227TIP3    H155096   4.502   5.435   0.059  0.2301 -0.8625  0.8633
11227TIP3    H255097   4.397   5.539   0.089 -0.1058 -1.1770  0.7942
11228TIP3   OH255098   6.113   5.581  15.609  0.2212  0.9424  0.1484
11228TIP3    H155099   6.040   5.608  15.553 -0.4668 -1.0319  0.0006
11228TIP3    H255100   6.162   5.518  15.557  0.6850  0.5113  1.0758
11229TIP3   OH255101   6.645   6.582  16.540  0.1083  0.3153 -0.2996
11229TIP3    H155102   6.675   6.551  16.454  0.3995  1.0602 -0.4743
11229TIP3    H255103   6.586   6.655  16.520  0.9019  1.1017  0.1465
11230TIP3   OH255104   4.826   4.604   1.279 -0.7018  0.3043 -0.3058
11230TIP3    H155105   4.839   4.564   1.193 -1.7978 -0.3952 -0.1666
11230TIP3    H255106   4.753   4.666   1.266 -0.4586  0.6569 -0.0210
11231TIP3   OH255107   5.792   1.144   4.592  0.0722  0.2183 -0.0607
11231TIP3    H155108   5.769   1.168   4.682  0.2602 -0.7728  0.2651
11231TIP3    H255109   5.747   1.060   4.578 -0.4904  0.6808 -1.1228
11232TIP3   OH255110   1.662   1.227   6.403  0.2552 -0.1137  0.3915
11232TIP3    H155111   1.616   1.282   6.339  1.0132 -0.1847 -0.2391
11232TIP3    H255112   1.624   1.140   6.391  1.3499 -0.4458 -0.9962
11233TIP3   OH255113   1.246   1.987  14.023 -0.0498  0.0479  0.4966
11233TIP3    H155114   1.309   1.967  14.093 -0.2670 -0.0572  0.6643
11233TIP3    H255115   1.285   2.062  13.977  0.0905  0.1263  0.7371
11234TIP3   OH255116   2.191   2.824   5.373 -0.4854  0.1974 -0.1391
11234TIP3    H155117   2.190   2.733   5.344  0.5220  0.0074  0.3698
11234TIP3    H255118   2.282   2.851   5.363 -0.6382  0.9231  0.3777
11235TIP3   OH255119   6.134   5.100   1.723  0.3455  0.0916  0.3269
11235TIP3    H155120   6.048   5.141   1.732  0.4030  0.5061 -0.8832
11235TIP3    H255121   6.126   5.044   1.646  1.3663  0.7037 -0.2441
11236TIP3   OH255122   3.386   1.244   2.245 -0.2891  0.3570 -0.3507
11236TIP3    H155123   3.467   1.209   2.282  1.0695  1.7456 -1.8493
11236TIP3    H255124   3.371   1.325   2.294 -0.2184  0.6087 -0.7450
11237TIP3   OH255125   2.590   2.857  14.224  0.1856  0.1653  0.4891
11237TIP3    H155126   2.510   2.854  14.277 -0.5142 -1.6440 -0.5714
11237TIP3    H255127   2.638   2.778  14.248  1.6368  1.1817  1.0349
11238TIP3   OH255128   6.211   3.425   6.172  0.0098 -0.2374 -0.4607
11238TIP3    H155129   6.300   3.408   6.204 -0.3515  0.6063  1.0922
11238TIP3    H255130   6.195   3.356   6.108  1.2959 -1.1943  0.1975
11239TIP3   OH255131   0.351   2.772   4.550  0.4192  1.0278  0.5501
11239TIP3    H155132   0.365   2.700   4.611 -0.7687  0.3848  0.0892
11239TIP3    H255133   0.435   2.818   4.548  0.3434  1.4468  3.1311
11240TIP3   OH255134   5.153   5.030  11.831  0.0633 -0.5141  0.2330
11240TIP3    H155135   5.099   5.070  11.763  0.0069 -1.3018 -0.2066
11240TIP3    H255136   5.110   5.054  11.913 -0.4454 -0.3822 -0.0652
11241TIP3   OH255137   2.019   3.142   1.024  0.0831  0.3933 -0.4100
11241TIP3    H155138   2.044   3.122   1.114 -0.4359  2.6423  0.2834
11241TIP3    H255139   2.098   3.178   0.984 -0.3341  1.7253 -0.0756
11242TIP3   OH255140   2.729   6.231  11.918  0.0466 -0.2364  0.6525
11242TIP3    H155141   2.656   6.239  11.857  0.4923 -0.6358  0.0479
11242TIP3    H255142   2.696   6.175  11.989 -0.7648  0.9762  1.2588
11243TIP3   OH255143   3.018   3.810   0.690 -0.4959  0.1485  0.0501
11243TIP3    H155144   2.963   3.865   0.746  0.9458 -0.0572  1.7501
11243TIP3    H255145   3.085   3.775   0.748  0.4667 -0.9444 -1.6130
11244TIP3   OH255146   5.347   5.871   4.407  0.1790 -0.8153 -0.0983
11244TIP3    H155147   5.440   5.872   4.384  0.3182 -2.0600  0.3688
11244TIP3    H255148   5.328   5.962   4.431  1.1836 -0.4713 -0.5456
11245TIP3   OH255149   6.327   1.479  13.316 -0.3368  0.3958  0.1204
11245TIP3    H155150   6.251   1.460  13.261  0.0897  1.9542 -1.0727
11245TIP3    H255151   6.305   1.559  13.362  0.2909  0.4387  0.3540
11246TIP3   OH255152   1.887   4.988   6.095 -0.2682 -0.3866  0.4242
11246TIP3    H155153   1.890   4.912   6.038  0.4066  0.8735 -1.3006
11246TIP3    H255154   1.927   4.959   6.177 -0.7649 -2.0847  0.0942
11247TIP3   OH255155   5.287   5.008   3.413 -0.1932  0.2059 -0.1750
11247TIP3    H155156   5.341   4.986   3.337  0.0801  0.5273 -0.0756
11247TIP3    H255157   5.253   5.095   3.394 -1.4744 -0.3855 -0.6814
11248TIP3   OH255158   4.040   2.222   0.828 -0.5212  0.4241 -0.0667
11248TIP3    H155159   4.125   2.212   0.872 -1.4902  1.3456  2.1831
11248TIP3    H255160   4.006   2.305   0.862 -2.7470 -0.4026 -0.1558
11249TIP3   OH255161   5.884   0.673   4.198  0.3244 -0.6232 -0.3269
11249TIP3    H155162   5.866   0.765   4.214 -0.7607 -0.9690  0.5792
11249TIP3    H255163   5.969   0.672   4.154  0.0291  0.8361 -0.9649
11250TIP3   OH255164   6.134   6.417  12.019  0.1244 -0.4978  0.0415
11250TIP3    H155165   6.053   6.369  11.999 -0.4047 -0.7542  2.5079
11250TIP3    H255166   6.119   6.504  11.983 -1.2339 -0.5747  0.3484
11251TIP3   OH255167   4.006   0.830   5.765  0.2919  0.0191 -0.3589
11251TIP3    H155168   3.980   0.831   5.858 -1.4714 -1.8354 -0.7578
11251TIP3    H255169   3.974   0.913   5.731  0.5416  0.5198  0.5833
11252TIP3   OH255170   0.530   1.312   1.339 -0.0012  0.1456 -0.0061
11252TIP3    H155171   0.580   1.393   1.330  1.9844 -0.8424  1.4782
11252TIP3    H255172   0.467   1.330   1.409  1.1271  0.1026  1.0377
11253TIP3   OH255173   4.555   3.620  13.422 -0.1208 -0.1032 -0.3549
11253TIP3    H155174   4.552   3.688  13.489  0.9982 -0.8738  0.5243
11253TIP3    H255175   4.576   3.540  13.470  0.0525 -0.8008 -1.5504
11254TIP3   OH255176   2.258   1.021   3.943 -0.0244 -0.1077  0.1865
11254TIP3    H155177   2.285   0.981   3.861 -1.5109 -1.1272  0.1587
11254TIP3    H255178   2.189   0.964   3.976  0.9501 -0.0868  2.4722
11255TIP3   OH255179   5.650   2.139  13.864  0.2507 -0.0748  0.2019
11255TIP3    H155180   5.612   2.220  13.897  0.6085 -0.6467  2.1877
11255TIP3    H255181   5.575   2.091  13.827 -0.3933  0.1846  1.1303
11256TIP3   OH255182   2.704   6.170   1.971  0.0539  0.3806 -0.0232
11256TIP3    H155183   2.655   6.248   1.945 -0.2469  0.1097 -0.2650
11256TIP3    H255184   2.679   6.156   2.062  0.7982  1.0909  0.3088
11257TIP3   OH255185   3.829   4.606  11.447 -0.3104 -0.2380 -0.1363
11257TIP3    H155186   3.906   4.657  11.470 -1.1699  1.7732 -1.4316
11257TIP3    H255187   3.841   4.586  11.354  0.0205 -2.5358  0.3353
11258TIP3   OH255188   4.192   3.621  11.307  0.1579 -0.1332  0.1259
11258TIP3    H155189   4.132   3.655  11.373  0.9372  1.6915 -0.0573
11258TIP3    H255190   4.139   3.618  11.226 -0.1290 -0.0922  0.3097
11259TIP3   OH255191   4.727   1.507  15.395 -0.0384  0.2278 -0.0490
11259TIP3    H155192   4.730   1.461  15.311 -2.2166  0.5062 -0.3463
11259TIP3    H255193   4.740   1.438  15.460  0.2065 -0.2477 -0.5882
11260TIP3   OH255194   3.454   1.648   5.716 -0.3736  0.0152  0.4898
11260TIP3    H155195   3.373   1.660   5.766 -2.2324  0.8825 -2.4906
11260TIP3    H255196   3.430   1.669   5.626  3.3230  0.7573 -0.4787
11261TIP3   OH255197   0.923   6.014   2.032 -0.3629 -0.3795  0.4530
11261TIP3    H155198   0.829   6.005   2.041 -0.8705  1.1872 -2.1529
11261TIP3    H255199   0.939   6.109   2.035  0.9993 -0.5582 -0.0659
11262TIP3   OH255200   0.905   1.329   3.067 -0.1801  0.2134  0.4430
11262TIP3    H155201   0.813   1.340   3.041  0.0153  0.1362 -0.2947
11262TIP3    H255202   0.935   1.418   3.087 -0.6699  0.1416  1.6215
11263TIP3   OH255203   4.391   6.626  15.233  0.0440  0.8533 -0.3401
11263TIP3    H155204   4.383   6.553  15.172  0.4953  0.9624 -0.5344
11263TIP3    H255205   4.418   6.700  15.179 -3.5160  2.0627 -0.7266
11264TIP3   OH255206   3.314   1.357   1.023 -0.1742 -0.3704  0.3959
11264TIP3    H155207   3.341   1.344   0.932  1.5151  0.4911  0.7203
11264TIP3    H255208   3.290   1.449   1.028 -0.1091 -0.3742  0.8502
11265TIP3   OH255209   5.485   0.976   0.257 -0.1495 -0.2827 -0.5630
11265TIP3    H155210   5.396   0.973   0.223 -1.0679 -1.4548  1.7281
11265TIP3    H255211   5.475   0.987   0.351  2.2259  1.9762 -0.4453
11266TIP3   OH255212   4.565   5.781   2.604  0.9851  0.1402 -0.3662
11266TIP3    H155213   4.527   5.717   2.544 -0.4163  0.2954  0.3227
11266TIP3    H255214   4.627   5.830   2.550 -0.3541  0.3869 -1.7479
11267TIP3   OH255215   4.586   0.536   1.772 -0.1051  0.5170 -0.1121
11267TIP3    H155216   4.625   0.601   1.829  1.4989 -0.6860  0.2380
11267TIP3    H255217   4.504   0.512   1.816 -0.5736  2.0418 -0.1076
11268TIP3   OH255218   2.309   5.267   3.207  0.3731  0.3363 -0.0278
11268TIP3    H155219   2.225   5.229   3.234  0.2140  0.3086 -0.5574
11268TIP3    H255220   2.308   5.356   3.244 -1.1918  1.4350 -2.4355
11269TIP3   OH255221   5.536   2.428   3.765  0.1864  0.5712  0.2389
11269TIP3    H155222   5.492   2.498   3.716  1.6981  1.7518  0.5040
11269TIP3    H255223   5.546   2.463   3.853 -2.5314 -1.5488  1.5300
11270TIP3   OH255224   1.836   3.057  10.417  0.5167 -0.3674 -0.7223
11270TIP3    H155225   1.850   2.978  10.469  0.0751  0.9599  1.5578
11270TIP3    H255226   1.741   3.070  10.419  0.7469  1.3445  0.7723
11271TIP3   OH255227   5.486   5.099  17.012  0.3440  0.2127  0.1089
11271TIP3    H155228   5.500   5.083  17.105  0.0046 -2.1440 -0.1703
11271TIP3    H255229   5.392   5.082  16.999  0.7253 -1.2855 -0.9232
11272TIP3   OH255230   4.987   2.974  14.111  0.1767 -0.4766  0.1463
11272TIP3    H155231   4.969   2.988  14.204 -2.5625 -1.7100 -0.0787
11272TIP3    H255232   4.991   2.879  14.102 -0.0931 -0.3863 -1.0490
11273TIP3   OH255233   1.972   6.378  17.015  0.5305 -0.2651  0.4366
11273TIP3    H155234   1.895   6.323  17.031 -0.3616  0.8312 -0.0025
11273TIP3    H255235   1.978   6.435  17.092 -1.4821  2.3546 -1.1939
11274TIP3   OH255236   0.435   4.210  16.369 -0.1824 -0.7176  0.3579
11274TIP3    H155237   0.420   4.304  16.370 -1.2187 -0.8728  0.2936
11274TIP3    H255238   0.473   4.192  16.283 -0.7871 -0.4722  0.0378
11275TIP3   OH255239   5.944   1.332   0.986  0.5199  0.2184  0.1278
11275TIP3    H155240   5.865   1.324   1.038 -0.0942 -0.2006 -0.8401
11275TIP3    H255241   6.013   1.355   1.049 -0.4169  0.8780  0.9329
11276TIP3   OH255242   1.130   3.510   3.456 -0.7005 -0.5575 -0.7344
11276TIP3    H155243   1.156   3.589   3.409 -3.1492  1.0743  0.4409
11276TIP3    H255244   1.087   3.455   3.391 -0.7802  0.0103 -1.1634
11277TIP3   OH255245   6.244   6.373  16.516 -0.3343 -0.3057 -0.1227
11277TIP3    H155246   6.186   6.302  16.490 -0.8312 -0.8864  2.3005
11277TIP3    H255247   6.333   6.339  16.500 -0.5144 -2.0066  2.0511
11278TIP3   OH255248   0.620   4.441   0.425 -0.1767 -0.3076 -0.0707
11278TIP3    H155249   0.652   4.474   0.509  0.0691 -2.6251  0.8247
11278TIP3    H255250   0.699   4.431   0.372 -0.3530  1.3628 -0.7286
11279TIP3   OH255251   0.383   4.822   2.093  0.2268  0.0092  0.1352
11279TIP3    H155252   0.301   4.867   2.115  0.2230  0.5676 -0.9442
11279TIP3    H255253   0.417   4.792   2.177 -1.1086 -0.2814  0.6052
11280TIP3   OH255254   1.951   6.158   4.431  0.0582 -0.3344 -0.3106
11280TIP3    H155255   1.938   6.064   4.444  1.3726 -0.6742 -1.2524
11280TIP3    H255256   2.025   6.181   4.488 -0.2748  0.1400 -0.0635
11281TIP3   OH255257   2.505   6.703  15.829 -0.3995 -0.3949  0.1553
11281TIP3    H155258   2.423   6.655  15.815  0.5133 -1.1664 -3.6752
11281TIP3    H255259   2.573   6.636  15.831  0.3882  0.3900  0.5415
11282TIP3   OH255260   3.896   5.147   5.720  0.3935 -0.3450  0.7347
11282TIP3    H155261   3.816   5.147   5.667  1.9327 -0.8926 -1.7202
11282TIP3    H255262   3.866   5.118   5.807 -2.4242  1.6498  0.5788
11283TIP3   OH255263   4.157   2.996   2.632  0.0260 -0.0525 -0.2168
11283TIP3    H155264   4.092   2.951   2.576  2.0690 -1.8360 -1.3159
11283TIP3    H255265   4.124   3.085   2.639 -1.3233 -0.2329 -2.7813
11284TIP3   OH255266   3.516   2.167   3.938  0.4324  0.3912 -0.1147
11284TIP3    H155267   3.459   2.116   3.880  1.0917  1.2100 -1.5199
11284TIP3    H255268   3.462   2.242   3.964 -0.3737 -0.7130  1.5738
11285TIP3   OH255269   4.006   5.133  10.907  0.3412  0.0263 -0.5959
11285TIP3    H155270   4.094   5.096  10.903  0.6197  0.7428 -1.1688
11285TIP3    H255271   3.948   5.056  10.912  0.9607 -0.4565 -0.7878
11286TIP3   OH255272   4.809   2.496   3.477 -0.4384 -0.2085  0.5921
11286TIP3    H155273   4.771   2.506   3.564 -0.1163 -2.8879  1.1409
11286TIP3    H255274   4.838   2.405   3.474 -1.3659 -0.5210 -2.7148
11287TIP3   OH255275   3.303   1.866  13.737 -0.2122 -0.2408  0.2975
11287TIP3    H155276   3.384   1.855  13.687 -0.7609  0.4028 -0.7816
11287TIP3    H255277   3.302   1.959  13.762 -0.6416 -0.2281  0.2442
11288TIP3   OH255278   2.032   1.446   3.385 -0.0505  0.3045  0.9041
11288TIP3    H155279   2.035   1.530   3.339 -1.7718 -0.2347 -0.2833
11288TIP3    H255280   2.066   1.382   3.322  0.7311 -0.0010  1.6056
11289TIP3   OH255281   3.357   5.346  16.686  0.1032 -0.2696  0.4335
11289TIP3    H155282   3.432   5.402  16.667  0.0541 -0.4117 -0.2103
11289TIP3    H255283   3.318   5.329  16.600 -0.3319 -0.6593  0.7056
11290TIP3   OH255284   5.751   6.306   4.162 -0.4224  0.2443 -0.2854
11290TIP3    H155285   5.756   6.263   4.077  0.2861 -1.9948  0.8171
11290TIP3    H255286   5.841   6.335   4.179 -0.5980  0.8415 -0.3551
11291TIP3   OH255287   1.142   5.202   3.029 -0.4277  0.7802 -0.0987
11291TIP3    H155288   1.218   5.255   3.053 -0.0545 -0.4637  1.7752
11291TIP3    H255289   1.178   5.114   3.016 -1.5227  0.1553  0.8798
11292TIP3   OH255290   5.613   0.802  11.137  0.7195 -0.1732 -0.2030
11292TIP3    H155291   5.568   0.721  11.160 -1.2383  1.0097  0.4137
11292TIP3    H255292   5.686   0.807  11.198 -0.3839 -0.4559  1.1986
11293TIP3   OH255293   6.477   5.633  11.912  0.2713 -0.0182 -0.6013
11293TIP3    H155294   6.516   5.720  11.919  0.2455 -0.0374 -0.1851
11293TIP3    H255295   6.386   5.646  11.941  0.4697 -0.3218  0.1892
11294TIP3   OH255296   3.077   1.819  11.159  0.4414 -0.1222 -0.6225
11294TIP3    H155297   3.117   1.747  11.209 -1.1814 -0.5766  0.0934
11294TIP3    H255298   2.994   1.782  11.127  0.4962  0.8268 -1.9305
11295TIP3   OH255299   6.467   5.619  17.225 -0.0727 -0.1544  0.6777
11295TIP3    H155300   6.444   5.618  17.132 -1.0197 -0.6892  0.8926
11295TIP3    H255301   6.382   5.613  17.270  0.4238 -0.7871  1.5588
11296TIP3   OH255302   6.534   3.312  17.162 -0.7255  0.3773 -0.1641
11296TIP3    H155303   6.609   3.357  17.201  0.5708  1.5019 -3.5878
11296TIP3    H255304   6.481   3.381  17.124 -0.8178 -0.6684 -2.0813
11297TIP3   OH255305   2.641   6.634   0.524 -0.3598 -0.2144 -0.4482
11297TIP3    H155306   2.657   6.694   0.451  0.1689 -1.4378 -1.3940
11297TIP3    H255307   2.719   6.578   0.526 -1.2087 -1.4205 -0.1911
11298TIP3   OH255308   1.863   4.518   2.697 -0.3097 -0.2540 -0.1726
11298TIP3    H155309   1.852   4.556   2.610 -3.0110  0.3026  0.3526
11298TIP3    H255310   1.891   4.592   2.752 -1.5626  0.0820  0.0256
11299TIP3   OH255311   1.872   6.336  12.894  0.2214 -0.0066  0.3318
11299TIP3    H155312   1.962   6.368  12.896  0.4610 -0.6740  0.9537
11299TIP3    H255313   1.881   6.242  12.879 -0.3078 -0.2494  1.4107
11300TIP3   OH255314   0.979   0.182   2.150 -0.3711 -0.1069  0.4215
11300TIP3    H155315   1.014   0.093   2.155 -0.2308 -0.2006 -1.3509
11300TIP3    H255316   1.054   0.238   2.164  0.2734 -0.3140 -1.7365
11301TIP3   OH255317   4.275   2.398   2.075  0.0723  0.3174 -0.4723
11301TIP3    H155318   4.308   2.444   1.997 -0.0512 -1.2772 -1.5061
11301TIP3    H255319   4.181   2.415   2.074  0.2062  1.1081 -0.1061
11302TIP3   OH255320   2.418   4.233   4.965  0.4179  0.1438  0.3774
11302TIP3    H155321   2.490   4.177   4.937 -0.5619 -1.4344  0.8828
11302TIP3    H255322   2.406   4.295   4.894  1.0803 -0.7447 -0.5358
11303TIP3   OH255323   0.322   3.038  13.827 -0.4461 -0.1943 -0.2505
11303TIP3    H155324   0.338   3.115  13.772 -1.4334 -0.6063 -1.1537
11303TIP3    H255325   0.408   2.996  13.835 -0.0542  0.5597 -0.4220
11304TIP3   OH255326   5.059   6.534   4.608 -0.0485 -0.3940  0.2144
11304TIP3    H155327   5.060   6.541   4.703 -0.5342  0.5988  0.1513
11304TIP3    H255328   5.038   6.442   4.591  0.5862 -0.7064  1.0581
11305TIP3   OH255329   1.039   0.929   0.299  0.2232 -0.2416 -0.2421
11305TIP3    H155330   0.966   0.971   0.252  0.4429  0.3563 -0.0529
11305TIP3    H255331   0.997   0.858   0.348 -0.5930  1.3637  1.5132
11306TIP3   OH255332   1.698   6.712   0.343  0.6850 -0.1073 -0.9567
11306TIP3    H155333   1.688   6.630   0.391 -1.4212  0.4040 -0.3966
11306TIP3    H255334   1.772   6.756   0.385  0.2048 -0.6119  0.4712
11307TIP3   OH255335   0.849   2.589  14.851 -0.0368  0.1199 -0.0897
11307TIP3    H155336   0.914   2.553  14.911 -0.8581  0.7204  1.2112
11307TIP3    H255337   0.900   2.639  14.787  0.8233 -0.1346  0.3860
11308TIP3   OH255338   0.974   3.649  10.559 -0.1634  0.7099 -0.5902
11308TIP3    H155339   1.012   3.724  10.604 -1.9921  0.4826  1.5207
11308TIP3    H255340   1.049   3.591  10.543  0.7333  1.2355  1.3759
11309TIP3   OH255341   5.246   5.664  16.884  0.6400 -0.0006  0.1161
11309TIP3    H155342   5.250   5.744  16.832 -0.4398  0.1647  0.2706
11309TIP3    H255343   5.217   5.596  16.823  0.6663 -0.0813  0.1937
11310TIP3   OH255344   6.006   1.731  17.088  0.2334 -0.1141 -0.3464
11310TIP3    H155345   6.022   1.738  16.994  3.0996  1.1812  0.1135
11310TIP3    H255346   6.083   1.685  17.122 -0.3740  0.1032  1.4320
11311TIP3   OH255347   5.261   4.513  16.778 -0.1796 -0.1384  0.2063
11311TIP3    H155348   5.269   4.607  16.795 -0.8210  0.0263 -0.3413
11311TIP3    H255349   5.211   4.508  16.696  2.2098 -0.8871 -1.3091
11312TIP3   OH255350   6.099   4.375  11.497 -0.6395 -0.4104  0.1300
11312TIP3    H155351   6.009   4.406  11.499 -0.1090  1.2915 -0.2559
11312TIP3    H255352   6.149   4.450  11.463  0.8895 -1.3622  0.1900
11313TIP3   OH255353   2.086   2.040  13.359 -0.1695  0.7829 -0.5016
11313TIP3    H155354   2.097   2.126  13.318 -0.4279  1.1638  0.2251
11313TIP3    H255355   2.030   1.992  13.298  1.2949  0.5497 -1.7333
11314TIP3   OH255356   2.594   0.035   2.440 -0.0106  0.0551  0.4547
11314TIP3    H155357   2.606   0.115   2.388 -0.0084  0.4516  1.0646
11314TIP3    H255358   2.515  -0.005   2.402 -1.1264  1.3063  1.3232
11315TIP3   OH255359   1.969   0.109   5.451 -0.2117  0.3568  0.6925
11315TIP3    H155360   1.887   0.070   5.421 -0.1345  0.1350  0.7715
11315TIP3    H255361   1.971   0.091   5.545  0.3724 -0.4537  0.5363
11316TIP3   OH255362   2.457   0.148   4.670 -0.2268  0.0814 -0.1522
11316TIP3    H155363   2.420   0.236   4.679 -0.3891 -0.1269  1.5524
11316TIP3    H255364   2.407   0.095   4.732  0.0673 -1.1471 -0.9496
11317TIP3   OH255365   2.673   4.730  16.994  0.1927  0.3289  0.5356
11317TIP3    H155366   2.697   4.680  17.073 -1.0413 -2.1811 -0.5526
11317TIP3    H255367   2.593   4.776  17.019 -0.4827 -0.8596  0.6460
11318TIP3   OH255368   5.667   2.020   5.517 -0.1508 -0.1194 -0.8495
11318TIP3    H155369   5.598   2.065   5.467 -0.9843 -0.5735 -0.1344
11318TIP3    H255370   5.660   2.055   5.605  0.2556 -0.4719 -0.6730
11319TIP3   OH255371   6.555   1.171   2.212  0.3816  0.9453  0.2445
11319TIP3    H155372   6.530   1.250   2.162  0.2959 -0.3984 -1.9655
11319TIP3    H255373   6.637   1.143   2.173  0.0665 -0.4395  0.5274
11320TIP3   OH255374   6.218   6.216  14.731  0.2662  0.1520 -0.0505
11320TIP3    H155375   6.172   6.300  14.743  2.1749  1.0869  1.2490
11320TIP3    H255376   6.180   6.158  14.796 -1.4228 -0.2208 -1.2883
11321TIP3   OH255377   4.099   1.772  14.182 -0.5075  0.1085  0.2469
11321TIP3    H155378   4.011   1.746  14.154  0.4214 -1.5914 -1.2387
11321TIP3    H255379   4.115   1.721  14.262 -1.1757  1.0875  1.0302
11322TIP3   OH255380   5.533   3.434  14.581 -0.0834  0.0969 -0.2061
11322TIP3    H155381   5.440   3.441  14.603  0.2957 -1.0987  2.0884
11322TIP3    H255382   5.575   3.500  14.638  0.5465  0.1217 -0.6941
11323TIP3   OH255383   5.240   1.762   2.356  0.1224 -0.3219  0.0714
11323TIP3    H155384   5.290   1.688   2.390 -0.1303 -0.0256  1.1210
11323TIP3    H255385   5.193   1.726   2.281 -0.1553 -1.2968  0.6810
11324TIP3   OH255386   1.217   3.557  12.377  0.0704 -0.0408 -0.2923
11324TIP3    H155387   1.198   3.622  12.444 -0.1134  1.1807 -1.4760
11324TIP3    H255388   1.133   3.513  12.362  0.2328 -0.6988  0.6280
11325TIP3   OH255389   2.285   0.063  14.323 -0.0764 -0.1571  0.3231
11325TIP3    H155390   2.235   0.052  14.243  0.5820  0.7138 -0.2316
11325TIP3    H255391   2.249   0.142  14.363 -1.9514 -1.8191  2.1009
11326TIP3   OH255392   1.625   3.834   3.521  0.3974 -0.0660  0.7497
11326TIP3    H155393   1.607   3.799   3.609 -1.1527 -0.1475  0.4294
11326TIP3    H255394   1.545   3.881   3.498  1.3045  1.1037 -0.0788
11327TIP3   OH255395   5.891   0.935  15.309 -0.8938  0.0305  0.7579
11327TIP3    H155396   5.827   1.004  15.291 -1.1673 -0.2140  0.7972
11327TIP3    H255397   5.845   0.854  15.290 -0.4075 -0.1225  0.2117
11328TIP3   OH255398   1.077   2.652   2.592  0.6262 -0.6150  0.0143
11328TIP3    H155399   1.082   2.655   2.496 -0.6122  0.9111 -0.0410
11328TIP3    H255400   1.123   2.572   2.615 -0.3644 -1.8527 -1.9623
11329TIP3   OH255401   4.437   1.127  14.895  0.0488 -0.0401  0.3703
11329TIP3    H155402   4.525   1.092  14.907 -0.1692 -1.0374 -0.7206
11329TIP3    H255403   4.381   1.070  14.948 -0.1212 -0.4089 -0.1957
11330TIP3   OH255404   1.369   6.400   1.267  0.3048 -0.0361  0.0395
11330TIP3    H155405   1.365   6.304   1.261  0.2670 -0.1064  1.0840
11330TIP3    H255406   1.331   6.430   1.185  0.0037 -0.9170 -0.1569
11331TIP3   OH255407   4.313   4.710   0.886 -0.1777  0.2201 -0.5103
11331TIP3    H155408   4.339   4.631   0.838 -1.4822 -0.4097 -0.2188
11331TIP3    H255409   4.395   4.758   0.899  1.3972 -2.9276  2.6857
11332TIP3   OH255410   6.609   6.127  14.131  0.0780  0.1815 -0.2448
11332TIP3    H155411   6.536   6.149  14.073  0.0114 -1.6911 -0.9212
11332TIP3    H255412   6.632   6.037  14.109  3.3348  1.0354 -0.8477
11333TIP3   OH255413   2.583   4.096   1.991  0.1175  0.4624 -0.0591
11333TIP3    H155414   2.508   4.054   1.949  0.2850  0.2781 -0.1755
11333TIP3    H255415   2.585   4.184   1.953 -0.8008  0.9113  0.8813
11334TIP3   OH255416   2.846   4.643  14.767  0.4174  0.1343  0.1353
11334TIP3    H155417   2.767   4.596  14.741 -0.5788  0.5256  2.2632
11334TIP3    H255418   2.898   4.580  14.816 -0.6343  0.9700  2.4556
11335TIP3   OH255419   2.496   4.203  12.150 -0.2847  0.0083  0.0861
11335TIP3    H155420   2.533   4.133  12.203  1.4329 -0.0182 -1.0852
11335TIP3    H255421   2.567   4.230  12.092 -1.8547  0.5292 -1.6963
11336TIP3   OH255422   4.836   0.761   4.751  0.4867  0.0576 -0.0297
11336TIP3    H155423   4.811   0.674   4.781 -0.3163  0.3702  0.2282
11336TIP3    H255424   4.877   0.802   4.828 -1.2804  0.7429  0.5979
11337TIP3   OH255425   0.453   4.070  12.026 -0.3653  0.0938 -0.1551
11337TIP3    H155426   0.502   3.996  11.989  1.3332  1.3436 -0.5573
11337TIP3    H255427   0.398   4.100  11.953  1.1001  0.9813 -0.9438
11338TIP3   OH255428   4.075   1.679  15.511  0.2576 -0.1996  0.6643
11338TIP3    H155429   4.110   1.721  15.433 -1.6496 -0.5767 -0.4611
11338TIP3    H255430   4.112   1.591  15.510  0.6841 -0.0181  0.4997
11339TIP3   OH255431   5.343   3.961   0.373  0.3436  0.3688 -0.0641
11339TIP3    H155432   5.310   3.872   0.383  0.0287  0.4938  0.0229
11339TIP3    H255433   5.437   3.950   0.355 -0.2617 -0.1473 -3.5829
11340TIP3   OH255434   1.497   3.005   6.248 -0.4969 -0.3071  0.5125
11340TIP3    H155435   1.455   3.090   6.245  0.5418  0.2358  0.6374
11340TIP3    H255436   1.434   2.948   6.292 -1.1646  0.4198  0.5124
11341TIP3   OH255437   4.332   1.377  11.836  0.2757  0.4571  0.1890
11341TIP3    H155438   4.367   1.349  11.751  0.3965  2.5666 -0.5174
11341TIP3    H255439   4.392   1.341  11.901  0.9535 -0.0634 -0.7103
11342TIP3   OH255440   2.458   4.533   0.770  0.0727 -0.2029  0.1698
11342TIP3    H155441   2.532   4.580   0.807 -0.5280  1.1090 -0.2356
11342TIP3    H255442   2.381   4.585   0.794 -0.3752  0.6760 -2.7256
11343TIP3   OH255443   3.319   2.209  16.229  0.3209  0.0383 -0.2493
11343TIP3    H155444   3.414   2.203  16.224  0.5465  1.2457  1.5945
11343TIP3    H255445   3.302   2.246  16.316 -1.7811  0.9594 -0.9975
11344TIP3   OH255446   0.193   3.227  12.664 -0.8265  0.3124 -0.0467
11344TIP3    H155447   0.211   3.136  12.642 -0.0859  0.4219  0.0973
11344TIP3    H255448   0.109   3.224  12.711 -1.3878 -0.1516 -1.0489
11345TIP3   OH255449   5.556   6.775   4.306  0.0250  0.3635  0.1887
11345TIP3    H155450   5.508   6.786   4.224 -0.3394  0.6110  0.4291
11345TIP3    H255451   5.608   6.855   4.315 -2.2921  1.8159  1.7189
11346TIP3   OH255452   6.564   1.350   6.161  0.0606 -0.5703 -0.5344
11346TIP3    H155453   6.625   1.319   6.228 -0.1510 -2.0663 -0.9930
11346TIP3    H255454   6.498   1.400   6.209  0.2806 -1.0576  0.2890
11347TIP3   OH255455   5.501   5.424   1.238 -0.3692 -0.4366 -0.3729
11347TIP3    H155456   5.434   5.368   1.199 -1.7208  0.6112  0.3676
11347TIP3    H255457   5.569   5.431   1.170  0.4730 -3.9010 -0.0642
11348TIP3   OH255458   6.417   6.300   3.592 -0.5562  0.4864 -0.1522
11348TIP3    H155459   6.400   6.210   3.620  0.8863  0.3168  0.2516
11348TIP3    H255460   6.401   6.353   3.670  1.2030  0.2637  0.3992
11349TIP3   OH255461   2.838   1.679  13.678 -0.1545 -0.1437  0.2347
11349TIP3    H155462   2.924   1.638  13.678 -1.0153 -2.1791 -1.5472
11349TIP3    H255463   2.799   1.652  13.761  0.9492  0.9544  1.1435
11350TIP3   OH255464   4.189   2.750  15.137  0.3539 -0.6403  0.0761
11350TIP3    H155465   4.160   2.688  15.203  2.1764 -1.4744  0.1683
11350TIP3    H255466   4.258   2.703  15.089 -0.5304  0.1305 -2.0722
11351TIP3   OH255467   5.697   5.729  14.265 -0.5148  0.2664 -0.1658
11351TIP3    H155468   5.617   5.700  14.221  0.0561  1.2520 -1.9247
11351TIP3    H255469   5.730   5.650  14.308 -1.9297 -0.3681 -0.1756
11352TIP3   OH255470   0.786   5.042  12.702 -0.0645  0.4623 -0.2078
11352TIP3    H155471   0.772   5.028  12.796  0.9308 -1.6170 -0.3064
11352TIP3    H255472   0.874   5.007  12.686 -0.4717  0.1783 -2.0277
11353TIP3   OH255473   0.450   0.803   1.542  0.2056  0.2527 -0.1707
11353TIP3    H155474   0.360   0.814   1.573  0.0812 -0.3965 -0.2757
11353TIP3    H255475   0.482   0.892   1.528 -0.2954  0.5002  0.2219
11354TIP3   OH255476   1.035   2.465  12.197 -0.1052 -0.8917  0.3608
11354TIP3    H155477   1.037   2.400  12.126 -1.0030 -0.9630  0.3853
11354TIP3    H255478   1.087   2.425  12.267 -0.3252 -1.4196  0.2342
11355TIP3   OH255479   0.069   0.164   1.228 -0.1556 -0.7248 -0.4553
11355TIP3    H155480   0.029   0.153   1.314 -1.0105 -0.1418 -0.7586
11355TIP3    H255481  -0.005   0.172   1.168  0.3911  1.0460 -0.9491
11356TIP3   OH255482   1.313   0.481  11.409  0.0388 -0.9244  0.0431
11356TIP3    H155483   1.264   0.560  11.386  2.1479  0.5910  0.4568
11356TIP3    H255484   1.369   0.464  11.333  2.7783  0.6671  1.5268
11357TIP3   OH255485   1.199   5.556   2.301 -1.3564  0.2491 -0.3849
11357TIP3    H155486   1.132   5.520   2.358  0.9553 -0.5968  2.0271
11357TIP3    H255487   1.215   5.486   2.237  0.4549 -1.7094  1.9823
11358TIP3   OH255488   3.452   0.917   5.354 -0.1077  0.1217 -0.1712
11358TIP3    H155489   3.469   0.886   5.265  0.8575  1.5078 -0.5111
11358TIP3    H255490   3.422   0.840   5.401 -0.4997 -0.6748 -1.6641
11359TIP3   OH255491   4.747   3.257  11.539 -0.1940  0.1386  0.6465
11359TIP3    H155492   4.687   3.184  11.521 -0.5900  0.4878  0.5274
11359TIP3    H255493   4.833   3.217  11.544 -0.3289 -0.2528 -0.0468
11360TIP3   OH255494   1.833   2.690   1.249 -0.2888  0.1310  0.1695
11360TIP3    H155495   1.742   2.709   1.270 -0.4533  0.0142 -0.4387
11360TIP3    H255496   1.852   2.744   1.172  0.2629  0.4289  0.5055
11361TIP3   OH255497   1.549   0.033   0.696 -0.6073 -0.2361  0.0531
11361TIP3    H155498   1.644   0.038   0.707 -0.7382 -1.2916  1.9725
11361TIP3    H255499   1.533   0.078   0.613  1.4725  0.6520  0.0646
11362TIP3   OH255500   2.186   5.952   4.093 -0.7645 -0.6827 -0.3262
11362TIP3    H155501   2.187   5.866   4.050  0.3651 -0.3109 -1.0704
11362TIP3    H255502   2.095   5.964   4.120 -1.2133 -1.5240 -1.4098
11363TIP3   OH255503   6.237   6.024  16.730  0.2340  0.7820 -0.3761
11363TIP3    H155504   6.237   6.041  16.636 -1.5219  1.1314 -0.3341
11363TIP3    H255505   6.303   6.084  16.765  1.1020  0.4648 -1.3793
11364TIP3   OH255506   6.551   2.917  13.414 -0.3283 -0.1864 -0.2068
11364TIP3    H155507   6.600   2.880  13.487  0.7715 -0.2297 -0.9565
11364TIP3    H255508   6.460   2.889  13.430 -0.2806  0.5564  1.6154
11365TIP3   OH255509   0.502   1.211  11.341  0.6515  0.1222 -0.2099
11365TIP3    H155510   0.535   1.133  11.385  0.7039  0.8598  1.1077
11365TIP3    H255511   0.521   1.282  11.402 -0.1796  1.0451 -0.9989
11366TIP3   OH255512   0.927   0.637  13.534 -0.1172 -0.6418  0.2877
11366TIP3    H155513   0.840   0.609  13.505  0.2250 -2.7325  1.0992
11366TIP3    H255514   0.944   0.585  13.612  3.2039 -2.7564 -1.6149
11367TIP3   OH255515   0.147   1.476   1.961 -0.2168 -0.3108  0.4959
11367TIP3    H155516   0.188   1.562   1.955  1.0441 -0.9024  0.1558
11367TIP3    H255517   0.056   1.493   1.984 -0.7108  1.2777 -2.1667
11368TIP3   OH255518   2.413   5.673  15.248  0.2000 -0.0988  0.7274
11368TIP3    H155519   2.504   5.674  15.279  0.8513  1.6059 -1.0621
11368TIP3    H255520   2.406   5.593  15.197  0.7278 -0.1946  0.8008
11369TIP3   OH255521   0.858   6.398   3.220 -0.6672  0.6499 -0.5477
11369TIP3    H155522   0.808   6.469   3.262 -0.5659  1.9871 -2.5070
11369TIP3    H255523   0.941   6.396   3.266 -0.7141  1.7767 -0.3849
11370TIP3   OH255524   3.516   4.256  15.286  0.7630  0.2367 -0.3758
11370TIP3    H155525   3.553   4.247  15.374  0.2005  1.9048  0.0522
11370TIP3    H255526   3.463   4.177  15.274  1.1292 -0.1783  0.6150
11371TIP3   OH255527   0.449   1.182   3.569 -0.2410  0.2967  0.3842
11371TIP3    H155528   0.435   1.133   3.650  1.2333  1.1744  1.2051
11371TIP3    H255529   0.543   1.179   3.555  0.0092  3.2798  0.7736
11372TIP3   OH255530   5.560   2.357  12.826 -0.0496 -0.4426 -0.7997
11372TIP3    H155531   5.575   2.389  12.737  1.9445  1.4530  0.1111
11372TIP3    H255532   5.467   2.374  12.842  0.1055  1.5174 -1.6935
11373TIP3   OH255533   4.564   2.787   2.248  0.2027 -0.0374 -0.5834
11373TIP3    H155534   4.491   2.816   2.193 -0.5340 -0.7426 -0.0005
11373TIP3    H255535   4.599   2.867   2.286 -1.0330  0.2189  0.0528
11374TIP3   OH255536   1.745   6.155   0.554  0.4011 -0.2496 -0.1926
11374TIP3    H155537   1.821   6.208   0.577 -0.8582  1.7474 -0.4365
11374TIP3    H255538   1.744   6.156   0.458 -1.6767  2.5080 -0.2505
11375TIP3   OH255539   4.244   0.459   0.662 -0.2221  0.0732  0.2452
11375TIP3    H155540   4.302   0.442   0.588 -0.1751  0.6585  0.1372
11375TIP3    H255541   4.168   0.403   0.648 -0.3504  0.4038 -0.4150
11376TIP3   OH255542   4.784   5.320   0.210  0.6906 -0.3678 -0.2883
11376TIP3    H155543   4.844   5.251   0.240 -0.9235 -1.9841 -0.6119
11376TIP3    H255544   4.759   5.294   0.121 -0.6117  0.1774 -0.1064
11377TIP3   OH255545   6.563   5.869   5.135  0.2210 -0.4386  0.0379
11377TIP3    H155546   6.505   5.818   5.191 -1.2537  0.4557 -0.6126
11377TIP3    H255547   6.549   5.833   5.047  1.2201 -0.6992 -0.0225
11378TIP3   OH255548   1.914   2.745  13.406  0.0656  0.0326  0.6846
11378TIP3    H155549   1.860   2.801  13.351  0.8450  0.4894  0.3647
11378TIP3    H255550   1.907   2.658  13.367 -0.1134  0.1702  0.4111
11379TIP3   OH255551   2.665   4.980   6.444 -0.7813  0.2640  0.3000
11379TIP3    H155552   2.624   4.901   6.481 -1.9246  0.4970 -0.4190
11379TIP3    H255553   2.719   4.947   6.373 -1.9157  0.1689 -0.5518
11380TIP3   OH255554   1.649   1.359  14.856  0.2821 -0.0894 -0.2853
11380TIP3    H155555   1.561   1.335  14.828  0.8201 -1.6489 -0.7351
11380TIP3    H255556   1.655   1.453  14.838 -1.7140  0.3274  0.9823
11381TIP3   OH255557   3.941   4.102  11.454 -0.5414  0.0821  0.3448
11381TIP3    H155558   4.018   4.151  11.485 -1.1357  0.1432  1.8315
11381TIP3    H255559   3.957   4.089  11.361  0.2423  2.0263  0.1435
11382TIP3   OH255560   0.195   4.880   2.282  0.2393  0.3517 -0.2107
11382TIP3    H155561   0.192   4.966   2.239  0.8373  0.6681  0.3536
11382TIP3    H255562   0.167   4.897   2.372 -1.0993 -0.3241 -0.4760
11383TIP3   OH255563   5.955   3.882  12.694 -0.1500 -0.0488 -0.5279
11383TIP3    H155564   5.959   3.853  12.603 -0.1540  2.4636 -1.4304
11383TIP3    H255565   5.876   3.937  12.698 -0.2277 -0.2298  1.0329
11384TIP3   OH255566   5.836   5.724   0.534 -0.5861  0.2534  0.1791
11384TIP3    H155567   5.812   5.633   0.516 -0.0596  0.3381 -1.0101
11384TIP3    H255568   5.825   5.733   0.629  2.4816 -1.9812  0.8948
11385TIP3   OH255569   4.116   0.016   5.750 -0.0625  0.6794 -0.4375
11385TIP3    H155570   4.185   0.059   5.801 -0.6460  1.4972 -0.3180
11385TIP3    H255571   4.100   0.075   5.677 -2.0140  1.5426  0.5963
11386TIP3   OH255572   5.069   4.047  16.645  0.1901  0.2807  0.2520
11386TIP3    H155573   5.155   4.033  16.604  0.0674 -0.6929  0.3052
11386TIP3    H255574   5.070   3.990  16.722  0.1011  1.4784  1.1644
11387TIP3   OH255575   1.651   3.242  12.144 -0.0967 -0.3947 -0.1722
11387TIP3    H155576   1.596   3.287  12.208  0.3759  1.6503 -1.1324
11387TIP3    H255577   1.589   3.201  12.083 -0.5358 -1.0756  0.7123
11388TIP3   OH255578   4.909   5.644   4.795  0.1420 -0.4804  0.1891
11388TIP3    H155579   4.888   5.627   4.888  0.2716 -0.2259  0.2645
11388TIP3    H255580   4.839   5.600   4.747 -0.3494  0.0311  0.4317
11389TIP3   OH255581   4.863   1.047   2.003 -0.4859  0.0535  0.2984
11389TIP3    H155582   4.834   1.047   1.912  1.0618  1.0212 -0.2377
11389TIP3    H255583   4.958   1.058   1.998 -0.4173  0.5908  2.0400
11390TIP3   OH255584   4.802   4.885  14.616  0.0459 -0.0477 -0.0222
11390TIP3    H155585   4.876   4.914  14.563  0.2623 -0.9524 -0.2376
11390TIP3    H255586   4.732   4.869  14.552  0.3388 -1.2390 -0.0851
11391TIP3   OH255587   1.679   5.289   3.483 -0.0301 -0.3134  0.0196
11391TIP3    H155588   1.773   5.305   3.473 -0.3851  1.1683 -1.2804
11391TIP3    H255589   1.658   5.225   3.416  0.1959 -1.3491  0.9151
11392TIP3   OH255590   4.242   1.588  10.855 -0.2408 -0.5092  0.0435
11392TIP3    H155591   4.288   1.504  10.865 -0.8901 -0.8424  0.3344
11392TIP3    H255592   4.154   1.570  10.888 -0.7980 -0.0825 -1.1535
11393TIP3   OH255593   0.255   4.047   6.056  0.4701  0.0820  0.1577
11393TIP3    H155594   0.166   4.017   6.036  0.2966  0.8617 -0.2593
11393TIP3    H255595   0.310   3.996   5.998 -0.1336  3.4612 -3.8004
11394TIP3   OH255596   0.108   6.117  15.223 -1.0074  0.6047 -0.2451
11394TIP3    H155597   0.144   6.203  15.203  3.0127 -0.4794  1.1826
11394TIP3    H255598   0.015   6.131  15.237 -0.7867  4.3731 -1.6200
11395TIP3   OH255599   4.045   3.675   3.344  0.0525 -0.2027 -0.1133
11395TIP3    H155600   4.008   3.695   3.430  1.8905 -1.6036  1.0856
11395TIP3    H255601   4.044   3.580   3.339 -2.1683 -0.1315 -2.7117
11396TIP3   OH255602   6.664   4.556   1.699 -0.6278  0.0523  0.7924
11396TIP3    H155603   6.649   4.470   1.660 -0.2461  0.6297 -0.6926
11396TIP3    H255604   6.749   4.547   1.742  0.3274  0.1729 -0.9577
11397TIP3   OH255605   4.176   3.676  15.489 -0.2059 -0.3848 -0.3324
11397TIP3    H155606   4.243   3.653  15.553  1.6804 -0.1926 -2.1491
11397TIP3    H255607   4.133   3.593  15.469  1.1744 -0.9687 -0.9670
11398TIP3   OH255608   5.337   0.934   5.053  0.6141  0.0912 -0.0774
11398TIP3    H155609   5.421   0.899   5.080  1.5278  0.9891 -1.6136
11398TIP3    H255610   5.283   0.857   5.034  1.2642 -0.4797  0.3562
11399TIP3   OH255611   2.103   2.565   5.696  0.1421  0.0412 -0.4166
11399TIP3    H155612   2.037   2.546   5.762  0.9061 -1.2452  0.0122
11399TIP3    H255613   2.094   2.659   5.679 -2.2356 -0.2186 -0.8940
11400TIP3   OH255614   1.016   2.652   4.703 -0.8198 -1.0089 -0.1630
11400TIP3    H155615   0.999   2.657   4.609 -1.3697  0.2019 -0.0129
11400TIP3    H255616   0.934   2.678   4.744  0.3397  1.8819  0.5919
11401TIP3   OH255617   2.687   6.616  12.877  0.4411 -0.1434  0.4058
11401TIP3    H155618   2.686   6.712  12.871  0.2970 -0.2350 -1.4839
11401TIP3    H255619   2.780   6.594  12.872  0.3500 -0.2228 -2.9019
11402TIP3   OH255620   3.284   6.227   2.681  0.1826 -0.4481 -0.1305
11402TIP3    H155621   3.327   6.143   2.697 -1.2473 -1.3396 -0.7499
11402TIP3    H255622   3.354   6.291   2.687  0.8959 -1.3295  3.1088
11403TIP3   OH255623   5.768   3.054   0.949 -0.6749  0.4097 -0.1224
11403TIP3    H155624   5.842   3.070   0.890  0.5802 -0.1423  1.2496
11403TIP3    H255625   5.782   3.116   1.021 -0.4620 -0.9771  1.0739
11404TIP3   OH255626   1.798   2.472  16.423 -0.3450 -0.1072  0.4613
11404TIP3    H155627   1.881   2.425  16.422  0.2167  0.7378 -2.5610
11404TIP3    H255628   1.732   2.405  16.440  0.5475 -1.7984 -2.2273
11405TIP3   OH255629   3.503   6.254   6.618  0.0270  0.1862  0.2560
11405TIP3    H155630   3.411   6.272   6.638 -0.0979  0.1917 -0.2942
11405TIP3    H255631   3.552   6.314   6.674 -0.2700 -0.5287  1.3126
11406TIP3   OH255632   5.100   3.218   4.328 -0.5890 -0.4860  0.0945
11406TIP3    H155633   5.084   3.147   4.390 -0.3002 -0.8809 -0.2843
11406TIP3    H255634   5.042   3.288   4.357 -0.1200 -0.4955  1.1102
11407TIP3   OH255635   0.893   0.827  17.175 -0.2632 -0.7744 -0.0619
11407TIP3    H155636   0.801   0.807  17.156 -0.3675 -1.3506  0.9849
11407TIP3    H255637   0.893   0.921  17.197 -0.3670 -0.4458 -1.3425
11408TIP3   OH255638   6.427   2.193   1.221 -0.7730  0.0556  0.3606
11408TIP3    H155639   6.387   2.109   1.242 -1.7192  0.9651  2.4018
11408TIP3    H255640   6.508   2.170   1.175 -0.4904 -2.0094  1.7497
11409TIP3   OH255641   2.691   1.622  16.633  0.2447 -0.7053  0.4261
11409TIP3    H155642   2.710   1.699  16.580  0.6844 -0.7213  0.5567
11409TIP3    H255643   2.769   1.568  16.626 -0.8563 -2.1902 -1.4747
11410TIP3   OH255644   5.305   0.198  16.902 -0.0687 -0.6113  0.4320
11410TIP3    H155645   5.259   0.179  16.820  0.1877 -1.9337  0.5824
11410TIP3    H255646   5.261   0.276  16.936  1.6582  1.8030 -2.3810
11411TIP3   OH255647   6.160   4.729  12.867 -0.2343 -0.0826  0.2060
11411TIP3    H155648   6.082   4.675  12.880  0.3981 -1.1778 -0.3198
11411TIP3    H255649   6.191   4.748  12.955 -1.1243  0.4286  0.4220
11412TIP3   OH255650   6.615   0.648   5.915  0.3221  0.0326  0.2976
11412TIP3    H155651   6.582   0.565   5.880  0.0618  0.9786 -1.8333
11412TIP3    H255652   6.710   0.636   5.921  0.0707 -1.4238  2.9672
11413TIP3   OH255653   6.614   5.688  14.558  0.2984 -0.3163  0.0173
11413TIP3    H155654   6.700   5.726  14.543  0.1862  0.0356  0.2397
11413TIP3    H255655   6.575   5.744  14.625 -0.5479  0.2282 -0.9006
11414TIP3   OH255656   2.359   3.833  12.311  0.2419 -0.4029 -0.5679
11414TIP3    H155657   2.283   3.873  12.268 -0.9485 -2.3186 -0.3717
11414TIP3    H255658   2.331   3.817  12.401  1.6325  0.7202  0.1084
11415TIP3   OH255659   3.788   0.434   5.792  0.1513 -0.1504 -0.9726
11415TIP3    H155660   3.721   0.370   5.768  0.4343 -1.1360  0.7521
11415TIP3    H255661   3.739   0.505   5.833 -0.0447  0.2434 -1.8559
11416TIP3   OH255662   4.833   0.013  14.557 -0.1624  0.1701 -0.6334
11416TIP3    H155663   4.763  -0.040  14.594  1.7519 -1.0817  1.4903
11416TIP3    H255664   4.788   0.079  14.504 -2.8199 -1.3723 -0.4731
11417TIP3   OH255665   6.724   5.219  13.119  0.0287  0.2574 -0.3252
11417TIP3    H155666   6.788   5.289  13.131  2.2641 -1.7196 -0.1021
11417TIP3    H255667   6.654   5.260  13.067  0.9639  2.7593  0.2320
11418TIP3   OH255668   2.603   4.300   0.384  0.0921  0.3854 -0.6043
11418TIP3    H155669   2.524   4.301   0.438 -1.3153  0.9933 -2.6006
11418TIP3    H255670   2.637   4.211   0.394 -1.2236 -0.1046 -0.2588
11419TIP3   OH255671   3.312   4.784  14.430  0.0571 -0.8424 -0.0923
11419TIP3    H155672   3.266   4.739  14.501 -0.4217 -1.0527 -0.5354
11419TIP3    H255673   3.271   4.870  14.425 -0.6242 -1.1985 -0.8026
11420TIP3   OH255674   0.833   5.547   0.655  0.2492 -0.5918 -0.1770
11420TIP3    H155675   0.835   5.626   0.710 -2.1794  1.3731 -2.6091
11420TIP3    H255676   0.751   5.504   0.679  0.7347 -1.4707 -0.0680
11421TIP3   OH255677   4.947   6.719  17.102 -0.1125 -0.0860 -0.4043
11421TIP3    H155678   4.895   6.729  17.022  1.1312  1.9318 -1.0391
11421TIP3    H255679   5.026   6.672  17.073 -0.1772 -0.3906 -0.0959
11422TIP3   OH255680   2.641   0.602   4.062 -0.5200  0.0001 -0.8200
11422TIP3    H155681   2.651   0.697   4.054 -0.9611 -0.0072 -1.4765
11422TIP3    H255682   2.563   0.581   4.011  1.0037 -1.0509 -2.8981
11423TIP3   OH255683   3.648   4.424  13.383  0.4237  0.0236  0.2978
11423TIP3    H155684   3.627   4.342  13.428 -1.2711  0.1650 -0.1754
11423TIP3    H255685   3.564   4.458  13.355  1.3039  0.6741 -1.7256
11424TIP3   OH255686   1.622   6.303   5.887 -0.4353  0.1596  0.0442
11424TIP3    H155687   1.585   6.366   5.949 -0.4503  1.4159 -1.1964
11424TIP3    H255688   1.550   6.286   5.825  0.2574  0.7179 -0.9501
11425TIP3   OH255689   4.844   1.506  11.264 -0.9297 -0.1968  0.0943
11425TIP3    H155690   4.807   1.452  11.334 -1.9426  0.7380  0.2984
11425TIP3    H255691   4.838   1.451  11.185 -1.0916 -0.7204  0.4678
11426TIP3   OH255692   3.362   0.218   5.145 -1.0066  0.2265 -0.1981
11426TIP3    H155693   3.452   0.187   5.140 -0.4852  1.7687 -1.2422
11426TIP3    H255694   3.366   0.296   5.200 -1.9470 -0.3849  0.7851
11427TIP3   OH255695   0.580   3.912  13.704 -0.1731  0.5899 -0.0355
11427TIP3    H155696   0.571   3.843  13.639  3.1997 -0.7855  0.7585
11427TIP3    H255697   0.516   3.890  13.772 -2.7769  1.2968 -2.0717
11428TIP3   OH255698   2.372   4.986   5.563 -0.1350  0.7136 -0.1910
11428TIP3    H155699   2.341   4.900   5.532  0.3010  0.5008 -0.0437
11428TIP3    H255700   2.458   4.996   5.521  0.8649  0.0344  1.6141
11429TIP3   OH255701   4.152   0.351   4.019 -0.0689 -0.3888 -0.3307
11429TIP3    H155702   4.094   0.363   3.943 -0.9132  1.1903  0.5123
11429TIP3    H255703   4.229   0.405   3.999 -0.3712  0.1705  0.0125
11430TIP3   OH255704   4.971   2.188   1.767  0.4584 -0.0422 -0.0387
11430TIP3    H155705   5.031   2.245   1.816  0.4122 -0.8432  0.9534
11430TIP3    H255706   4.943   2.122   1.829  1.8645 -2.2423 -1.5728
11431TIP3   OH255707   1.120   1.040   2.477  0.5042 -0.6549 -0.0875
11431TIP3    H155708   1.146   0.949   2.463  1.4056 -0.1754 -1.8243
11431TIP3    H255709   1.183   1.091   2.426 -2.0082  0.7610 -1.9854
11432TIP3   OH255710   4.562   3.231  13.217 -0.0282 -0.3878  0.1751
11432TIP3    H155711   4.520   3.292  13.157 -0.3540 -0.5684  0.2155
11432TIP3    H255712   4.524   3.146  13.196 -0.4486 -0.3930  0.9011
11433TIP3   OH255713   1.496   4.567  14.661  0.2581 -0.0620 -0.2188
11433TIP3    H155714   1.457   4.483  14.684  1.1624 -0.4537 -0.0668
11433TIP3    H255715   1.465   4.585  14.572 -1.3461  0.3068  0.3906
11434TIP3   OH255716   0.808   0.128   3.809  0.2662 -0.7510  0.4389
11434TIP3    H155717   0.882   0.073   3.784  1.6129  0.2203  2.0436
11434TIP3    H255718   0.847   0.201   3.857 -1.7348 -0.2020  1.3726
11435TIP3   OH255719   1.842   2.307  15.019 -0.0584 -0.3759 -0.1745
11435TIP3    H155720   1.910   2.243  14.997  1.6008  1.3393 -0.2788
11435TIP3    H255721   1.890   2.387  15.040 -2.0522  0.8281  0.0613
11436TIP3   OH255722   6.648   5.835   0.012 -0.5621 -0.4491  0.1272
11436TIP3    H155723   6.573   5.775   0.016  0.0545 -1.2562 -0.1097
11436TIP3    H255724   6.614   5.918   0.045 -2.0254 -0.3132 -1.5968
11437TIP3   OH255725   5.202   6.359   3.831 -0.4228 -0.3048  0.2795
11437TIP3    H155726   5.147   6.433   3.804  0.1590  0.6982  1.6883
11437TIP3    H255727   5.242   6.388   3.913  0.7243 -1.7545  0.2752
11438TIP3   OH255728   5.291   3.721   2.049  0.2453 -0.6989  0.2207
11438TIP3    H155729   5.202   3.685   2.039 -0.3250  0.9280 -1.1862
11438TIP3    H255730   5.347   3.660   2.002 -0.5941 -0.1961 -1.5162
11439TIP3   OH255731   2.427   0.599  14.823 -0.0344  0.1506  0.8138
11439TIP3    H155732   2.362   0.656  14.864 -1.4834 -2.1026  1.8477
11439TIP3    H255733   2.375   0.537  14.771  1.4186 -0.6388  0.2334
11440TIP3   OH255734   1.681   1.064  15.508 -0.3989  0.1100 -0.4140
11440TIP3    H155735   1.648   1.078  15.597 -0.8488  1.6421 -0.7917
11440TIP3    H255736   1.603   1.064  15.453 -0.0694 -0.1788 -0.8942
11441TIP3   OH255737   4.268   1.876  15.290 -0.6161  0.1133  0.0708
11441TIP3    H155738   4.180   1.902  15.316 -0.1771  1.9429 -0.1706
11441TIP3    H255739   4.274   1.897  15.197  0.0474 -0.1002  0.0566
11442TIP3   OH255740   2.640   2.590   0.061 -0.7317 -0.4783 -0.5435
11442TIP3    H155741   2.601   2.510   0.098 -0.4116  0.5946  2.4176
11442TIP3    H255742   2.565   2.647   0.043 -0.8367 -0.0959  0.9314
11443TIP3   OH255743   1.455   2.869   2.400  0.2791  0.5498 -0.6609
11443TIP3    H155744   1.439   2.794   2.459  0.5920  0.2294 -0.9815
11443TIP3    H255745   1.457   2.830   2.313  0.0416  0.9957 -0.8655
11444TIP3   OH255746   5.744   3.190  16.747 -0.0832 -0.0030 -0.0704
11444TIP3    H155747   5.739   3.250  16.822  1.5785  0.3357 -0.1771
11444TIP3    H255748   5.705   3.109  16.779  0.5739  0.1410  1.1794
11445TIP3   OH255749   5.631   2.105   4.801 -0.1524 -0.0572 -0.0672
11445TIP3    H155750   5.593   2.090   4.714  0.9986 -0.4148 -0.5221
11445TIP3    H255751   5.649   2.199   4.803 -0.7973  0.0709  0.0540
11446TIP3   OH255752   3.633   2.706  16.207  0.7358  0.0670 -0.1014
11446TIP3    H155753   3.574   2.678  16.278  1.0073 -2.8208 -0.8736
11446TIP3    H255754   3.576   2.745  16.142  0.3381  1.6546  1.1229
11447TIP3   OH255755   2.788   5.606   3.573 -0.2557 -0.2145  0.1046
11447TIP3    H155756   2.847   5.533   3.552  2.5030  2.0082 -0.4387
11447TIP3    H255757   2.780   5.654   3.491  0.9804  2.0323  1.2049
11448TIP3   OH255758   3.938   2.681  13.082 -0.6853  0.3062 -0.4703
11448TIP3    H155759   3.864   2.712  13.136 -0.7402 -2.4067  1.1875
11448TIP3    H255760   3.914   2.592  13.058  1.7555 -0.4087 -0.4409
11449TIP3   OH255761   4.367   0.453   1.937 -0.3213  0.2707 -0.4030
11449TIP3    H155762   4.295   0.411   1.890 -1.7639  0.4102  1.5727
11449TIP3    H255763   4.387   0.393   2.009  0.8092  0.7626 -0.2876
11450TIP3   OH255764   5.549   0.785  12.769 -0.5327  0.2498 -0.2770
11450TIP3    H155765   5.586   0.722  12.707  1.7356  0.9415  0.2655
11450TIP3    H255766   5.567   0.747  12.855  0.2728  1.2757  0.0356
11451TIP3   OH255767   0.610   6.365  13.117  0.0872  0.5551 -0.4583
11451TIP3    H155768   0.545   6.349  13.184  0.5896 -0.6823 -0.2424
11451TIP3    H255769   0.564   6.353  13.034 -0.0535  0.1117 -0.3125
11452TIP3   OH255770   1.144   1.973  14.746  0.1866 -0.2449 -0.4444
11452TIP3    H155771   1.051   1.956  14.740  0.7362 -3.5261 -1.3141
11452TIP3    H255772   1.172   1.988  14.655  0.6247  0.1543 -0.2537
11453TIP3   OH255773   3.383   5.610   4.674  0.0957  0.2203 -0.1353
11453TIP3    H155774   3.346   5.527   4.646  0.7733  0.8152 -3.0709
11453TIP3    H255775   3.478   5.598   4.667  0.1879  1.5435 -1.8129
11454TIP3   OH255776   6.766   2.860   2.179  0.4588  0.0582  0.7169
11454TIP3    H155777   6.746   2.914   2.103  1.3800 -1.9696 -1.0857
11454TIP3    H255778   6.684   2.815   2.200  0.1851  0.6756  0.9834
11455TIP3   OH255779   5.807   1.258   2.405  0.5338  0.3990 -0.4626
11455TIP3    H155780   5.867   1.200   2.452 -0.4040  0.6056  1.0585
11455TIP3    H255781   5.864   1.314   2.352  1.6314  0.0085  0.2771
11456TIP3   OH255782   3.394   6.006   2.291  0.1027  0.4549 -0.4387
11456TIP3    H155783   3.426   6.019   2.380  0.6964 -0.1950 -0.5440
11456TIP3    H255784   3.305   5.971   2.303 -0.6406  2.3487 -0.1464
11457TIP3   OH255785   3.199   0.562   2.862 -0.1525  0.6804 -0.3554
11457TIP3    H155786   3.233   0.498   2.801 -0.7627 -2.4433  2.2698
11457TIP3    H255787   3.124   0.601   2.817 -0.0551 -0.8168 -1.9168
11458TIP3   OH255788   4.368   0.148  12.147  0.1504  0.0982 -0.1131
11458TIP3    H155789   4.400   0.107  12.227  1.6583  0.1546 -0.6397
11458TIP3    H255790   4.361   0.076  12.084  0.8907  0.3243 -0.4731
11459TIP3   OH255791   6.737   0.463   2.314  0.2419  0.1912  0.5388
11459TIP3    H155792   6.645   0.483   2.329  0.5066  1.2659  0.8472
11459TIP3    H255793   6.738   0.414   2.232 -0.5218  1.1174 -0.0500
11460TIP3   OH255794   0.217   2.293   4.986  0.3359  0.0684 -0.0589
11460TIP3    H155795   0.276   2.224   4.957  0.4405  0.2022 -0.1674
11460TIP3    H255796   0.129   2.255   4.974  0.3762  0.1294 -0.5861
11461TIP3   OH255797   3.021   0.401  16.415  0.1017 -0.0006 -0.3858
11461TIP3    H155798   2.992   0.484  16.453 -0.0555  0.4931 -1.5348
11461TIP3    H255799   2.947   0.342  16.427  0.6140 -0.3153  1.4109
11462TIP3   OH255800   5.348   5.238   1.101  0.3461 -0.1883  0.1677
11462TIP3    H155801   5.286   5.286   1.047  1.0849  0.3647 -0.2112
11462TIP3    H255802   5.398   5.184   1.039  0.0913 -0.8014  0.4918
11463TIP3   OH255803   5.383   3.810  14.727  0.2897 -0.0012 -0.2755
11463TIP3    H155804   5.351   3.747  14.662  0.1577  0.7548 -0.9656
11463TIP3    H255805   5.369   3.895  14.686  2.1420  0.4144 -0.1327
11464TIP3   OH255806   4.071   5.701   6.774  0.1428 -0.0255 -0.8784
11464TIP3    H155807   4.040   5.777   6.725  0.8783  0.6641 -0.2811
11464TIP3    H255808   4.113   5.646   6.707 -0.8115 -0.1577 -1.3950
11465TIP3   OH255809   6.113   5.150   5.733  0.2313  0.7855 -0.5605
11465TIP3    H155810   6.088   5.083   5.797  1.0073 -0.8167 -1.8774
11465TIP3    H255811   6.030   5.186   5.702 -0.1835  0.7553  0.4574
11466TIP3   OH255812   1.594   0.807   5.218  0.0363  0.3641  0.6977
11466TIP3    H155813   1.520   0.854   5.256 -0.3793  1.7532 -1.6415
11466TIP3    H255814   1.659   0.875   5.200  1.7565 -0.7694  2.2955
11467TIP3   OH255815   0.162   5.349   2.603  0.7568  0.8257 -0.1518
11467TIP3    H155816   0.182   5.345   2.697  1.2957  0.6123 -0.2768
11467TIP3    H255817   0.110   5.271   2.587  0.3528  1.0493  0.0397
11468TIP3   OH255818   2.669   6.233   0.650  0.3801  0.0826  0.2460
11468TIP3    H155819   2.757   6.215   0.684  1.0211  3.1576  0.4499
11468TIP3    H255820   2.674   6.207   0.558  1.4645  0.0931  0.2846
11469TIP3   OH255821   1.025   2.250   4.631 -0.1456  0.0054  0.0015
11469TIP3    H155822   1.034   2.279   4.722  1.9433  0.4266 -0.2980
11469TIP3    H255823   1.113   2.258   4.595 -0.7227 -1.2208 -1.7572
11470TIP3   OH255824   5.961   5.460   2.287 -0.4425  0.6301 -0.3972
11470TIP3    H155825   6.050   5.491   2.276 -0.0475 -0.5204 -0.5572
11470TIP3    H255826   5.952   5.388   2.225 -1.1533  0.0794  0.3099
11471TIP3   OH255827   0.836   4.103   3.869 -0.2037 -0.7330 -1.0268
11471TIP3    H155828   0.860   4.018   3.905 -0.4165 -0.7477 -0.9189
11471TIP3    H255829   0.781   4.082   3.793 -0.3433 -0.6906 -0.9379
11472TIP3   OH255830   0.585   5.154   3.465 -0.5672  0.7265 -0.3287
11472TIP3    H155831   0.585   5.141   3.560 -0.3614  1.6485 -0.1880
11472TIP3    H255832   0.677   5.146   3.440 -0.7675 -0.7014 -0.6361
11473TIP3   OH255833   0.077   6.458   0.990  0.4679 -0.5119  0.4772
11473TIP3    H155834   0.139   6.457   1.063  0.9982 -0.3547  0.0326
11473TIP3    H255835   0.131   6.446   0.912  0.0007  0.1753  0.0406
11474TIP3   OH255836   4.697   1.665   5.122  0.5731  0.3460  0.2869
11474TIP3    H155837   4.767   1.703   5.176  0.4523 -0.7554  1.2634
11474TIP3    H255838   4.639   1.622   5.185 -0.5104  0.4746 -0.5935
11475TIP3   OH255839   5.014   2.002  11.654 -0.0180 -0.5185  0.0478
11475TIP3    H155840   5.079   2.001  11.725  1.4501 -0.9256 -1.2548
11475TIP3    H255841   4.941   1.951  11.688 -0.6133  1.7099  2.3758
11476TIP3   OH255842   5.131   1.382  15.083  0.2148  0.1434 -0.3154
11476TIP3    H155843   5.130   1.370  14.988  0.0135  1.0622 -0.4440
11476TIP3    H255844   5.068   1.452  15.098 -0.0581 -0.2801  0.5441
11477TIP3   OH255845   0.511   2.014   2.509 -0.1163  0.4849 -0.0279
11477TIP3    H155846   0.518   1.926   2.472  0.3477 -0.2081  1.6250
11477TIP3    H255847   0.442   2.056   2.458  0.1363 -0.5915 -1.2989
11478TIP3   OH255848   3.095   1.439  13.300 -0.5991 -0.4927 -0.1478
11478TIP3    H155849   3.083   1.430  13.394 -2.1314  0.2546 -0.2429
11478TIP3    H255850   3.044   1.368  13.262  0.2441 -0.9634 -0.4155
11479TIP3   OH255851   5.579   6.135  12.503  0.2863  0.3076  0.4930
11479TIP3    H155852   5.514   6.070  12.478  1.0115  0.0591 -0.8267
11479TIP3    H255853   5.597   6.183  12.423  2.2051 -0.0704  0.6525
11480TIP3   OH255854   3.461   5.631   3.016 -0.2718  0.1581 -0.0748
11480TIP3    H155855   3.515   5.585   3.081  0.9822  0.1240 -1.0911
11480TIP3    H255856   3.458   5.721   3.046 -0.0476  0.0588  0.2494
11481TIP3   OH255857   5.496   6.029  14.190  0.0025  0.8468 -0.6302
11481TIP3    H155858   5.490   6.009  14.283  0.3890  1.6816 -0.4124
11481TIP3    H255859   5.559   6.101  14.185  1.3681 -0.3584 -1.7080
11482TIP3   OH255860   4.631   2.589  12.895 -0.3475 -0.9002  0.4592
11482TIP3    H155861   4.536   2.598  12.890 -0.5889 -2.4152  1.4719
11482TIP3    H255862   4.646   2.494  12.905  1.2164 -0.6206  1.1360
11483TIP3   OH255863   3.046   5.479  12.130 -0.0576  0.0269  0.2017
11483TIP3    H155864   3.028   5.485  12.037  0.9346  0.5673  0.0331
11483TIP3    H255865   2.976   5.423  12.165  1.3519 -3.0280 -1.4187
11484TIP3   OH255866   2.495   0.142   5.632 -0.5102 -0.1117 -0.2884
11484TIP3    H155867   2.575   0.156   5.684  0.1645 -1.7122 -0.8173
11484TIP3    H255868   2.516   0.179   5.546 -1.1866  1.4553  0.1856
11485TIP3   OH255869   3.944   5.005   1.833 -0.1862 -0.6980  0.7155
11485TIP3    H155870   3.981   4.988   1.747 -1.4224  0.2189 -0.0321
11485TIP3    H255871   3.962   5.098   1.849 -0.4860 -0.7148  1.1846
11486TIP3   OH255872   1.032   5.488  12.753  0.5234 -0.2988 -0.1790
11486TIP3    H155873   1.062   5.400  12.732 -1.4843 -1.0350 -0.2170
11486TIP3    H255874   0.992   5.520  12.673 -1.3298 -0.5449  0.5813
11487TIP3   OH255875   3.030   5.746   5.983 -0.0572  0.0800  0.3089
11487TIP3    H155876   3.081   5.822   6.013  0.3672 -0.2788  0.5104
11487TIP3    H255877   3.070   5.672   6.027  0.8194 -0.5254 -1.4344
11488TIP3   OH255878   5.853   2.173  15.109 -0.1025  0.5322  0.5185
11488TIP3    H155879   5.946   2.194  15.115  0.2809 -0.9952  0.4810
11488TIP3    H255880   5.826   2.210  15.025  0.6443  0.4140  0.2140
11489TIP3   OH255881   2.886   2.374  16.210  0.0596  0.2694 -0.2690
11489TIP3    H155882   2.830   2.304  16.178 -0.0998  0.1474  0.2718
11489TIP3    H255883   2.973   2.352  16.178  0.7686 -2.1236  2.7738
11490TIP3   OH255884   0.480   0.102   1.906 -0.2316  0.2498 -0.3930
11490TIP3    H155885   0.458   0.193   1.887 -1.8046 -0.1102 -0.4708
11490TIP3    H255886   0.566   0.089   1.866 -1.2194  0.9196 -2.9414
11491TIP3   OH255887   4.472   5.315   2.464  0.0336 -0.3017  0.1192
11491TIP3    H155888   4.464   5.220   2.460  3.7357 -0.7562 -0.8435
11491TIP3    H255889   4.561   5.333   2.432  0.9330  3.1947  3.6718
11492TIP3   OH255890   5.333   1.704  15.268 -0.1058  0.6339 -0.3699
11492TIP3    H155891   5.362   1.658  15.346 -2.1377  0.2047  0.2088
11492TIP3    H255892   5.413   1.728  15.222  1.1213 -2.9717 -0.4036
11493TIP3   OH255893   3.436   6.193  14.051  0.3417 -0.0994  0.3914
11493TIP3    H155894   3.487   6.272  14.070  0.2215 -0.2461  1.4146
11493TIP3    H255895   3.355   6.205  14.100 -1.1104  0.5953 -2.0145
11494TIP3   OH255896   5.822   2.698   2.249  0.3291  0.3542  0.3708
11494TIP3    H155897   5.747   2.717   2.193 -0.4579 -1.2288  0.8254
11494TIP3    H255898   5.885   2.767   2.229 -0.8463  1.1468 -0.7535
11495TIP3   OH255899   0.075   2.510   1.551 -0.0176 -0.2868 -0.0342
11495TIP3    H155900   0.076   2.418   1.525  1.8578 -0.9680  2.0513
11495TIP3    H255901   0.129   2.512   1.630 -0.3723  2.5559  0.2216
11496TIP3   OH255902   1.343   6.704  14.066 -0.2408  0.6625  0.7412
11496TIP3    H155903   1.273   6.647  14.034 -0.1008  0.3801  0.9233
11496TIP3    H255904   1.298   6.769  14.120 -0.5545  1.5489 -0.5418
11497TIP3   OH255905   0.580   3.098   5.972  0.7822  0.2039  0.4944
11497TIP3    H155906   0.497   3.137   6.001 -1.5005 -0.3605 -4.3689
11497TIP3    H255907   0.565   3.004   5.977  0.1908  0.0776 -2.2981
11498TIP3   OH255908   5.896   6.720   4.042 -0.2485 -0.6045  0.6699
11498TIP3    H155909   5.855   6.796   4.002 -0.8016 -1.0010  0.4724
11498TIP3    H255910   5.957   6.687   3.976 -1.2460 -1.3297  0.0724
11499TIP3   OH255911   2.794   3.309   2.764 -0.4336 -0.0647 -0.0525
11499TIP3    H155912   2.834   3.393   2.743  0.9512 -0.9005 -0.8894
11499TIP3    H255913   2.730   3.294   2.695 -0.8546  0.3875  0.2290
11500TIP3   OH255914   6.024   5.730  12.230 -0.1178 -0.4495  0.3761
11500TIP3    H155915   6.003   5.726  12.137 -1.2767  0.6753  0.5589
11500TIP3    H255916   6.022   5.639  12.259 -3.6351 -0.5834  0.0830
11501TIP3   OH255917   5.016   2.911  10.408 -0.3438  0.2463 -0.1944
11501TIP3    H155918   5.097   2.898  10.458 -0.7948  2.0411  1.1025
11501TIP3    H255919   4.952   2.855  10.451 -0.1064 -0.2582 -0.4776
11502TIP3   OH255920   2.410   1.356   2.431  0.6987 -0.1661  0.4575
11502TIP3    H155921   2.402   1.264   2.454  0.9291 -0.5383 -0.8625
11502TIP3    H255922   2.362   1.402   2.500 -1.4203 -1.4247 -0.0656
11503TIP3   OH255923   0.332   1.730   1.869 -0.2178 -0.3694  0.0128
11503TIP3    H155924   0.243   1.762   1.856 -0.6205 -1.4739 -0.0325
11503TIP3    H255925   0.359   1.767   1.953 -1.1241 -0.9228  0.5492
11504TIP3   OH255926   4.468   3.048  15.905 -0.1749  0.0559  0.3014
11504TIP3    H155927   4.561   3.070  15.896 -0.0512 -0.9196 -1.1011
11504TIP3    H255928   4.454   2.977  15.843 -1.4001 -1.2214  1.9254
11505TIP3   OH255929   4.950   2.928  11.455 -0.3293 -0.0416 -0.4822
11505TIP3    H155930   4.886   2.934  11.385 -1.9197  2.3354  1.0234
11505TIP3    H255931   4.926   2.848  11.502 -2.7203  1.0986  0.4187
11506TIP3   OH255932   0.910   4.473   5.041 -0.9949  0.2073 -0.1091
11506TIP3    H155933   0.845   4.528   5.084 -1.2598 -0.7205  0.7176
11506TIP3    H255934   0.941   4.414   5.110 -1.2403 -1.1339 -1.1025
11507TIP3   OH255935   0.385   3.337   0.608 -0.8099  0.1364 -0.4821
11507TIP3    H155936   0.463   3.392   0.616 -0.5880 -0.2080 -0.2145
11507TIP3    H255937   0.317   3.385   0.655 -0.9106  0.7124 -1.2113
11508TIP3   OH255938   2.410   5.873  11.666 -0.0109 -0.5811  0.4921
11508TIP3    H155939   2.458   5.854  11.586  0.6668 -0.9688  0.9738
11508TIP3    H255940   2.384   5.965  11.658 -0.1051 -0.6650 -0.2384
11509TIP3   OH255941   6.044   2.513  15.520  0.0979  0.2105 -0.3841
11509TIP3    H155942   6.033   2.582  15.455 -0.4808 -0.1900 -0.7203
11509TIP3    H255943   6.139   2.505  15.531  0.2064  3.1914  1.9814
11510TIP3   OH255944   2.318   4.043  11.011  0.3209  0.0114 -0.0904
11510TIP3    H155945   2.355   4.128  11.037 -1.2326  1.0010 -0.9471
11510TIP3    H255946   2.226   4.047  11.039  0.1651 -1.3071 -0.3431
11511TIP3   OH255947   1.011   2.237   2.797 -0.4946  0.3536  0.2718
11511TIP3    H155948   0.982   2.182   2.725 -1.1209 -0.7613  1.3263
11511TIP3    H255949   1.088   2.192   2.833  0.0019  1.0599  0.1198
11512TIP3   OH255950   5.379   6.785   1.754 -0.0959 -0.0811  0.3524
11512TIP3    H155951   5.394   6.751   1.843  0.2305  0.6326  0.5728
11512TIP3    H255952   5.362   6.706   1.702 -0.0453 -0.5320  0.9959
11513TIP3   OH255953   2.998   0.630   4.929  0.3184  0.2309 -0.7142
11513TIP3    H155954   2.982   0.615   5.022  0.2832 -3.4380 -1.1486
11513TIP3    H255955   2.910   0.632   4.889  0.3341 -2.0829 -1.0185
11514TIP3   OH255956   4.868   1.634  12.939  0.4102  0.5301 -0.2280
11514TIP3    H155957   4.929   1.680  12.881  0.7651 -1.0699 -1.1867
11514TIP3    H255958   4.785   1.681  12.929  1.2807  2.3534  0.6088
11515TIP3   OH255959   3.226   6.228  15.132  0.0270  0.3985 -0.0043
11515TIP3    H155960   3.234   6.293  15.202  1.6605  0.6578 -0.3935
11515TIP3    H255961   3.271   6.151  15.167 -3.1539 -1.1338  1.0607
11516TIP3   OH255962   2.078   1.329  11.666 -0.5965  1.1749 -0.3698
11516TIP3    H155963   2.168   1.348  11.636 -0.6713  0.1541 -1.2944
11516TIP3    H255964   2.022   1.364  11.596 -0.8969  1.2188 -0.1075
11517TIP3   OH255965   2.301   0.612   2.193  0.1887  0.2247 -0.3749
11517TIP3    H155966   2.205   0.622   2.197  0.2454  0.7705 -0.2990
11517TIP3    H255967   2.329   0.679   2.130  0.2793 -1.6587 -2.4716
11518TIP3   OH255968   2.079   3.892   2.015 -0.3915  0.5160 -0.6679
11518TIP3    H155969   2.163   3.896   2.061  0.0087  0.5894 -1.3750
11518TIP3    H255970   2.032   3.821   2.056  0.1589  0.2512 -0.4806
11519TIP3   OH255971   0.885   5.620   3.763  0.6631 -0.9856  0.1105
11519TIP3    H155972   0.889   5.620   3.667 -0.1095 -0.4238  0.0664
11519TIP3    H255973   0.883   5.528   3.787  1.4850 -1.1446 -0.3757
11520TIP3   OH255974   2.644   5.658  15.975  0.3746 -0.0749  0.2699
11520TIP3    H155975   2.598   5.640  16.057  1.4377 -1.3772  0.6181
11520TIP3    H255976   2.645   5.574  15.929  1.3764  0.2005 -0.2344
11521TIP3   OH255977   2.289   3.875   5.404 -0.2744  0.0335 -0.4837
11521TIP3    H155978   2.250   3.932   5.338 -0.8485  0.1975 -0.0149
11521TIP3    H255979   2.357   3.827   5.358 -0.9500 -0.1673 -1.2860
11522TIP3   OH255980   1.317   6.740   3.566  0.3288  0.6239 -0.2381
11522TIP3    H155981   1.304   6.828   3.529  0.0280  1.0678  0.8680
11522TIP3    H255982   1.349   6.757   3.655  1.0197 -0.4062 -0.2778
11523TIP3   OH255983   5.067   5.965  12.702 -0.1768  0.0039 -0.2299
11523TIP3    H155984   5.096   6.000  12.618 -0.2235  0.0158 -0.2412
11523TIP3    H255985   5.067   6.040  12.761 -1.2643  0.2348 -0.5004
11524TIP3   OH255986   2.942   4.264  15.436 -0.0212  0.2514 -0.1743
11524TIP3    H155987   3.001   4.324  15.483 -0.4060  2.0141 -1.8192
11524TIP3    H255988   2.985   4.179  15.442  0.8737  0.7734  1.7215
11525TIP3   OH255989   6.237   6.061   2.301  0.1391 -0.6064  0.0140
11525TIP3    H155990   6.250   5.998   2.230 -0.1268 -0.2920 -0.3178
11525TIP3    H255991   6.269   6.016   2.379  1.7453 -0.4311 -0.5154
11526TIP3   OH255992   5.185   2.517   1.224  0.7416 -0.1445  0.0821
11526TIP3    H155993   5.277   2.533   1.246  0.5361 -0.0839  0.8909
11526TIP3    H255994   5.136   2.549   1.299  0.1350 -1.5183  0.2823
11527TIP3   OH255995   6.577   6.365  16.205 -0.1333  0.4458  0.0113
11527TIP3    H155996   6.638   6.437  16.221 -1.1983  1.8623 -1.8652
11527TIP3    H255997   6.565   6.365  16.110  0.4803 -2.8272 -0.1552
11528TIP3   OH255998   4.558   3.218   6.477 -0.3624  0.8766  0.0350
11528TIP3    H155999   4.481   3.274   6.480 -3.3471 -2.8044  3.1077
11528TIP3    H256000   4.603   3.234   6.560 -0.0477  0.2473 -0.0049
11529TIP3   OH256001   2.682   0.236   2.274  0.1196 -0.0391  0.0700
11529TIP3    H156002   2.645   0.324   2.265 -0.2205 -0.1195  0.6647
11529TIP3    H256003   2.699   0.208   2.184 -1.5481 -0.1238 -0.2425
11530TIP3   OH256004   1.531   3.624  17.206 -0.2821 -0.6043 -0.4287
11530TIP3    H156005   1.479   3.659  17.133  0.8788 -1.5949 -1.7975
11530TIP3    H256006   1.604   3.685  17.215 -1.0050  0.1286  0.6895
11531TIP3   OH256007   6.114   0.634  13.854  0.6461  0.2733  0.2609
11531TIP3    H156008   6.128   0.573  13.926 -2.8095  0.5601  1.3842
11531TIP3    H256009   6.138   0.585  13.776 -0.2408 -1.9022  1.2598
11532TIP3   OH256010   0.227   0.478  14.114 -0.1330  0.0847 -0.5778
11532TIP3    H156011   0.292   0.489  14.184 -2.3155 -0.5688  1.7119
11532TIP3    H256012   0.239   0.555  14.058  1.3728  0.9330  0.8190
11533TIP3   OH256013   6.773   4.473  11.962 -0.4304  0.0798  0.3050
11533TIP3    H156014   6.811   4.437  12.042  0.0035  0.9515  0.4978
11533TIP3    H256015   6.698   4.416  11.944 -0.0612 -0.6083  0.8811
11534TIP3   OH256016   2.758   6.035   2.802  0.2267  0.1056 -0.3339
11534TIP3    H156017   2.767   6.113   2.747 -1.3723  0.0874 -0.6960
11534TIP3    H256018   2.710   6.066   2.879  0.1471 -0.3935 -0.1792
11535TIP3   OH256019   0.058   4.371  13.511  0.4713 -0.0940  0.4360
11535TIP3    H156020   0.033   4.348  13.421  0.5420  0.5748  0.2359
11535TIP3    H256021   0.090   4.290  13.549 -0.7512 -0.6835  0.2719
11536TIP3   OH256022   1.916   4.306  14.904 -0.1893  0.2165  0.8786
11536TIP3    H156023   1.832   4.351  14.902 -1.1504 -1.5153 -0.1310
11536TIP3    H256024   1.952   4.319  14.817  0.1653  0.1732  1.0166
11537TIP3   OH256025   1.071   4.548   1.429 -0.1938 -0.8463 -0.1701
11537TIP3    H156026   1.071   4.453   1.440 -3.0221 -1.1570 -1.8287
11537TIP3    H256027   1.009   4.579   1.495 -0.0751 -0.2820 -0.3246
11538TIP3   OH256028   1.837   2.674   4.148 -0.4725  0.2291  0.3003
11538TIP3    H156029   1.859   2.696   4.239 -0.1110 -1.0436  0.5348
11538TIP3    H256030   1.917   2.636   4.112 -0.4701  1.1335 -0.7120
11539TIP3   OH256031   2.237   4.154  17.206  0.2791  0.2082 -0.0498
11539TIP3    H156032   2.155   4.175  17.161 -0.6629 -1.7991  0.6405
11539TIP3    H256033   2.277   4.086  17.152  0.0936 -0.8251  1.0793
11540TIP3   OH256034   6.761   6.166   1.046  0.0049  0.3471  0.0405
11540TIP3    H156035   6.703   6.095   1.019  0.5480  0.1075 -0.5369
11540TIP3    H256036   6.730   6.243   0.998 -0.4538  0.4516  0.5039
11541TIP3   OH256037   5.104   5.699   1.927 -0.0244  0.2672 -0.1671
11541TIP3    H156038   5.167   5.754   1.973  1.2720  0.5392 -2.1571
11541TIP3    H256039   5.146   5.614   1.919 -0.0717  0.3250 -1.1422
11542TIP3   OH256040   1.653   5.136   3.011  0.4067  0.2317  0.0685
11542TIP3    H156041   1.577   5.077   3.012  1.0058 -0.6012 -1.2709
11542TIP3    H256042   1.619   5.218   2.975  0.2084 -0.2665 -0.9145
11543TIP3   OH256043   4.102   5.267   4.413 -0.1554 -0.1117  0.7389
11543TIP3    H156044   4.124   5.352   4.375  0.9383 -0.1751  1.1922
11543TIP3    H256045   4.138   5.203   4.352  1.2257 -0.2154  1.6219
11544TIP3   OH256046   1.287   6.513  16.659 -0.3883 -0.2296 -0.6162
11544TIP3    H156047   1.283   6.599  16.618  1.3941 -0.3888 -1.2460
11544TIP3    H256048   1.271   6.529  16.751 -1.7579  0.5294 -0.9681
11545TIP3   OH256049   3.204   2.955  11.275 -0.2023  0.2594  0.5138
11545TIP3    H156050   3.121   2.938  11.318 -0.9751  2.8114  0.1689
11545TIP3    H256051   3.268   2.904  11.325 -1.8474 -1.2667  1.1490
11546TIP3   OH256052   5.426   3.311  14.957  0.2390  0.0938  0.5085
11546TIP3    H156053   5.521   3.324  14.957  0.1279  0.9768  0.1193
11546TIP3    H256054   5.392   3.379  15.015 -0.1884  0.0513  0.3120
11547TIP3   OH256055   6.429   4.307  13.083 -0.2377 -0.6070  0.2805
11547TIP3    H156056   6.496   4.243  13.106 -0.6268 -1.1364 -0.0403
11547TIP3    H256057   6.409   4.289  12.991  0.6777  0.9021 -0.2584
11548TIP3   OH256058   4.500   0.454   1.272 -0.6320 -0.4534 -0.2677
11548TIP3    H156059   4.427   0.393   1.260 -0.9615 -0.3674  1.1192
11548TIP3    H256060   4.486   0.491   1.359  1.1722 -0.5583  0.1050
11549TIP3   OH256061   2.653   1.201   1.070 -0.3986 -0.8932  0.4833
11549TIP3    H156062   2.737   1.154   1.067  0.6141  0.7787  1.1642
11549TIP3    H256063   2.601   1.160   1.001  1.2957 -1.4036 -0.5684
11550TIP3   OH256064   2.407   5.986   4.820  0.1723  0.2182  0.6825
11550TIP3    H156065   2.375   5.907   4.863 -0.0177 -0.0369  0.0858
11550TIP3    H256066   2.349   6.055   4.850 -1.3173 -0.3283 -0.7911
11551TIP3   OH256067   2.082   6.112   0.104 -0.0186 -0.2359  0.4394
11551TIP3    H156068   1.995   6.151   0.094 -0.2119 -0.9251 -0.9182
11551TIP3    H256069   2.142   6.186   0.100 -0.3363  0.0190 -2.6672
11552TIP3   OH256070   1.003   1.862  11.743 -0.2990 -0.0335 -0.4551
11552TIP3    H156071   1.006   1.923  11.669 -1.6217 -0.0442 -0.5447
11552TIP3    H256072   1.014   1.776  11.703 -1.1144 -0.0477 -0.6726
11553TIP3   OH256073   2.443   2.192  14.952  0.4984  0.4107 -0.0492
11553TIP3    H156074   2.536   2.175  14.936  0.2736 -0.1158 -0.8880
11553TIP3    H256075   2.405   2.105  14.963 -0.3569  0.3982 -2.4772
11554TIP3   OH256076   0.586   1.641  16.861 -0.5523 -0.6572  0.6390
11554TIP3    H156077   0.616   1.727  16.833  1.1896 -1.1421  0.8882
11554TIP3    H256078   0.541   1.657  16.943  0.8501 -0.0978  1.3340
11555TIP3   OH256079   1.791   0.967   1.956  0.6664  0.1325  0.1125
11555TIP3    H156080   1.777   0.964   2.051 -2.6032  0.4832 -0.2548
11555TIP3    H256081   1.767   0.879   1.926 -1.6490  0.9377 -0.6416
11556TIP3   OH256082   5.353   3.347  11.458 -0.2161  0.0851  0.0414
11556TIP3    H156083   5.439   3.305  11.458 -0.7945 -1.1794  0.8425
11556TIP3    H256084   5.307   3.307  11.384 -0.1265  0.7233 -0.3579
11557TIP3   OH256085   5.224   0.190   3.693  0.1279  0.2981  0.9462
11557TIP3    H156086   5.292   0.123   3.685 -0.0963 -0.0827  2.0213
11557TIP3    H256087   5.265   0.260   3.745  0.4784  1.1804 -0.4725
11558TIP3   OH256088   0.168   2.472  14.891 -0.2145 -0.4516  0.1374
11558TIP3    H156089   0.084   2.448  14.853 -1.2684 -2.3497  3.3020
11558TIP3    H256090   0.154   2.557  14.931 -0.4818 -0.5442  0.2398
11559TIP3   OH256091   2.075   1.744   5.965  0.6390 -0.1656 -0.5804
11559TIP3    H156092   2.104   1.670   6.019 -1.1164 -0.6053 -0.1613
11559TIP3    H256093   1.997   1.777   6.010 -0.9197 -0.5690 -2.8024
11560TIP3   OH256094   1.747   2.537   3.504 -0.1294 -0.1542 -0.3758
11560TIP3    H156095   1.784   2.474   3.566  0.4952 -0.0336 -0.6174
11560TIP3    H256096   1.824   2.581   3.466 -0.4893 -0.4675 -1.4912
11561TIP3   OH256097   6.263   5.012   2.103 -0.2699 -0.0057 -0.2049
11561TIP3    H156098   6.277   5.107   2.106 -0.8702  0.1926 -2.3257
11561TIP3    H256099   6.343   4.977   2.064 -0.8688 -0.1130 -1.3923
11562TIP3   OH256100   4.151   4.112   0.863  0.0820  0.5563  0.3093
11562TIP3    H156101   4.124   4.046   0.799 -1.2823  1.6583 -0.2965
11562TIP3    H256102   4.247   4.110   0.859  0.0517 -0.7251 -0.3720
11563TIP3   OH256103   3.248   3.065  15.388 -0.0985 -0.5435  0.0193
11563TIP3    H156104   3.304   3.132  15.426  0.6972 -0.8315 -0.6030
11563TIP3    H256105   3.183   3.113  15.337 -0.3085 -0.2146  0.5869
11564TIP3   OH256106   2.085   4.848  11.815 -0.8354 -0.4158  0.5701
11564TIP3    H156107   1.997   4.842  11.778 -0.6084 -0.1528 -0.0171
11564TIP3    H256108   2.134   4.779  11.772 -0.6376 -0.2796  0.5746
11565TIP3   OH256109   1.748   2.865  12.121 -0.4376 -0.0007 -0.1869
11565TIP3    H156110   1.695   2.888  12.197 -0.6946 -0.3219 -0.2685
11565TIP3    H256111   1.735   2.938  12.060  0.1344  0.4873  0.2532
11566TIP3   OH256112   0.212   0.999  13.825 -0.1527  0.0699  0.0103
11566TIP3    H156113   0.156   1.051  13.768 -1.1286  0.8411  1.6279
11566TIP3    H256114   0.153   0.961  13.890  0.8744 -1.1593  0.2788
11567TIP3   OH256115   2.147   3.512   0.312 -0.1799  0.2012  0.2540
11567TIP3    H156116   2.195   3.454   0.253 -1.2862 -0.2561 -0.2172
11567TIP3    H256117   2.199   3.593   0.313  1.5000 -0.8307  1.0962
11568TIP3   OH256118   6.027   4.045   1.509 -1.1481 -0.0068  0.2703
11568TIP3    H156119   6.100   4.083   1.460 -0.4031 -0.0229  1.3239
11568TIP3    H256120   6.049   4.062   1.601 -1.8364 -1.1449  0.6616
11569TIP3   OH256121   5.414   0.398  13.638  0.4761  0.0253 -0.2429
11569TIP3    H156122   5.503   0.431  13.625  1.1289 -1.7614 -0.4705
11569TIP3    H256123   5.411   0.316  13.589 -0.7231 -0.8811  1.2700
11570TIP3   OH256124   5.877   0.576  14.110  0.5263 -0.4097 -0.5087
11570TIP3    H156125   5.882   0.661  14.064 -0.6662 -0.7847 -1.3869
11570TIP3    H256126   5.941   0.521  14.065 -1.1585 -1.0053 -2.3229
11571TIP3   OH256127   3.809   0.387  13.094 -0.2351  0.0034 -0.2990
11571TIP3    H156128   3.715   0.409  13.096 -0.1661  0.4161 -1.1731
11571TIP3    H256129   3.843   0.419  13.177 -0.4452  1.8671 -0.8966
11572TIP3   OH256130   4.313   1.355  12.994 -0.2847 -0.5962 -0.2648
11572TIP3    H156131   4.403   1.386  12.992  0.0609 -1.5950 -1.6050
11572TIP3    H256132   4.266   1.420  13.047  0.8932  0.7854 -0.8631
11573TIP3   OH256133   6.173   3.954   5.287 -0.2613  0.0223 -0.1023
11573TIP3    H156134   6.265   3.957   5.260 -0.4811  1.1727 -0.8085
11573TIP3    H256135   6.126   3.923   5.209 -0.7103  1.7403 -0.5719
11574TIP3   OH256136   6.097   0.533   6.735  0.0154 -0.5547 -0.0145
11574TIP3    H156137   6.143   0.450   6.743  0.6737 -0.1256  0.8650
11574TIP3    H256138   6.149   0.583   6.672  0.0835 -0.5162  0.0711
11575TIP3   OH256139   6.660   4.108   4.000 -0.1681 -0.4131 -0.2854
11575TIP3    H156140   6.681   4.168   4.071 -0.3132 -0.2775 -0.3564
11575TIP3    H256141   6.671   4.160   3.920  0.6500 -0.7447 -0.4062
11576TIP3   OH256142   5.739   3.700  16.341 -0.1886 -0.3917  0.2684
11576TIP3    H156143   5.667   3.699  16.277 -0.6391  1.2463  0.7064
11576TIP3    H256144   5.739   3.789  16.376  2.4086 -0.1589 -0.0969
11577TIP3   OH256145   2.405   1.866  16.823  0.1295  0.0634 -0.1232
11577TIP3    H156146   2.388   1.799  16.756  1.7138 -0.7805  0.2531
11577TIP3    H256147   2.320   1.885  16.861 -0.2260 -3.1218  1.0229
11578TIP3   OH256148   5.526   5.034   0.054 -0.3378 -0.3389  0.7648
11578TIP3    H156149   5.504   5.073   0.139 -1.1813  0.8369  0.0332
11578TIP3    H256150   5.619   5.013   0.061 -0.1568  0.6730  1.6385
11579TIP3   OH256151   1.091   0.918  11.535 -0.1690  0.1786  0.1123
11579TIP3    H156152   1.140   0.850  11.489 -0.4967 -0.2778  0.4315
11579TIP3    H256153   1.155   0.987  11.552 -0.0255  0.3228 -0.9568
11580TIP3   OH256154   0.213   5.867   2.907  0.0274 -0.6432  0.7412
11580TIP3    H156155   0.252   5.922   2.975  0.5538 -2.0009  1.5696
11580TIP3    H256156   0.150   5.925   2.863  2.1025  1.2718  0.1111
11581TIP3   OH256157   2.736   1.361   4.670  0.0743  0.2231 -0.5817
11581TIP3    H156158   2.794   1.353   4.746  0.2208  0.1371 -0.6996
11581TIP3    H256159   2.703   1.450   4.673  1.1007  0.6321 -1.1432
11582TIP3   OH256160   0.486   4.846   3.743  0.7633  0.4373  0.3352
11582TIP3    H156161   0.456   4.912   3.805  2.7822  2.0562 -0.2969
11582TIP3    H256162   0.459   4.879   3.657  1.1195  0.0465  0.0665
11583TIP3   OH256163   1.619   5.388   0.961 -0.3249  0.0470  0.0745
11583TIP3    H156164   1.691   5.336   0.924  0.3245 -0.7380  2.2448
11583TIP3    H256165   1.585   5.333   1.032 -1.6250  1.3548  0.5008
11584TIP3   OH256166   2.210   0.877   5.431 -0.3024  0.2593  0.3178
11584TIP3    H156167   2.163   0.890   5.513 -0.9280 -0.8688  0.1696
11584TIP3    H256168   2.141   0.863   5.366  0.2008  0.4574 -0.2722
11585TIP3   OH256169   6.658   5.796   1.838  0.1380  0.4781 -0.7723
11585TIP3    H156170   6.683   5.706   1.819  0.8603  0.8235 -1.4900
11585TIP3    H256171   6.702   5.817   1.920  0.7782  0.4967 -1.1158
11586TIP3   OH256172   4.588   6.380  16.673 -0.4859  0.3550 -0.3990
11586TIP3    H156173   4.548   6.296  16.693 -0.4720  0.5474  0.4882
11586TIP3    H256174   4.518   6.444  16.688  0.2537  0.7495  1.7447
11587TIP3   OH256175   0.902   2.654   3.281  0.1718  0.8483 -0.1717
11587TIP3    H156176   0.981   2.687   3.240  0.6321 -0.0500 -0.0405
11587TIP3    H256177   0.933   2.601   3.355 -0.5296  0.3120 -0.2485
11588TIP3   OH256178   6.283   6.510  16.756  0.0101 -0.3258 -0.1702
11588TIP3    H156179   6.256   6.439  16.697  1.6576 -0.8016 -0.4114
11588TIP3    H256180   6.287   6.587  16.699  0.9009 -0.6352 -0.5419
11589TIP3   OH256181   0.073   5.845   2.489 -0.4881 -0.5252  0.2876
11589TIP3    H156182   0.161   5.843   2.526  0.9906 -0.7350 -2.8844
11589TIP3    H256183   0.041   5.756   2.498  0.6934 -1.0879 -0.6789
11590TIP3   OH256184   5.265   2.293  10.995  0.1693  0.0505  1.0775
11590TIP3    H156185   5.247   2.201  11.012  1.2271 -0.3128  0.3347
11590TIP3    H256186   5.291   2.297  10.903 -0.7595  1.2456  0.8328
11591TIP3   OH256187   4.201   6.617   1.137 -0.9022 -0.1113 -0.7456
11591TIP3    H156188   4.277   6.582   1.092 -0.4201  0.1416 -0.1418
11591TIP3    H256189   4.233   6.696   1.181 -1.1770 -0.7363  0.6222
11592TIP3   OH256190   5.091   5.272   1.792 -0.1818  0.5405  0.3456
11592TIP3    H156191   5.140   5.347   1.759 -1.2049  1.2636  0.4000
11592TIP3    H256192   5.003   5.306   1.808 -0.6444 -0.6529  0.4754
11593TIP3   OH256193   1.711   1.221   1.914 -0.3858 -0.4195 -0.1668
11593TIP3    H156194   1.736   1.129   1.927 -0.3134 -0.2575  0.8786
11593TIP3    H256195   1.793   1.265   1.891 -0.5081 -0.6968 -1.1987
11594TIP3   OH256196   1.454   1.396  16.538 -0.4548 -0.0450 -0.5770
11594TIP3    H156197   1.438   1.489  16.520 -1.1582 -0.0032  0.2062
11594TIP3    H256198   1.396   1.350  16.478 -0.0075  0.0154 -1.0617
11595TIP3   OH256199   4.907   4.826  14.985  0.2859  0.3226 -0.4078
11595TIP3    H156200   4.889   4.759  15.051  0.7295  0.9103  0.3159
11595TIP3    H256201   4.856   4.798  14.908  3.3568 -2.9647 -1.4934
11596TIP3   OH256202   1.729   4.926   3.601 -0.3290 -0.4983  0.7449
11596TIP3    H156203   1.672   4.850   3.589 -1.4198  0.3157  0.5863
11596TIP3    H256204   1.721   4.947   3.694 -0.1623 -0.4789  0.7543
11597TIP3   OH256205   4.672   6.428  13.448  0.4448  0.7933  0.3188
11597TIP3    H156206   4.704   6.360  13.507  0.6001  0.5758 -0.0172
11597TIP3    H256207   4.596   6.465  13.494 -0.4282 -0.4629 -0.0595
11598TIP3   OH256208   3.418   4.009  12.043 -0.2264  0.0878  0.1343
11598TIP3    H156209   3.330   3.995  12.079  0.2740 -0.2211  1.2881
11598TIP3    H256210   3.422   4.103  12.025 -1.2495 -0.1033 -1.2109
11599TIP3   OH256211   6.120   5.338  13.421 -0.0706 -0.3758  0.0038
11599TIP3    H156212   6.026   5.336  13.437 -0.4216 -1.6391 -1.8612
11599TIP3    H256213   6.134   5.271  13.353  2.1399 -0.0810  0.0993
11600TIP3   OH256214   6.408   6.229   5.615 -0.1425 -0.2828  0.6830
11600TIP3    H156215   6.503   6.238   5.615 -0.1920  0.6706 -1.3127
11600TIP3    H256216   6.382   6.258   5.703  1.2957  0.9170  0.7593
11601TIP3   OH256217   4.746   0.537   4.890  0.4681  0.2019  0.7941
11601TIP3    H156218   4.656   0.510   4.872  1.2566 -3.0191  0.9393
11601TIP3    H256219   4.743   0.570   4.980 -0.3322 -1.5002  1.4443
11602TIP3   OH256220   4.937   2.993  10.856 -0.0059  0.2218  0.3619
11602TIP3    H156221   4.935   3.043  10.774  0.1847 -0.5301 -0.1098
11602TIP3    H256222   4.846   2.973  10.875 -0.0097 -0.1202  0.0027
11603TIP3   OH256223   0.924   3.377   4.213 -0.4856 -0.4368  0.2962
11603TIP3    H156224   0.843   3.398   4.166 -0.5638 -1.2859  0.0358
11603TIP3    H256225   0.936   3.284   4.199 -0.2177 -0.6028  1.5282
11604TIP3   OH256226   4.135   6.596  14.015 -0.0219  0.2553  0.5692
11604TIP3    H156227   4.081   6.672  13.994 -0.1799  0.2309  0.8790
11604TIP3    H256228   4.212   6.632  14.059  1.1493  0.4806 -1.4985
11605TIP3   OH256229   1.963   4.777  15.007 -0.5721 -0.4208 -0.1946
11605TIP3    H156230   2.011   4.698  15.031  0.3893 -0.6165 -2.4896
11605TIP3    H256231   1.971   4.782  14.912  0.3297  3.0293 -0.0902
11606TIP3   OH256232   5.568   6.527   3.073  0.1180  0.2569  0.3059
11606TIP3    H156233   5.594   6.454   3.130  1.1176  1.6747  1.7650
11606TIP3    H256234   5.474   6.534   3.085  0.2379  0.1903  1.4255
11607TIP3   OH256235   2.813   2.359   5.650 -0.4145  0.1736  0.3038
11607TIP3    H156236   2.848   2.297   5.713 -0.8215 -0.4836 -0.0994
11607TIP3    H256237   2.889   2.403   5.613 -0.1253 -0.0542  0.6332
11608TIP3   OH256238   4.088   5.993  14.554  0.3197 -0.1949 -0.4363
11608TIP3    H156239   4.057   5.965  14.468  0.0442 -0.5339 -0.2286
11608TIP3    H256240   4.172   6.035  14.536  0.2572 -0.2485 -0.8726
11609TIP3   OH256241   5.939   3.060  11.671  0.3788  0.3462  0.3343
11609TIP3    H156242   5.899   3.012  11.599  0.6705 -2.2356  1.7880
11609TIP3    H256243   5.867   3.077  11.732  0.3022  1.7549 -0.1023
11610TIP3   OH256244   4.777   6.744   0.669  0.1556  0.0709  0.4991
11610TIP3    H156245   4.807   6.674   0.611 -1.0223 -1.6447  1.8586
11610TIP3    H256246   4.760   6.818   0.610  0.0711 -1.2167 -1.1823
11611TIP3   OH256247   0.459   5.849   5.910  0.2008 -0.1166  0.0628
11611TIP3    H156248   0.484   5.794   5.985  1.1299  0.5147  0.2469
11611TIP3    H256249   0.470   5.939   5.943 -3.8924  0.3534  0.6951
11612TIP3   OH256250   3.185   4.776  12.882  0.5862  0.2528 -0.2143
11612TIP3    H156251   3.245   4.764  12.955 -0.2364  2.5170  0.9455
11612TIP3    H256252   3.142   4.691  12.872  1.5117 -0.4192  1.2069
11613TIP3   OH256253   3.108   6.778  16.218 -0.2437 -0.1145 -0.0640
11613TIP3    H156254   3.023   6.738  16.200 -0.9081  0.5267  1.4862
11613TIP3    H256255   3.117   6.847  16.152 -0.8247 -0.3174 -0.3567
11614TIP3   OH256256   3.294   6.025  16.497  0.2671  0.4806 -0.1777
11614TIP3    H156257   3.210   6.052  16.458  0.1949  0.6540  0.0941
11614TIP3    H256258   3.271   5.955  16.557  0.1618  1.2662  0.7175
11615TIP3   OH256259   0.964   6.059  13.909  0.4930 -0.0871  0.4049
11615TIP3    H156260   0.913   6.098  13.980  1.1902 -1.1015  1.5000
11615TIP3    H256261   1.038   6.017  13.952  0.5500 -1.3740 -0.8451
11616TIP3   OH256262   0.997   0.464  11.266  0.5048 -0.0646  0.8443
11616TIP3    H156263   1.050   0.385  11.258  1.7849  0.6311  2.0079
11616TIP3    H256264   0.949   0.453  11.348 -0.4533 -0.2774  0.2641
11617TIP3   OH256265   3.050   6.549  15.231 -0.2391 -0.4470 -0.5022
11617TIP3    H156266   3.141   6.526  15.208 -0.6589 -1.0965 -1.6045
11617TIP3    H256267   3.013   6.468  15.265 -0.8359 -0.6066 -1.4919
11618TIP3   OH256268   5.584   1.922  16.234  0.3988  0.2190  0.4263
11618TIP3    H156269   5.650   1.862  16.199 -1.8556 -1.0523 -1.9767
11618TIP3    H256270   5.628   1.966  16.306  2.7993 -2.9471  1.1280
11619TIP3   OH256271   6.560   1.592   3.797 -0.4518  0.2056  0.1827
11619TIP3    H156272   6.580   1.516   3.743 -0.3115 -0.5523  1.2540
11619TIP3    H256273   6.634   1.651   3.784 -0.0936 -0.2615  0.0722
11620TIP3   OH256274   0.867   1.686   0.766  0.8381  0.3485  0.2573
11620TIP3    H156275   0.886   1.593   0.780  1.4256  0.5813  1.1340
11620TIP3    H256276   0.945   1.731   0.797  0.1353  1.1878  0.8690
11621TIP3   OH256277   3.894   1.519   2.845 -1.0783  0.2053  0.2403
11621TIP3    H156278   3.893   1.590   2.910  1.0394  1.2902 -0.8081
11621TIP3    H256279   3.926   1.443   2.893 -1.4500  0.4604  0.9125
11622TIP3   OH256280   4.866   2.666  16.585  0.3161 -0.6348  0.2035
11622TIP3    H156281   4.790   2.609  16.595  0.3906 -0.7246  0.2645
11622TIP3    H256282   4.882   2.699  16.674  2.0371 -2.7796  0.7775
11623TIP3   OH256283   3.091   2.249   3.859 -0.3241 -0.1192  0.0693
11623TIP3    H156284   3.150   2.210   3.795  1.4376  1.9602  0.3142
11623TIP3    H256285   3.133   2.236   3.943 -1.1745 -0.2800  0.4839
11624TIP3   OH256286   1.790   3.982  12.039 -0.1348  0.0637 -0.0981
11624TIP3    H156287   1.721   3.967  11.973  0.5592  0.8896 -1.0410
11624TIP3    H256288   1.858   4.029  11.992  1.5499 -1.6116  0.5573
11625TIP3   OH256289   4.449   1.567   2.500 -0.0912  0.4057 -0.2701
11625TIP3    H156290   4.405   1.644   2.465 -3.6945 -0.5089  1.8000
11625TIP3    H256291   4.428   1.568   2.593 -0.1276 -2.9655 -0.1401
11626TIP3   OH256292   5.028   5.620  16.642 -0.3794  0.1253 -0.3524
11626TIP3    H156293   4.957   5.654  16.587 -0.2275 -0.0568 -0.6589
11626TIP3    H256294   5.023   5.525  16.632 -2.2374 -0.1615  2.2381
11627TIP3   OH256295   5.144   5.341   4.823  0.0504  0.1217 -0.0492
11627TIP3    H156296   5.201   5.282   4.872  0.9941 -1.5249 -2.8972
11627TIP3    H256297   5.058   5.298   4.826  0.3528 -0.5471 -0.7161
11628TIP3   OH256298   2.972   4.546  16.285  0.0882 -0.2496  0.5913
11628TIP3    H156299   2.914   4.510  16.218  0.3910  1.4704 -0.6413
11628TIP3    H256300   2.985   4.473  16.346 -2.6737 -0.9629  0.4753
11629TIP3   OH256301   1.697   0.937  11.379 -0.2583 -0.0095 -0.5946
11629TIP3    H156302   1.739   0.860  11.342  0.4991  0.3709 -0.5521
11629TIP3    H256303   1.762   1.006  11.372 -1.0994  0.7580 -1.0827
11630TIP3   OH256304   5.746   3.859  16.010  0.1391  0.2441  0.0495
11630TIP3    H156305   5.662   3.815  16.028 -0.1056  0.4043 -0.6548
11630TIP3    H256306   5.787   3.869  16.096 -0.6027  0.2324  0.4117
11631TIP3   OH256307   3.333   6.740  13.183  0.3607 -0.4734 -0.3259
11631TIP3    H156308   3.294   6.811  13.133  1.1546 -1.3351 -2.2696
11631TIP3    H256309   3.361   6.676  13.117  2.5035 -1.1528  1.1232
11632TIP3   OH256310   1.024   4.364  15.100  0.0859  0.1224 -0.2789
11632TIP3    H156311   0.967   4.312  15.156  0.1906  0.9539  0.6398
11632TIP3    H256312   1.051   4.305  15.030 -1.9337 -0.2807 -0.7708
11633TIP3   OH256313   1.542   0.496   0.081  0.0829  0.1417 -0.9405
11633TIP3    H156314   1.458   0.502   0.035 -0.6659 -0.8210  0.2231
11633TIP3    H256315   1.520   0.509   0.173  1.4551  1.3942 -0.7593
11634TIP3   OH256316   6.413   4.091   2.987  0.0730 -0.3445  0.4741
11634TIP3    H156317   6.462   4.011   2.965  0.9761  0.1440  0.6601
11634TIP3    H256318   6.476   4.162   2.973 -0.9124  0.3968 -0.2935
11635TIP3   OH256319   2.365   0.429   2.653 -0.4832  0.5709  0.6737
11635TIP3    H156320   2.434   0.405   2.715 -0.3070  1.1280  0.7004
11635TIP3    H256321   2.383   0.520   2.631  1.0873 -0.3243 -2.3221
11636TIP3   OH256322   6.466   1.123  14.545 -0.0816 -0.4014  0.1369
11636TIP3    H156323   6.408   1.165  14.609  1.4593 -0.0557  1.3650
11636TIP3    H256324   6.471   1.032  14.573 -1.2677 -0.8249 -0.9294
11637TIP3   OH256325   3.533   4.223   4.416  0.2824 -0.5723 -0.1998
11637TIP3    H156326   3.591   4.146   4.423  1.6902  0.3383 -1.1891
11637TIP3    H256327   3.450   4.193   4.452  0.7811 -2.5660 -0.5469
11638TIP3   OH256328   2.929   4.636   5.279 -0.1104  0.4016  0.2397
11638TIP3    H156329   2.912   4.593   5.362  2.0925  1.4230  1.3074
11638TIP3    H256330   2.843   4.650   5.241 -1.2567  0.6856  2.7480
11639TIP3   OH256331   5.285   0.989   3.105  0.1798  0.0718 -0.2205
11639TIP3    H156332   5.285   1.043   3.026  0.0027  1.8662  0.9528
11639TIP3    H256333   5.193   0.982   3.129  0.2075 -0.7179 -0.3054
11640TIP3   OH256334   0.916   3.051   5.742  0.0692 -0.6244 -0.6673
11640TIP3    H156335   0.935   3.127   5.687  0.1857 -1.2769 -1.5341
11640TIP3    H256336   0.826   3.027   5.720 -0.0651 -0.5744 -0.1897
11641TIP3   OH256337   6.223   2.907   2.449 -0.0653  0.1422 -0.0021
11641TIP3    H156338   6.140   2.890   2.495  0.4256 -0.7780  0.5734
11641TIP3    H256339   6.262   2.821   2.436  2.6148  0.6750  3.1512
11642TIP3   OH256340   6.650   4.561   5.916 -0.3025 -0.6642  0.3260
11642TIP3    H156341   6.703   4.618   5.971 -1.3222 -0.4936  1.1597
11642TIP3    H256342   6.577   4.534   5.972 -1.2089 -0.7336 -0.8490
11643TIP3   OH256343   1.338   3.008   0.846 -0.0852 -0.4746  0.5143
11643TIP3    H156344   1.386   2.969   0.919  0.1428 -0.5300  0.3359
11643TIP3    H256345   1.322   2.935   0.786  0.6716 -0.2259  0.0022
11644TIP3   OH256346   3.760   0.266  16.946  0.1436 -0.1031  0.3290
11644TIP3    H156347   3.705   0.187  16.947  1.1179 -0.8635 -1.6389
11644TIP3    H256348   3.744   0.306  17.031 -1.9272 -1.3404  0.6152
11645TIP3   OH256349   5.333   5.581  15.734 -0.3630 -0.0695  0.1613
11645TIP3    H156350   5.242   5.552  15.748 -0.4606  0.8550  1.6494
11645TIP3    H256351   5.325   5.674  15.710  0.1529 -0.2309 -0.6734
11646TIP3   OH256352   3.765   3.808  13.736 -0.3397  0.7461 -0.5521
11646TIP3    H156353   3.737   3.719  13.712  1.4059 -0.5102  1.5731
11646TIP3    H256354   3.716   3.827  13.816 -0.0015  1.2663 -0.4663
11647TIP3   OH256355   1.506   6.213   5.033  0.5948 -0.0742  0.0975
11647TIP3    H156356   1.562   6.217   4.956 -0.3349 -0.6129 -0.6240
11647TIP3    H256357   1.537   6.137   5.082  1.2803  0.3537  0.3511
11648TIP3   OH256358   3.587   5.450   4.435 -0.1834  0.2638 -0.4749
11648TIP3    H156359   3.638   5.447   4.516  2.3566 -2.6571 -1.9682
11648TIP3    H256360   3.635   5.511   4.379  0.6808 -1.0727 -1.2385
11649TIP3   OH256361   6.516   3.923  14.825  0.0174  0.3151  0.6397
11649TIP3    H156362   6.505   3.929  14.730 -3.5136  0.2121  0.9281
11649TIP3    H256363   6.541   4.011  14.852 -0.5242  0.7400 -0.2286
11650TIP3   OH256364   5.430   2.764  14.195 -0.2723 -0.2586 -0.0472
11650TIP3    H156365   5.429   2.785  14.101 -1.2429  2.7954  0.5131
11650TIP3    H256366   5.518   2.787  14.224  0.1163 -1.4686 -0.2183
11651TIP3   OH256367   0.567   6.375  14.114 -0.1171 -0.2022  0.2658
11651TIP3    H156368   0.496   6.375  14.178 -0.5669 -0.2991 -0.2203
11651TIP3    H256369   0.641   6.415  14.159 -1.5871  3.7552 -0.4102
11652TIP3   OH256370   0.821   6.699   2.345 -0.5540  0.8046 -0.2777
11652TIP3    H156371   0.879   6.725   2.416 -1.1062 -0.8407  0.8427
11652TIP3    H256372   0.880   6.679   2.272  0.2689 -0.0939  0.5933
11653TIP3   OH256373   3.516   6.618   3.515  0.2196  0.4132  0.0477
11653TIP3    H156374   3.599   6.582   3.485 -0.0584 -1.4807  1.4004
11653TIP3    H256375   3.531   6.713   3.518  1.4371  0.3636 -2.2749
11654TIP3   OH256376   0.092   6.266  14.756 -0.1710  0.2007  0.0329
11654TIP3    H156377   0.063   6.185  14.797  0.9479 -0.7486 -0.9805
11654TIP3    H256378   0.113   6.242  14.666 -1.8444  2.0672 -0.9371
11655TIP3   OH256379   3.424   3.765  13.174 -0.1113 -0.1532 -0.1071
11655TIP3    H156380   3.419   3.700  13.105  2.4703  0.0932 -0.6004
11655TIP3    H256381   3.517   3.786  13.183 -0.6723  2.3619  1.0627
11656TIP3   OH256382   2.003   5.548   4.966 -0.2378  0.1760  0.3405
11656TIP3    H156383   2.021   5.603   4.889  2.8904  0.5097  1.1528
11656TIP3    H256384   1.982   5.462   4.929  1.4585  0.2555 -0.9731
11657TIP3   OH256385   2.215   2.091   0.343  0.1660 -0.2164 -0.6053
11657TIP3    H156386   2.244   2.070   0.255 -2.5400 -2.1383 -1.1648
11657TIP3    H256387   2.218   2.007   0.390  1.9336  0.8290  1.3380
11658TIP3   OH256388   2.102   3.416  16.265  1.1518  0.2332  0.2305
11658TIP3    H156389   2.094   3.507  16.236 -1.5143  0.3553  1.0973
11658TIP3    H256390   2.038   3.408  16.336  0.7692 -2.5270 -0.3390
11659TIP3   OH256391   3.235   2.407   4.541  0.0052 -0.2121 -0.0844
11659TIP3    H156392   3.233   2.494   4.581  0.1823 -0.4034  0.3518
11659TIP3    H256393   3.247   2.347   4.615 -0.8088 -0.6642 -0.3078
11660TIP3   OH256394   4.595   5.314  14.956 -0.0391 -0.3907  0.0968
11660TIP3    H156395   4.539   5.261  15.013 -0.1609 -1.5104 -1.0189
11660TIP3    H256396   4.580   5.279  14.868  1.2659  0.2923 -0.4298
11661TIP3   OH256397   4.621   2.746   2.617  0.1968  0.0400  0.5842
11661TIP3    H156398   4.606   2.679   2.551 -1.1145  0.2415  0.6449
11661TIP3    H256399   4.552   2.811   2.601 -0.7778 -0.3830  2.7488
11662TIP3   OH256400   0.597   0.781  10.696 -0.1937 -0.6137  0.2670
11662TIP3    H156401   0.667   0.733  10.653  0.2478 -2.3465  2.6970
11662TIP3    H256402   0.529   0.716  10.713 -0.5836  0.0829  1.5939
11663TIP3   OH256403   4.140   2.597   1.335 -0.6162 -0.1405  0.6889
11663TIP3    H156404   4.208   2.535   1.309 -0.6980  0.1250 -0.2016
11663TIP3    H256405   4.113   2.568   1.422  0.4563 -0.3940  0.9514
11664TIP3   OH256406   2.311   4.619   3.519 -0.1717 -0.0416 -0.0761
11664TIP3    H156407   2.240   4.647   3.577  0.7805  0.5667  0.8279
11664TIP3    H256408   2.268   4.601   3.436 -1.1785  1.8192 -0.0058
11665TIP3   OH256409   6.350   6.239   4.611  0.1330  0.2175  0.7726
11665TIP3    H156410   6.262   6.241   4.648 -0.7017 -2.1224 -0.9005
11665TIP3    H256411   6.355   6.320   4.560 -1.7344 -0.4181 -0.5192
11666TIP3   OH256412   4.357   4.511   3.164 -0.6852  0.2981  0.2288
11666TIP3    H156413   4.428   4.574   3.149 -1.6631  1.2173 -0.7266
11666TIP3    H256414   4.401   4.433   3.198  0.5807  1.4435  1.3420
11667TIP3   OH256415   5.491   0.223   2.318 -0.0631  0.1437  0.3670
11667TIP3    H156416   5.528   0.288   2.379 -1.1589 -0.3997  1.6601
11667TIP3    H256417   5.400   0.212   2.347 -1.0402  0.8082 -2.1885
11668TIP3   OH256418   1.636   2.678  11.430  0.0949 -0.4586  0.1553
11668TIP3    H156419   1.675   2.761  11.459  0.6032 -0.3828 -0.7330
11668TIP3    H256420   1.596   2.698  11.346 -1.9602 -0.5209  1.0532
11669TIP3   OH256421   0.758   0.136  14.397  0.2756  0.5866 -0.2582
11669TIP3    H156422   0.842   0.092  14.410 -0.3935  0.0700  3.0870
11669TIP3    H256423   0.713   0.081  14.333  2.2809  0.7159 -1.9109
11670TIP3   OH256424   6.673   1.795  16.302  0.1821 -0.0287 -0.3741
11670TIP3    H156425   6.727   1.720  16.325 -0.8978 -1.0260 -0.9851
11670TIP3    H256426   6.660   1.841  16.384 -0.3571 -1.3425  0.3054
11671TIP3   OH256427   4.327   0.764   0.436  0.1419 -0.2539  0.0872
11671TIP3    H156428   4.347   0.780   0.344  0.6190  0.5923  0.3301
11671TIP3    H256429   4.403   0.796   0.484 -0.4667  0.1384  0.8270
11672TIP3   OH256430   4.399   6.474   5.979 -0.3957  0.3761 -0.4618
11672TIP3    H156431   4.328   6.470   6.043 -0.9036  1.2457 -0.9528
11672TIP3    H256432   4.462   6.408   6.008 -2.0272 -1.3893 -0.7882
11673TIP3   OH256433   5.116   3.985   6.058  0.0751  0.4201 -0.5091
11673TIP3    H156434   5.201   3.946   6.078 -0.3829 -2.0161 -2.7385
11673TIP3    H256435   5.076   4.001   6.143  2.4457  0.9714  0.5772
11674TIP3   OH256436   5.100   3.009   3.042 -0.0186  0.2374 -0.0184
11674TIP3    H156437   5.128   2.925   3.006 -3.1267 -0.8415 -0.2686
11674TIP3    H256438   5.101   3.069   2.967  2.0286  0.4414  0.1223
11675TIP3   OH256439   0.577   3.447  13.662 -0.3948  0.7110 -0.3181
11675TIP3    H156440   0.515   3.378  13.639 -1.6675  1.4533  0.7175
11675TIP3    H256441   0.643   3.402  13.715 -1.4497  0.3234  0.7246
11676TIP3   OH256442   4.208   4.694   5.742  0.1321 -0.1368 -0.4001
11676TIP3    H156443   4.140   4.754   5.710  0.6346  0.0321 -1.1843
11676TIP3    H256444   4.169   4.652   5.819 -0.8273  0.0122 -0.7924
11677TIP3   OH256445   4.510   4.159   3.811 -0.0365 -0.1379  0.4360
11677TIP3    H156446   4.441   4.141   3.874  0.2755 -0.7377  0.6219
11677TIP3    H256447   4.591   4.138   3.859  0.3008  0.9791  0.3705
11678TIP3   OH256448   5.468   1.500   4.396 -0.6107  0.1419 -1.0057
11678TIP3    H156449   5.534   1.460   4.453  0.8419  1.0912 -1.9478
11678TIP3    H256450   5.518   1.531   4.320 -2.0370  1.5184 -1.4249
11679TIP3   OH256451   1.691   0.856   3.814  0.4792  0.0140  0.2781
11679TIP3    H156452   1.726   0.935   3.856 -1.1730  0.0413  1.7553
11679TIP3    H256453   1.714   0.866   3.722  0.9498  1.8829  0.5435
11680TIP3   OH256454   1.174   0.183   3.734 -0.4307 -0.0389 -0.1410
11680TIP3    H156455   1.268   0.184   3.751 -0.2783  1.9725 -0.7565
11680TIP3    H256456   1.153   0.274   3.712 -2.4018 -0.5689 -0.6823
11681TIP3   OH256457   0.407   5.973   1.181  0.0802 -0.7930  0.0196
11681TIP3    H156458   0.367   5.993   1.096 -3.2370  1.0567  1.7942
11681TIP3    H256459   0.470   6.044   1.195 -2.2333  1.2926  0.6543
11682TIP3   OH256460   0.820   5.001   0.088  0.0209 -0.4651  0.0398
11682TIP3    H156461   0.727   5.017   0.069  0.2267 -0.7544 -1.2998
11682TIP3    H256462   0.828   5.020   0.181 -1.5813 -1.3385  0.3985
11683TIP3   OH256463   0.369   5.619   0.033 -0.0976 -0.6067 -0.0834
11683TIP3    H156464   0.436   5.622   0.102 -0.8125 -0.2413  0.6099
11683TIP3    H256465   0.358   5.526   0.013 -1.0483 -0.8468  1.4624
11684TIP3   OH256466   6.446   4.453   6.091 -0.2868 -0.4729  0.4260
11684TIP3    H156467   6.363   4.499   6.105  0.1560  0.3156  0.5075
11684TIP3    H256468   6.446   4.383   6.156 -0.9044 -0.5074  0.3961
11685TIP3   OH256469   2.713   3.482   4.686 -0.2792 -0.0035  0.5080
11685TIP3    H156470   2.639   3.519   4.638 -0.8580 -0.5686  0.9368
11685TIP3    H256471   2.692   3.497   4.778  0.1077 -0.2331  0.6383
11686TIP3   OH256472   5.625   4.156   0.498  0.3405 -0.4942 -0.1640
11686TIP3    H156473   5.594   4.066   0.489  2.6658 -1.1847 -2.0834
11686TIP3    H256474   5.671   4.157   0.583 -0.3902 -0.8669  0.2432
11687TIP3   OH256475   0.419   5.545   1.530  0.3125 -0.9545  0.5156
11687TIP3    H156476   0.408   5.640   1.519 -0.8519 -1.0962  0.3193
11687TIP3    H256477   0.508   5.528   1.501  0.6190  0.1115  0.7563
11688TIP3   OH256478   0.299   2.275   4.671 -0.4642  0.0572 -0.3155
11688TIP3    H156479   0.384   2.284   4.713 -1.0035 -0.7103  1.0030
11688TIP3    H256480   0.250   2.352   4.699 -1.1454 -0.9211  1.3283
11689TIP3   OH256481   1.933   0.616   1.843 -0.2198 -0.2891 -0.1710
11689TIP3    H156482   1.940   0.639   1.935  2.1092 -2.1974  0.2160
11689TIP3    H256483   1.854   0.562   1.838  0.1449 -0.9480  0.9053
11690TIP3   OH256484   5.911   1.402  12.230  0.1572 -0.5731  0.2395
11690TIP3    H156485   5.928   1.495  12.248 -0.7541 -0.3350 -0.0848
11690TIP3    H256486   5.960   1.384  12.150  2.1879 -0.9880  1.5000
11691TIP3   OH256487   6.373   2.852   5.847  0.2680  0.0231 -0.3358
11691TIP3    H156488   6.426   2.901   5.785  0.3959 -0.5364 -0.6744
11691TIP3    H256489   6.423   2.854   5.929  0.2674  0.4596 -0.3434
11692TIP3   OH256490   4.285   4.699  11.167 -0.1371  0.1087 -0.3826
11692TIP3    H156491   4.253   4.609  11.177  0.6406 -0.0058  1.5477
11692TIP3    H256492   4.233   4.750  11.229 -0.1773  0.9022 -1.0489
11693TIP3   OH256493   3.523   4.839   3.957 -0.4034 -1.0055  0.4351
11693TIP3    H156494   3.588   4.769   3.949  0.4482 -0.3056  1.0365
11693TIP3    H256495   3.568   4.907   4.007 -0.9065  0.3504 -0.8900
11694TIP3   OH256496   3.896   4.417  13.203 -0.0143  0.0119  0.0592
11694TIP3    H156497   3.824   4.428  13.141  0.5704  0.0734 -0.6156
11694TIP3    H256498   3.853   4.407  13.288 -0.8360 -0.4899 -0.4063
11695TIP3   OH256499   3.562   4.686  17.002 -0.0203 -0.0731  0.6403
11695TIP3    H156500   3.631   4.750  17.022  1.8886 -2.3433  2.0044
11695TIP3    H256501   3.520   4.670  17.087 -2.9091  1.8196 -0.2922
11696TIP3   OH256502   5.330   3.074  14.855  0.2678 -0.3614 -0.0224
11696TIP3    H156503   5.306   3.024  14.933  0.0711  0.5542  0.5190
11696TIP3    H256504   5.354   3.161  14.888  0.0198  0.0965 -0.9916
11697TIP3   OH256505   1.284   5.931   3.907 -0.2006 -0.4983  0.4836
11697TIP3    H156506   1.296   5.963   3.818  0.4789 -0.6809  0.5046
11697TIP3    H256507   1.366   5.951   3.951 -0.2915 -0.9914  0.8879
11698TIP3   OH256508   4.381   6.386   4.542 -0.0341  0.3933  0.0807
11698TIP3    H156509   4.366   6.396   4.636  0.4044  0.2566  0.1702
11698TIP3    H256510   4.299   6.411   4.502 -0.1235  0.7689  0.4869
11699TIP3   OH256511   2.287   6.265   0.427  0.3069  0.2157 -0.3253
11699TIP3    H156512   2.353   6.316   0.475 -0.8061  0.5196  0.9392
11699TIP3    H256513   2.264   6.321   0.353 -0.0316  1.0433  0.3882
11700TIP3   OH256514   0.022   6.522  16.316  0.2017  0.0331  0.6327
11700TIP3    H156515   0.056   6.492  16.232 -0.6635  0.1257  0.2358
11700TIP3    H256516   0.025   6.617  16.311 -0.3523  0.0502  0.4778
11701TIP3   OH256517   6.541   6.459  12.109  0.4467  0.1684  0.4369
11701TIP3    H156518   6.452   6.447  12.142  0.5971 -0.3631  0.6434
11701TIP3    H256519   6.598   6.439  12.183  0.7838 -0.9223 -0.1041
11702TIP3   OH256520   1.489   1.204   1.008  0.2737  0.1546 -0.4589
11702TIP3    H156521   1.438   1.152   1.070 -1.1557 -0.0719 -1.7446
11702TIP3    H256522   1.478   1.295   1.037 -0.5858  0.0726 -0.5043
11703TIP3   OH256523   1.048   6.004   3.127  0.2616  0.0516 -0.1011
11703TIP3    H156524   1.055   5.917   3.167  2.9991 -0.3352 -1.2292
11703TIP3    H256525   1.050   6.065   3.202 -1.4356 -0.7963  0.6818
11704TIP3   OH256526   5.297   3.683  16.651  0.0225  0.6779 -0.2961
11704TIP3    H156527   5.226   3.629  16.686 -0.9312  1.7453 -0.5480
11704TIP3    H256528   5.330   3.632  16.577  2.3471 -1.8122  2.2088
11705TIP3   OH256529   3.304   4.795   3.796  0.1114  0.1866  0.3225
11705TIP3    H156530   3.371   4.839   3.849  0.3602  1.5499 -1.0499
11705TIP3    H256531   3.227   4.852   3.803  0.1665  0.4181 -0.7842
11706TIP3   OH256532   3.396   6.503   6.854 -0.2199 -0.5355 -0.0326
11706TIP3    H156533   3.449   6.573   6.816 -0.4211 -0.7229 -0.6706
11706TIP3    H256534   3.459   6.445   6.898 -0.0619  0.0883  0.5815
11707TIP3   OH256535   3.609   2.130  16.236 -0.3742 -0.0308  0.9453
11707TIP3    H156536   3.623   2.222  16.211 -2.6701  0.4677  1.2121
11707TIP3    H256537   3.697   2.093  16.242  0.5455  1.5890 -1.2116
11708TIP3   OH256538   6.475   2.271   4.711 -0.2413  0.4012 -0.5961
11708TIP3    H156539   6.458   2.191   4.660  1.0308 -0.1073 -0.2630
11708TIP3    H256540   6.565   2.260   4.743 -0.0408  1.9835 -0.5573
11709TIP3   OH256541   2.461   1.945   3.123 -0.0792  0.1353 -0.1353
11709TIP3    H156542   2.432   1.856   3.144 -1.5274  1.0559  2.1735
11709TIP3    H256543   2.520   1.969   3.195  0.6322  0.9312 -0.9475
11710TIP3   OH256544   3.251   4.534  13.095 -0.0596 -0.0020  0.0014
11710TIP3    H156545   3.303   4.605  13.057  0.7334  0.1870  1.3521
11710TIP3    H256546   3.284   4.454  13.055  2.7192 -0.1074  2.1670
11711TIP3   OH256547   6.723   1.117  14.826  0.0264 -0.3139  0.3578
11711TIP3    H156548   6.772   1.066  14.890  0.1095 -0.9615 -0.2194
11711TIP3    H256549   6.753   1.085  14.741  0.1591  0.7659 -0.0222
11712TIP3   OH256550   0.530   5.635  13.486  0.1356  0.3196  0.8026
11712TIP3    H156551   0.439   5.632  13.516  0.0902 -2.1657  0.6311
11712TIP3    H256552   0.580   5.660  13.564 -0.6734  1.7270  0.8920
11713TIP3   OH256553   2.465   3.743   3.780 -0.3531  0.0525 -0.2403
11713TIP3    H156554   2.415   3.802   3.837  1.0132  0.9331  0.1187
11713TIP3    H256555   2.447   3.656   3.814 -2.4089  0.2269 -0.7559
11714TIP3   OH256556   4.466   0.646  15.999 -0.8152 -0.5177 -0.3618
11714TIP3    H156557   4.406   0.714  16.029  1.1125  0.7817  0.7241
11714TIP3    H256558   4.517   0.623  16.077  2.0380  0.5077 -1.8011
11715TIP3   OH256559   1.858   6.039  15.073 -0.1498  0.4100 -0.6204
11715TIP3    H156560   1.936   5.994  15.105  0.3197 -0.9611 -3.4290
11715TIP3    H256561   1.789   5.973  15.076 -0.6736  0.9594 -0.2903
11716TIP3   OH256562   5.488   5.763  13.201 -0.5365  0.6955  0.1417
11716TIP3    H156563   5.438   5.724  13.272  0.4748 -0.6978  0.1168
11716TIP3    H256564   5.575   5.723  13.207 -0.2884  0.8893 -1.5818
11717TIP3   OH256565   4.694   0.363   5.145  0.1029  0.6245 -0.3154
11717TIP3    H156566   4.721   0.294   5.084  1.5910 -0.1446  1.1276
11717TIP3    H256567   4.772   0.418   5.154 -0.4010  1.2672  0.1774
11718TIP3   OH256568   6.639   5.198  15.185 -0.6741  0.3505 -0.0801
11718TIP3    H156569   6.566   5.140  15.209 -0.0459 -0.3429  0.2099
11718TIP3    H256570   6.663   5.171  15.096  0.8751 -1.2101  0.7498
11719TIP3   OH256571   2.378   6.515   2.823  0.2140  0.2046  0.1439
11719TIP3    H156572   2.401   6.451   2.755 -1.8628 -1.2824  0.7348
11719TIP3    H256573   2.283   6.523   2.817 -0.2742 -1.1142  3.7548
11720TIP3   OH256574   4.272   4.723  15.958  0.3197 -0.0384  0.2411
11720TIP3    H156575   4.228   4.656  15.905 -1.2041  1.0666  0.0339
11720TIP3    H256576   4.328   4.674  16.018 -0.0256 -1.4434 -0.5457
11721TIP3   OH256577   6.518   0.345  16.193 -0.0008 -0.4024  0.7581
11721TIP3    H156578   6.599   0.366  16.240  0.6362 -1.5535  0.2433
11721TIP3    H256579   6.523   0.250  16.180  0.8329 -0.0001 -3.2909
11722TIP3   OH256580   4.784   5.211   5.581 -0.0465  0.4472 -0.2821
11722TIP3    H156581   4.738   5.229   5.499  0.0074 -1.7710 -0.8608
11722TIP3    H256582   4.777   5.116   5.592  0.9790  0.5515  1.6743
11723TIP3   OH256583   0.320   0.980  15.007 -0.2357  0.1298 -0.1414
11723TIP3    H156584   0.415   0.978  14.997  0.2089  0.9822  2.7546
11723TIP3    H256585   0.289   1.040  14.939  1.4696  0.9118 -0.2708
11724TIP3   OH256586   5.087   0.352  15.071 -0.2401  0.1933 -0.5377
11724TIP3    H156587   5.026   0.290  15.111 -0.3257  0.1126 -0.7874
11724TIP3    H256588   5.031   0.406  15.015  0.2182 -1.5049 -2.7800
11725TIP3   OH256589   4.253   1.518  15.936  0.2844 -0.5440  0.3505
11725TIP3    H156590   4.223   1.606  15.958  2.3102  0.4511 -0.6527
11725TIP3    H256591   4.272   1.478  16.020 -0.1267  0.1597  0.7931
11726TIP3   OH256592   1.223   2.432   1.792  0.2073  0.3299 -0.0518
11726TIP3    H156593   1.184   2.396   1.872 -0.7167 -0.4864 -0.8438
11726TIP3    H256594   1.148   2.462   1.741  0.7629  0.5299 -0.7689
11727TIP3   OH256595   5.312   5.543   0.308 -0.0964 -0.1476 -0.1492
11727TIP3    H156596   5.392   5.586   0.340 -0.6917  1.0418 -0.2070
11727TIP3    H256597   5.343   5.485   0.238  0.9541 -1.2247  1.1488
11728TIP3   OH256598   1.955   1.681  13.239 -0.7246 -0.1713  0.1967
11728TIP3    H156599   1.912   1.723  13.314  1.3512 -0.1054  1.4297
11728TIP3    H256600   2.036   1.644  13.275 -0.4827 -1.6422 -1.6944
11729TIP3   OH256601   0.127   4.454   4.251 -0.3920  0.0499 -0.4635
11729TIP3    H156602   0.208   4.503   4.238 -0.8557  0.5894 -1.3978
11729TIP3    H256603   0.067   4.516   4.293 -0.9021  0.2358 -1.4313
11730TIP3   OH256604   3.615   4.913   5.648 -0.0184 -0.3434 -0.0805
11730TIP3    H156605   3.578   4.981   5.705  0.9419 -0.1648  0.3487
11730TIP3    H256606   3.590   4.831   5.690  0.8805 -0.2135  0.7598
11731TIP3   OH256607   4.286   2.870   5.779 -0.4875  0.6334  0.3251
11731TIP3    H156608   4.369   2.830   5.755 -0.3170 -0.2486  2.2407
11731TIP3    H256609   4.299   2.964   5.765  0.8276  0.5052  0.5978
11732TIP3   OH256610   4.546   1.116  15.466  0.1670 -0.7723  0.4500
11732TIP3    H156611   4.540   1.113  15.371 -1.1495  1.1211  0.4062
11732TIP3    H256612   4.585   1.033  15.491  1.2134 -1.0161 -1.7835
11733TIP3   OH256613   2.694   6.572   1.470  0.0483 -0.2369  0.6546
11733TIP3    H156614   2.701   6.664   1.498 -1.6074 -0.0448  0.5540
11733TIP3    H256615   2.620   6.572   1.410 -0.7870 -1.8590  1.6295
11734TIP3   OH256616   5.543   3.762   4.305 -0.8707 -0.0776  0.2040
11734TIP3    H156617   5.594   3.754   4.225  0.4586 -1.8174  1.1496
11734TIP3    H256618   5.597   3.817   4.363 -1.2412  0.1352  0.3528
11735TIP3   OH256619   2.297   1.810   5.797 -0.4188  0.5495 -0.3467
11735TIP3    H156620   2.339   1.734   5.756 -0.2945  0.4374 -0.0110
11735TIP3    H256621   2.240   1.772   5.864  1.4876  0.8531  1.5437
11736TIP3   OH256622   6.535   3.512  10.677 -0.3847 -0.1716 -0.1775
11736TIP3    H156623   6.504   3.538  10.590 -0.0942 -0.6402 -0.4215
11736TIP3    H256624   6.474   3.556  10.737 -0.8342 -0.1685 -0.6213
11737TIP3   OH256625   1.924   1.458   0.874  0.6319  0.0538 -0.3115
11737TIP3    H156626   2.000   1.417   0.916 -0.8989 -2.4502  0.1794
11737TIP3    H256627   1.851   1.441   0.933 -0.2233  3.4098 -0.1826
11738TIP3   OH256628   0.549   0.676  14.656  0.4570  0.4229 -0.3088
11738TIP3    H156629   0.529   0.629  14.575 -0.4990  0.1986  0.0427
11738TIP3    H256630   0.567   0.607  14.720 -1.8342  0.4364  0.4419
11739TIP3   OH256631   2.624   0.602  16.960  0.1315  0.1306  0.5924
11739TIP3    H156632   2.598   0.600  16.868  0.8568  2.1910  0.2864
11739TIP3    H256633   2.588   0.521  16.997 -1.1223 -0.2096 -1.2377
11740TIP3   OH256634   0.336   2.000   3.084 -0.1581  0.3996 -0.1647
11740TIP3    H156635   0.258   1.948   3.101  0.3021 -0.0285  0.7157
11740TIP3    H256636   0.407   1.935   3.080  0.2247  0.8324 -0.4311
11741TIP3   OH256637   3.697   3.272  16.272 -0.3604  0.0397  0.1606
11741TIP3    H156638   3.729   3.328  16.201  1.0747 -1.0800 -0.0981
11741TIP3    H256639   3.612   3.310  16.294 -0.7433  0.5711 -1.9728
11742TIP3   OH256640   2.745   1.722  13.431 -0.4300 -0.3341 -0.0631
11742TIP3    H156641   2.673   1.782  13.451 -1.5374 -1.6446 -0.0297
11742TIP3    H256642   2.780   1.697  13.517 -2.7876 -3.0592  0.2320
11743TIP3   OH256643   3.723   4.535  15.395  0.3660 -0.1382  0.2159
11743TIP3    H156644   3.760   4.622  15.384 -0.2263 -0.0272 -1.0451
11743TIP3    H256645   3.798   4.476  15.385  0.4353  0.1429 -1.1208
11744TIP3   OH256646   0.038   1.357  14.964  0.1773 -0.0278 -0.0723
11744TIP3    H156647   0.029   1.263  14.947  0.7983 -0.4675  1.7807
11744TIP3    H256648  -0.032   1.377  15.026 -0.7207  1.0311 -1.3786
11745TIP3   OH256649   2.741   1.250   0.764  0.5793 -0.1792 -0.1466
11745TIP3    H156650   2.757   1.326   0.708  1.9066  0.1872  0.6953
11745TIP3    H256651   2.667   1.276   0.820  2.6855  1.6283  2.0187
11746TIP3   OH256652   4.794   2.436  11.959 -0.0443  0.3799 -0.0389
11746TIP3    H156653   4.725   2.462  11.899  1.0618 -0.5542 -1.8049
11746TIP3    H256654   4.876   2.457  11.913  0.8467 -0.4201  1.1122
11747TIP3   OH256655   4.340   5.056  11.403  0.1534  0.2582 -0.0694
11747TIP3    H156656   4.315   5.079  11.314  0.9388 -0.2560 -0.4363
11747TIP3    H256657   4.258   5.059  11.453 -0.9785 -2.7257 -1.4893
11748TIP3   OH256658   4.086   3.463   4.445 -0.7414 -0.0720 -0.0121
11748TIP3    H156659   4.041   3.415   4.514 -0.4432 -0.0963  0.1703
11748TIP3    H256660   4.041   3.547   4.441 -1.5210 -0.5031 -0.6041
11749TIP3   OH256661   2.458   4.585  15.645  0.2715 -0.3207 -0.0419
11749TIP3    H156662   2.531   4.525  15.630  1.4689  0.4640  2.1446
11749TIP3    H256663   2.497   4.659  15.692 -1.4967  1.3321 -1.0333
11750TIP3   OH256664   4.018   5.612  11.690  0.2777  0.0136 -0.3449
11750TIP3    H156665   3.947   5.635  11.630  0.7578 -0.5017 -1.1414
11750TIP3    H256666   4.071   5.549  11.641  0.5914 -0.5596  0.6940
11751TIP3   OH256667   4.203   0.428   1.101 -0.0161  0.3253  1.2715
11751TIP3    H156668   4.117   0.398   1.072  0.0754  0.3537  0.9716
11751TIP3    H256669   4.213   0.391   1.189  0.4785 -1.2912  0.5572
11752TIP3   OH256670   6.133   6.616  16.437  0.4083 -0.5202 -0.0290
11752TIP3    H156671   6.054   6.562  16.435 -1.5682  2.0744  1.9445
11752TIP3    H256672   6.181   6.586  16.514 -1.2708  1.1376  1.7657
11753TIP3   OH256673   0.377   4.182   3.341  0.2702 -0.0777 -0.4123
11753TIP3    H156674   0.472   4.175   3.327  0.1971 -0.9262 -0.5397
11753TIP3    H256675   0.339   4.115   3.284 -0.1861 -1.9595  1.9372
11754TIP3   OH256676   2.977   0.743  12.784 -0.2926 -0.1029 -0.5277
11754TIP3    H156677   2.989   0.688  12.861  0.7287  0.5045 -0.2277
11754TIP3    H256678   3.062   0.742  12.740 -0.8526 -0.4298 -1.6591
11755TIP3   OH256679   1.166   0.621  16.518  0.6336  0.1002 -0.0632
11755TIP3    H156680   1.100   0.554  16.538 -1.0538  1.1073 -1.8247
11755TIP3    H256681   1.194   0.600  16.429  2.6111 -0.1949  0.5983
11756TIP3   OH256682   1.968   1.567  12.908  0.0041 -0.0814  0.5148
11756TIP3    H156683   2.039   1.614  12.951 -0.6819  0.7604  0.7284
11756TIP3    H256684   1.888   1.596  12.952 -0.6588  0.3537 -0.9030
11757TIP3   OH256685   5.053   5.590  15.905 -0.1770  0.3752  0.0646
11757TIP3    H156686   5.010   5.663  15.951  0.9619  0.9832  0.1837
11757TIP3    H256687   4.989   5.565  15.838 -0.2186  2.1267 -0.6219
11758TIP3   OH256688   3.072   2.409   1.618  0.3683  0.0029 -0.2338
11758TIP3    H156689   3.148   2.353   1.630 -0.7447 -1.9520 -1.7326
11758TIP3    H256690   3.087   2.452   1.533  0.7313  1.2334  0.4299
11759TIP3   OH256691   1.421   2.669  16.168 -0.1126 -0.1988  0.5713
11759TIP3    H156692   1.382   2.727  16.234 -0.4381  0.5404 -0.2458
11759TIP3    H256693   1.498   2.717  16.136 -0.1155 -0.4174  0.2296
11760TIP3   OH256694   0.077   0.537  14.558  0.5709  0.8844 -0.3734
11760TIP3    H156695   0.154   0.587  14.531  0.9127  0.5030 -0.1175
11760TIP3    H256696   0.061   0.564  14.649  2.2563 -1.2381  0.6491
11761TIP3   OH256697   1.208   0.462  13.715  0.1082 -0.3596 -0.2331
11761TIP3    H156698   1.194   0.398  13.785 -1.7550 -0.9860 -1.1242
11761TIP3    H256699   1.264   0.529  13.755  1.3561 -2.0506  1.0027
11762TIP3   OH256700   0.079   0.329   6.078 -0.1547  0.4076 -0.1168
11762TIP3    H156701   0.002   0.354   6.129 -0.7831 -0.8234 -0.4124
11762TIP3    H256702   0.121   0.412   6.054 -1.4620  1.1005 -0.0622
11763TIP3   OH256703   4.771   5.817   4.557 -0.3624 -0.6181  0.0659
11763TIP3    H156704   4.805   5.770   4.481 -0.1936 -1.6950  0.7845
11763TIP3    H256705   4.792   5.909   4.540 -0.5651 -0.7997 -1.3000
11764TIP3   OH256706   1.525   2.387   0.379 -0.2396 -0.0277  0.0321
11764TIP3    H156707   1.563   2.459   0.428  1.1140 -0.4911 -0.3105
11764TIP3    H256708   1.430   2.403   0.382 -0.0225  1.1762  0.8403
11765TIP3   OH256709   1.769   1.690   0.980 -0.4980 -0.0594  0.0803
11765TIP3    H156710   1.701   1.689   1.048 -0.2553 -0.7777  0.3265
11765TIP3    H256711   1.728   1.646   0.906 -0.1870 -0.8387  0.3579
11766TIP3   OH256712   2.617   1.993  16.987  0.1228  0.7179  0.1538
11766TIP3    H156713   2.578   1.916  16.945  2.4010 -0.6565  0.3664
11766TIP3    H256714   2.575   2.067  16.945 -1.4647 -0.6229 -0.7633
11767TIP3   OH256715   2.939   1.194   1.346  1.3213 -0.8223 -0.3210
11767TIP3    H156716   2.977   1.244   1.274 -1.2330  0.1389 -1.1024
11767TIP3    H256717   2.972   1.105   1.333  0.0571 -0.9669 -3.4233
11768TIP3   OH256718   4.619   2.627   4.174  0.6617 -0.4757  0.2518
11768TIP3    H156719   4.558   2.698   4.195  2.9407  1.7349 -0.1586
11768TIP3    H256720   4.622   2.574   4.254  1.0322  1.5787  1.6956
11769TIP3   OH256721   4.761   4.879   0.961 -0.3231 -0.0412 -0.3504
11769TIP3    H156722   4.829   4.919   1.016 -1.2065  2.9309 -1.2484
11769TIP3    H256723   4.806   4.806   0.918  1.6719  0.4549  0.7491
11770TIP3   OH256724   5.334   3.985  13.532 -0.4821  0.1628 -0.3195
11770TIP3    H156725   5.316   3.980  13.626  0.4050  2.5704  0.0587
11770TIP3    H256726   5.250   4.008  13.493 -1.1162 -1.9485 -0.3150
11771TIP3   OH256727   5.588   5.341   3.769 -0.2315 -0.1911 -0.4869
11771TIP3    H156728   5.526   5.378   3.832 -0.1675  0.2423 -0.6700
11771TIP3    H256729   5.579   5.246   3.778 -2.4243 -0.1930 -1.9861
11772TIP3   OH256730   0.722   5.754  14.279  0.0064  0.8301  0.0154
11772TIP3    H156731   0.724   5.698  14.356 -2.4157  0.4634 -0.1193
11772TIP3    H256732   0.738   5.842  14.314 -2.1530  0.8228  1.1533
11773TIP3   OH256733   6.399   2.690   3.285 -0.0670  0.1039 -0.0651
11773TIP3    H156734   6.383   2.659   3.374 -0.3444  0.5108  0.0284
11773TIP3    H256735   6.326   2.653   3.234  0.1903 -0.2789 -0.1628
11774TIP3   OH256736   1.325   1.286   0.702 -0.0936 -0.0029  0.2157
11774TIP3    H156737   1.413   1.250   0.715 -0.2246 -0.2746  0.3607
11774TIP3    H256738   1.338   1.364   0.647  0.1665 -0.4107 -0.3080
11775TIP3   OH256739   6.133   2.553   2.162  0.0411 -0.4567 -0.3829
11775TIP3    H156740   6.123   2.630   2.218 -2.4256 -2.0585  1.5859
11775TIP3    H256741   6.217   2.516   2.187  0.2891  0.4372  0.1669
11776TIP3   OH256742   2.664   4.171  14.057 -0.1808 -0.4413  0.3066
11776TIP3    H156743   2.627   4.108  14.119  0.5875  0.7555  2.0825
11776TIP3    H256744   2.589   4.221  14.025 -0.5419 -0.7154  0.7119
11777TIP3   OH256745   1.899   1.395  16.700 -0.1327 -0.5710  0.1632
11777TIP3    H156746   1.942   1.323  16.655  0.3560 -0.6594  0.7520
11777TIP3    H256747   1.822   1.415  16.647 -0.2728 -1.5283 -0.0111
11778TIP3   OH256748   0.481   1.118  14.504  0.0243  0.0570 -0.0838
11778TIP3    H156749   0.426   1.050  14.465  0.6788 -1.5035  1.5503
11778TIP3    H256750   0.521   1.075  14.580 -0.8636  2.7457  2.0682
11779TIP3   OH256751   1.988   4.062   3.192 -0.6921  1.1419  0.2854
11779TIP3    H156752   2.026   4.084   3.277  0.8381 -0.8378  0.1821
11779TIP3    H256753   1.909   4.011   3.214 -0.7439  1.3166  0.5094
11780TIP3   OH256754   0.171   4.496   0.727 -0.2084 -0.2325  0.5217
11780TIP3    H156755   0.108   4.445   0.675 -0.2577  0.4591 -0.1065
11780TIP3    H256756   0.116   4.558   0.776 -0.1615 -0.8579  1.4006
11781TIP3   OH256757   0.889   0.149   6.121  0.1753  0.3154  0.5762
11781TIP3    H156758   0.819   0.110   6.068 -0.1414  1.2013  0.3229
11781TIP3    H256759   0.881   0.105   6.206 -1.9699  1.6898  1.1917
11782TIP3   OH256760   3.771   1.332  13.755 -0.0627  0.3387  0.2851
11782TIP3    H156761   3.789   1.308  13.846 -0.8365 -1.0783  0.0807
11782TIP3    H256762   3.857   1.336  13.713  0.2343  0.1993  0.8750
11783TIP3   OH256763   0.568   5.047  17.029 -0.0457  0.0596  0.3711
11783TIP3    H156764   0.653   5.004  17.021  1.0130  1.4815  2.8897
11783TIP3    H256765   0.581   5.113  17.098 -2.6158  1.7713 -0.6438
11784TIP3   OH256766   2.410   3.365   1.486  0.0608 -0.1059 -0.2032
11784TIP3    H156767   2.480   3.353   1.423 -0.0395  1.2626 -0.6001
11784TIP3    H256768   2.418   3.291   1.545  1.1105 -0.5856 -0.9215
11785TIP3   OH256769   4.818   0.450   0.567  0.4662 -0.3795 -0.1737
11785TIP3    H156770   4.814   0.499   0.650  1.1241  0.3584 -0.5599
11785TIP3    H256771   4.879   0.378   0.585  0.4388 -0.3476  0.0484
11786TIP3   OH256772   5.667   1.022  13.844  0.1950  0.3380 -0.5271
11786TIP3    H156773   5.586   1.058  13.805 -0.7166 -0.8549  0.2013
11786TIP3    H256774   5.636   0.961  13.910  1.7246 -0.2403 -0.3209
11787TIP3   OH256775   4.847   3.225   5.127  1.0319  0.4806  0.1618
11787TIP3    H156776   4.895   3.243   5.047 -0.6747  2.2626 -0.5229
11787TIP3    H256777   4.828   3.311   5.165  0.9799 -0.2813  2.0020
11788TIP3   OH256778   2.139   6.260   3.394 -0.3603 -0.4056 -0.2332
11788TIP3    H156779   2.097   6.184   3.436  0.1422 -0.1553  0.7523
11788TIP3    H256780   2.214   6.279   3.450 -0.3052  0.6305 -0.6507
11789TIP3   OH256781   1.495   5.545   3.251 -0.2498  0.3540 -0.1291
11789TIP3    H156782   1.477   5.460   3.211 -0.6788  0.7305 -0.7554
11789TIP3    H256783   1.526   5.524   3.339 -0.1098 -0.4576 -0.3617
11790TIP3   OH256784   2.074   5.870   2.715 -0.2127  0.1655 -0.3223
11790TIP3    H156785   2.144   5.921   2.756 -1.8738  3.3681 -1.1195
11790TIP3    H256786   2.044   5.926   2.643 -2.6298 -1.7419 -0.8995
11791TIP3   OH256787   3.795   3.030   0.951 -0.5088  0.0111 -0.1383
11791TIP3    H156788   3.753   3.044   1.036 -0.3225 -0.0752 -0.0327
11791TIP3    H256789   3.741   3.081   0.889  1.0827  2.6286  0.4719
11792TIP3   OH256790   4.856   5.603   0.167  0.0075 -0.0145 -0.0359
11792TIP3    H156791   4.797   5.528   0.179 -0.7731  0.4306 -0.9301
11792TIP3    H256792   4.875   5.603   0.073 -1.3693  1.8954 -0.3565
11793TIP3   OH256793   1.872   5.060  12.174 -0.5957  0.3602  0.2204
11793TIP3    H156794   1.895   5.121  12.244  2.1380  1.6746 -1.6697
11793TIP3    H256795   1.955   5.030  12.138 -1.8372 -3.2724 -0.0932
11794TIP3   OH256796   3.581   0.445  11.482  0.5090 -0.5693  0.1478
11794TIP3    H156797   3.577   0.384  11.408  1.1237 -0.2946 -0.1188
11794TIP3    H256798   3.514   0.510  11.464  0.8965 -0.3006 -0.3575
11795TIP3   OH256799   5.307   3.169   5.990 -0.6853 -0.5665  0.2066
11795TIP3    H156800   5.230   3.136   6.036 -1.9239  0.0404 -1.3269
11795TIP3    H256801   5.274   3.242   5.937  0.7967 -0.7239 -1.0096
11796TIP3   OH256802   1.360   4.505  17.139  0.0312  0.6963 -0.0942
11796TIP3    H156803   1.402   4.454  17.208 -0.7042 -0.1114 -0.2179
11796TIP3    H256804   1.333   4.586  17.182  1.8278  1.3141 -0.0591
11797TIP3   OH256805   1.459   6.009  13.513 -0.2416  0.1230  0.0234
11797TIP3    H156806   1.365   6.026  13.503  0.0047  2.4091  0.8544
11797TIP3    H256807   1.469   5.980  13.604 -0.1455 -0.2276 -0.0971
11798TIP3   OH256808   1.271   4.646   4.984 -0.6091  0.0423  0.3340
11798TIP3    H156809   1.330   4.635   5.059  0.3972  2.9280  0.0839
11798TIP3    H256810   1.321   4.698   4.922 -2.1204 -0.6701 -1.5828
11799TIP3   OH256811   0.703   2.092   3.458  0.8808  0.4448  0.4521
11799TIP3    H156812   0.687   2.036   3.534  1.0299 -0.7119 -0.3308
11799TIP3    H256813   0.786   2.060   3.422  0.2210  0.1387 -0.8822
11800TIP3   OH256814   4.604   4.640  15.982  0.3632 -0.1948  0.2173
11800TIP3    H156815   4.540   4.666  16.048 -1.1638  0.7705 -1.5629
11800TIP3    H256816   4.689   4.656  16.024 -0.5456  1.3215  1.5967
11801TIP3   OH256817   3.500   2.589   0.002  0.4531 -0.4026 -0.2716
11801TIP3    H156818   3.460   2.530   0.066 -0.5349 -0.3578 -0.8353
11801TIP3    H256819   3.510   2.671   0.049 -0.4475 -0.3137 -0.2300
11802TIP3   OH256820   1.588   4.299  14.230 -0.3134  0.1562 -0.0763
11802TIP3    H156821   1.650   4.322  14.300  0.7615 -0.7428 -0.6906
11802TIP3    H256822   1.504   4.288  14.275 -0.1413  1.8326  0.7104
11803TIP3   OH256823   2.467   0.666   1.197 -0.1209 -0.1199  0.6077
11803TIP3    H156824   2.502   0.729   1.259 -1.5935 -0.9093  2.3441
11803TIP3    H256825   2.518   0.586   1.211 -0.0525 -0.1213  0.3608
11804TIP3   OH256826   5.155   4.861  15.094 -0.2677  0.2329  0.4490
11804TIP3    H156827   5.136   4.932  15.156 -0.4035  1.4179 -0.9134
11804TIP3    H256828   5.076   4.854  15.042  0.6480  0.8108 -1.0693
11805TIP3   OH256829   2.539   4.958   4.487  0.0429 -0.4235 -0.0683
11805TIP3    H156830   2.477   5.027   4.466  0.4731 -0.2079 -0.6683
11805TIP3    H256831   2.485   4.882   4.510 -0.6696  1.2763  5.3680
11806TIP3   OH256832   0.694   6.393   3.974 -0.1850  0.1431  0.2759
11806TIP3    H156833   0.662   6.315   3.928  0.7371 -0.3137  0.3914
11806TIP3    H256834   0.695   6.368   4.066  2.4836 -0.6288  0.1197
11807TIP3   OH256835   3.522   2.530   2.065 -0.6337 -0.2301  0.3622
11807TIP3    H156836   3.434   2.559   2.044  0.2264  0.7371 -2.2739
11807TIP3    H256837   3.556   2.493   1.984  1.0083 -1.6975  1.6172
11808TIP3   OH256838   6.077   1.288   6.668 -0.4525 -0.1133  0.1851
11808TIP3    H156839   6.154   1.328   6.627  0.0156 -1.9686 -0.8756
11808TIP3    H256840   6.110   1.254   6.751  0.3731 -2.3252 -0.9605
11809TIP3   OH256841   2.512   0.089  14.486  0.4654 -0.1142 -0.3312
11809TIP3    H156842   2.447   0.066  14.419 -0.9886  0.4046  0.8466
11809TIP3    H256843   2.491   0.033  14.561  1.1410  0.3371  0.2081
11810TIP3   OH256844   0.919   5.379  14.264  0.2326  0.5855  0.2122
11810TIP3    H156845   0.873   5.392  14.347  0.1053 -1.8921  0.6027
11810TIP3    H256846   0.940   5.285  14.263 -0.5232  0.3663 -2.9402
11811TIP3   OH256847   0.061   1.797   1.961 -0.1932 -0.6243 -0.2213
11811TIP3    H156848  -0.014   1.738   1.966 -2.1244  1.7480  0.7624
11811TIP3    H256849   0.095   1.800   2.050 -0.7103  0.4475 -0.0521
11812TIP3   OH256850   6.630   5.828  13.380 -0.2672  0.8503 -0.6366
11812TIP3    H156851   6.588   5.750  13.344 -1.1634  1.6713 -1.4051
11812TIP3    H256852   6.560   5.894  13.383  0.1759  1.3091  1.0693
11813TIP3   OH256853   5.180   1.329  11.456  0.2812  0.1233  0.3809
11813TIP3    H156854   5.224   1.411  11.479 -2.1646  1.4321  0.7389
11813TIP3    H256855   5.108   1.356  11.399 -0.0139 -1.9164 -0.2950
11814TIP3   OH256856   4.749   1.250  13.857 -0.2206 -0.1924  0.4540
11814TIP3    H156857   4.709   1.257  13.770  0.0401  0.5233  0.3881
11814TIP3    H256858   4.716   1.327  13.904  0.5344  0.0386  0.6185
11815TIP3   OH256859   4.657   3.071  12.675 -0.0061 -0.1689  0.0808
11815TIP3    H156860   4.708   3.072  12.757 -1.1922 -0.3696  0.8397
11815TIP3    H256861   4.575   3.029  12.699 -0.4206 -0.1115 -1.2050
11816TIP3   OH256862   5.743   1.862  16.653  0.7388  0.0668 -0.4136
11816TIP3    H156863   5.799   1.930  16.691 -0.4120  0.7172  0.1472
11816TIP3    H256864   5.684   1.837  16.724 -1.7134  1.5750 -1.8136
11817TIP3   OH256865   3.690   4.278  16.062 -0.2533 -0.8121  0.1051
11817TIP3    H156866   3.613   4.289  16.006  0.0841 -2.2140 -0.6710
11817TIP3    H256867   3.730   4.196  16.034  2.0017  0.2467 -0.0640
11818TIP3   OH256868   2.141   1.640  11.055 -0.1652 -0.0486  0.1230
11818TIP3    H156869   2.070   1.609  10.999  0.9049  1.9925 -2.5624
11818TIP3    H256870   2.220   1.598  11.022  0.1877 -0.9323  1.9392
11819TIP3   OH256871   6.191   3.438   1.447 -0.2033  0.1006  0.2083
11819TIP3    H156872   6.147   3.492   1.382 -0.8923  0.5175  1.0106
11819TIP3    H256873   6.233   3.500   1.507 -0.6049 -0.2512  0.8678
11820TIP3   OH256874   0.530   3.810  15.238 -0.2740 -0.3785  0.1191
11820TIP3    H156875   0.512   3.823  15.145  1.4872  0.3670 -0.1452
11820TIP3    H256876   0.443   3.812  15.279 -0.9181  2.0556 -1.1625
11821TIP3   OH256877   0.702   4.785  12.575 -0.1950  0.7376 -0.3595
11821TIP3    H156878   0.683   4.863  12.627  1.5096 -0.0972  1.6568
11821TIP3    H256879   0.635   4.722  12.602 -0.1372  0.7468 -0.1924
11822TIP3   OH256880   3.639   0.168   1.937 -0.1705  0.0035  0.0776
11822TIP3    H156881   3.712   0.182   1.877 -0.8357  1.3376 -0.4908
11822TIP3    H256882   3.614   0.077   1.924  1.8411 -0.7011  0.8543
11823TIP3   OH256883   1.322   5.327  15.530  0.7122 -0.1143  0.1049
11823TIP3    H156884   1.325   5.235  15.557  0.6056  0.1838  1.1576
11823TIP3    H256885   1.300   5.323  15.436 -0.4735 -1.1361  0.3869
11824TIP3   OH256886   6.131   1.285  11.720  0.3439  0.6121  0.1858
11824TIP3    H156887   6.176   1.351  11.666  0.4749  0.2071 -0.2095
11824TIP3    H256888   6.149   1.202  11.675  0.4994  0.2609  0.8907
11825TIP3   OH256889   1.764   6.759  12.472  0.3400 -0.1689  0.0279
11825TIP3    H156890   1.703   6.832  12.464 -0.2166 -0.7896 -2.2513
11825TIP3    H256891   1.713   6.689  12.514  0.8380  0.6373  2.0968
11826TIP3   OH256892   0.379   1.763   5.748  0.0707  0.2568  0.4070
11826TIP3    H156893   0.370   1.817   5.669  0.1877 -0.2985  0.0074
11826TIP3    H256894   0.446   1.699   5.726  0.4076  0.3644  1.1156
11827TIP3   OH256895   1.270   3.931  10.383  0.3812 -0.1196  0.2238
11827TIP3    H156896   1.315   4.007  10.419  1.0308 -0.7971  0.8706
11827TIP3    H256897   1.336   3.862  10.382  0.1223 -0.3936 -1.3905
11828TIP3   OH256898   4.778   2.589  14.610 -0.2796 -0.1056 -0.2966
11828TIP3    H156899   4.753   2.663  14.556 -0.1626 -0.5749 -1.0174
11828TIP3    H256900   4.874   2.590  14.609 -0.2642 -0.8175 -1.1205
11829TIP3   OH256901   4.666   4.744   6.774 -0.1506  0.8771  0.4122
11829TIP3    H156902   4.715   4.676   6.729 -0.9606  0.5361  0.0319
11829TIP3    H256903   4.628   4.797   6.704 -0.4576  1.0392  0.6971
11830TIP3   OH256904   0.681   5.484   1.926  0.8033  0.4637  1.0777
11830TIP3    H156905   0.685   5.567   1.879  1.0042  1.2353  2.3939
11830TIP3    H256906   0.588   5.467   1.940  0.5492 -1.0294 -1.6215
11831TIP3   OH256907   5.870   4.046   4.969  0.6288  0.8861  0.0471
11831TIP3    H156908   5.815   3.974   4.937  1.1425  0.9832 -1.0698
11831TIP3    H256909   5.942   4.002   5.014 -0.0051  0.7531  0.9921
11832TIP3   OH256910   4.070   3.365   0.130 -0.0593 -0.1242  0.4466
11832TIP3    H156911   3.975   3.367   0.113  0.4481  1.9109 -3.1767
11832TIP3    H256912   4.103   3.300   0.068  1.0802  0.4734  0.4069
11833TIP3   OH256913   6.674   4.981   1.400 -0.4695 -1.0206 -0.5204
11833TIP3    H156914   6.710   4.927   1.329  3.6654 -0.5118  0.8810
11833TIP3    H256915   6.644   4.919   1.465  0.8844 -1.6420 -0.4530
11834TIP3   OH256916   3.366   3.445   3.015 -0.3740 -0.5305 -0.0894
11834TIP3    H156917   3.385   3.447   2.921  1.3443  0.2447  0.2272
11834TIP3    H256918   3.391   3.356   3.043 -1.4908 -0.9779 -0.4421
11835TIP3   OH256919   5.945   5.258   2.109 -0.2873 -0.6246 -0.7920
11835TIP3    H156920   5.871   5.199   2.124 -0.8646  0.2193 -0.2464
11835TIP3    H256921   5.935   5.286   2.018  0.6541 -2.2352 -1.4464
11836TIP3   OH256922   0.484   0.933   4.067 -0.0223 -0.5051 -0.1684
11836TIP3    H156923   0.516   0.847   4.038 -0.9155 -0.6019 -0.9196
11836TIP3    H256924   0.562   0.977   4.102  0.4491 -1.6189  0.2489
11837TIP3   OH256925   6.073   1.317  11.237  0.2013 -0.4201  0.2766
11837TIP3    H156926   6.028   1.391  11.277  0.1589  0.3302 -1.0811
11837TIP3    H256927   6.163   1.324  11.268  0.3311  0.5507 -0.2823
11838TIP3   OH256928   5.331   4.295  14.699  0.3123 -0.5861 -0.3059
11838TIP3    H156929   5.424   4.302  14.722  0.5746 -0.0485 -1.4553
11838TIP3    H256930   5.299   4.385  14.705 -0.8504 -1.0774  2.7519
11839TIP3   OH256931   5.552   2.496   5.702  0.1783 -0.1579  0.1330
11839TIP3    H156932   5.555   2.400   5.705  0.5121 -0.1323  1.3014
11839TIP3    H256933   5.614   2.523   5.769  0.4492  0.8916 -0.5225
11840TIP3   OH256934   4.776   5.262   2.497  0.2462  0.0920  0.2405
11840TIP3    H156935   4.787   5.259   2.592  0.3760 -1.9628  0.2092
11840TIP3    H256936   4.808   5.177   2.467 -1.1344  0.1419 -1.5007
11841TIP3   OH256937   2.359   3.018   4.390 -0.1000  0.3427 -0.2051
11841TIP3    H156938   2.353   3.043   4.482  1.0828 -2.0183  0.6212
11841TIP3    H256939   2.453   3.022   4.370 -0.3426  0.8503 -1.3431
11842TIP3   OH256940   0.712   4.255  13.265  0.1797  0.2649 -0.4379
11842TIP3    H156941   0.724   4.333  13.211  1.3926 -0.1070 -0.7528
11842TIP3    H256942   0.630   4.270  13.311 -0.1070  1.2829 -1.2291
11843TIP3   OH256943   1.687   5.465  16.764  0.0029  0.0045 -0.0368
11843TIP3    H156944   1.657   5.545  16.721 -0.5346 -0.2582 -0.1599
11843TIP3    H256945   1.652   5.394  16.710 -0.5911 -0.3301  0.7604
11844TIP3   OH256946   4.453   0.904   5.139  0.2852  0.3358  0.1404
11844TIP3    H156947   4.425   0.995   5.132  0.1651  0.2569 -0.3857
11844TIP3    H256948   4.373   0.856   5.162 -0.3615 -0.0832 -2.6466
11845TIP3   OH256949   4.335   1.008   1.512  0.2735  0.3069  0.1184
11845TIP3    H156950   4.297   0.958   1.584  3.1784 -0.5305  1.2207
11845TIP3    H256951   4.310   0.959   1.433 -0.8769 -0.1743  0.7628
11846TIP3   OH256952   6.701   4.992   3.217  0.4830 -0.9606  0.4770
11846TIP3    H156953   6.667   5.051   3.150  1.7487 -1.6897 -0.8456
11846TIP3    H256954   6.758   4.931   3.170  3.2654 -0.1040  2.4827
11847TIP3   OH256955   4.227   6.499   4.049 -0.6681 -0.9844 -0.1239
11847TIP3    H156956   4.150   6.447   4.072 -1.3656 -0.0715 -0.3491
11847TIP3    H256957   4.198   6.554   3.976  0.4493 -1.2328 -0.7822
11848TIP3   OH256958   0.522   0.372  13.635  0.5585 -0.3668  0.3018
11848TIP3    H156959   0.468   0.327  13.569  0.4100  1.4749 -0.9223
11848TIP3    H256960   0.520   0.315  13.711 -0.2853 -2.0037 -0.8878
11849TIP3   OH256961   6.111   0.859  11.428 -0.4264  0.5936 -0.2620
11849TIP3    H156962   6.083   0.942  11.390  1.0329  0.2459 -2.2266
11849TIP3    H256963   6.205   0.854  11.411 -0.5699 -1.7067 -0.7734
11850TIP3   OH256964   2.478   5.960   4.388  0.4248  0.3217 -0.4403
11850TIP3    H156965   2.546   5.905   4.427 -0.9861 -0.8723  0.4402
11850TIP3    H256966   2.400   5.904   4.385 -0.6846  1.8144 -0.8760
11851TIP3   OH256967   2.149   6.192   4.612 -0.4886 -0.1754 -0.2941
11851TIP3    H156968   2.095   6.265   4.641 -0.4909  0.2920 -1.4453
11851TIP3    H256969   2.223   6.191   4.673 -1.2980 -0.2368  0.7119
11852TIP3   OH256970   2.619   6.527   2.064 -0.0019  0.2263  0.7558
11852TIP3    H156971   2.702   6.482   2.079 -0.3967 -0.0096  2.3830
11852TIP3    H256972   2.628   6.565   1.976  0.7835 -2.0520 -0.2167
11853TIP3   OH256973   3.615   0.113   5.123  0.7608 -0.3369  0.3324
11853TIP3    H156974   3.656   0.028   5.107  0.4967 -0.6355  1.1449
11853TIP3    H256975   3.666   0.175   5.072  1.3940 -0.8930  0.2769
11854TIP3   OH256976   5.440   0.623   1.960  0.1320  0.5594  0.5443
11854TIP3    H156977   5.383   0.550   1.939  0.5444 -0.4614  2.7448
11854TIP3    H256978   5.482   0.645   1.876  1.7493 -3.2493  0.1390
11855TIP3   OH256979   1.694   4.454  14.884  0.5698 -0.1571  0.5996
11855TIP3    H156980   1.620   4.394  14.874 -0.4326  0.9077  1.3652
11855TIP3    H256981   1.685   4.514  14.810  1.0249 -0.3799  0.3601
11856TIP3   OH256982   4.072   0.111   1.915  0.3620 -0.0676  0.6452
11856TIP3    H156983   4.153   0.086   1.871 -0.2494 -2.8260  0.9064
11856TIP3    H256984   4.101   0.157   1.994  1.5522  1.2296 -0.4860
11857TIP3   OH256985   6.522   5.369  14.841  0.0676 -0.0162 -0.6880
11857TIP3    H156986   6.538   5.460  14.867  1.1114  0.4145 -2.6169
11857TIP3    H256987   6.480   5.376  14.755 -1.5888 -1.3633 -0.0293
11858TIP3   OH256988   1.333   0.839  13.438  0.4151  0.0224  0.1206
11858TIP3    H156989   1.412   0.787  13.428  0.7197  0.3725  0.6514
11858TIP3    H256990   1.364   0.929  13.451 -0.0977  0.3205 -0.6076
11859TIP3   OH256991   4.516   5.240   3.865 -0.2979 -0.2596 -0.4367
11859TIP3    H156992   4.451   5.310   3.873 -0.9279 -0.8146 -0.6986
11859TIP3    H256993   4.598   5.286   3.848 -0.4201  0.5094  0.9062
11860TIP3   OH256994   4.318   5.684   2.217 -0.1194  0.3035 -0.3891
11860TIP3    H156995   4.389   5.697   2.155  0.9427  2.3951  1.1360
11860TIP3    H256996   4.357   5.633   2.288 -0.2544  1.0319  0.2221
11861TIP3   OH256997   2.507   3.950   2.818  0.5028  0.0432  0.2546
11861TIP3    H156998   2.445   3.879   2.834 -0.3600  0.4682 -0.9796
11861TIP3    H256999   2.580   3.932   2.876 -1.2075  0.0673  2.5642
11862TIP3   OH257000   2.886   2.428  14.809  0.1670 -0.5694 -0.3467
11862TIP3    H157001   2.964   2.408  14.860  0.5362  0.3703 -0.5266
11862TIP3    H257002   2.824   2.465  14.872  0.9999  1.5931 -0.6861
11863TIP3   OH257003   3.824   2.759   1.189  0.1629 -0.1327 -0.1133
11863TIP3    H157004   3.817   2.827   1.256 -2.4511 -0.6120  0.2154
11863TIP3    H257005   3.829   2.677   1.238 -2.1040 -0.5150 -0.4018
11864TIP3   OH257006   2.258   3.131   1.389 -0.4128 -0.2765  0.1602
11864TIP3    H157007   2.291   3.098   1.472 -0.9681 -0.5031  0.2963
11864TIP3    H257008   2.337   3.152   1.338 -0.0585  0.8201  1.1066
11865TIP3   OH257009   1.422   0.078  12.438 -0.2941  0.1892 -0.0405
11865TIP3    H157010   1.402   0.151  12.497  0.9897 -0.4174  1.2002
11865TIP3    H257011   1.503   0.103  12.395  0.7372 -0.9081  1.1739
11866TIP3   OH257012   5.434   5.206  16.683  0.3654 -0.6283  0.0355
11866TIP3    H157013   5.423   5.156  16.602  0.1026 -0.0717 -0.2863
11866TIP3    H257014   5.347   5.240  16.702  0.4612 -0.6228  0.4660
11867TIP3   OH257015   2.922   0.523   1.293 -0.2423 -0.4629  0.0222
11867TIP3    H157016   2.993   0.585   1.276  2.2556 -3.3712 -1.0897
11867TIP3    H257017   2.891   0.498   1.206 -0.5244 -1.4728  0.3988
11868TIP3   OH257018   2.056   0.880  13.243 -0.2298  0.5499 -0.0389
11868TIP3    H157019   2.144   0.903  13.212  0.1170  2.9704  2.3499
11868TIP3    H257020   2.062   0.787  13.267  1.7556  0.7267  0.2916
11869TIP3   OH257021   6.646   4.559   5.246  0.2805 -0.5605  0.0966
11869TIP3    H157022   6.588   4.608   5.305  0.5285 -2.2945  1.8715
11869TIP3    H257023   6.595   4.481   5.222  0.9069 -0.8037 -0.4697
11870TIP3   OH257024   6.276   5.207   5.158  0.0744  0.1024  0.4747
11870TIP3    H157025   6.205   5.228   5.097  0.0893 -1.2441 -0.0503
11870TIP3    H257026   6.270   5.273   5.227  0.1762  1.8053 -1.0650
11871TIP3   OH257027   6.489   2.405  16.011  0.7633 -0.2306 -0.0805
11871TIP3    H157028   6.490   2.483  16.067  1.3127 -0.5496  0.3706
11871TIP3    H257029   6.582   2.380  16.004  0.6941 -0.2498 -1.0620
11872TIP3   OH257030   0.286   3.064   4.038 -0.0948 -0.6211 -0.1312
11872TIP3    H157031   0.247   2.977   4.033 -1.7907  0.1072 -0.0806
11872TIP3    H257032   0.331   3.074   3.953  0.3313 -1.6147 -0.0428
11873TIP3   OH257033   3.672   3.491   2.279  0.5785  0.5123  0.3300
11873TIP3    H157034   3.638   3.557   2.219  0.7524 -0.7850 -1.2687
11873TIP3    H257035   3.598   3.435   2.299  0.7849  0.2704  0.4252
11874TIP3   OH257036   5.900   2.955   3.618 -0.2730 -0.5243 -0.2593
11874TIP3    H157037   5.913   2.898   3.694  0.9982 -0.1657 -0.1742
11874TIP3    H257038   5.829   3.013   3.643  0.1183 -0.4272  0.6628
11875TIP3   OH257039   1.628   4.446   2.061  0.3520 -0.3656 -0.0297
11875TIP3    H157040   1.698   4.450   2.125  0.4343  0.2181 -0.1441
11875TIP3    H257041   1.576   4.370   2.086  1.3166 -1.1176 -0.2535
11876TIP3   OH257042   2.983   1.819  12.314 -0.1571  0.0535  0.7375
11876TIP3    H157043   3.057   1.782  12.266 -1.3644  0.2929 -1.4020
11876TIP3    H257044   3.023   1.862  12.390  1.8837  0.1484 -0.3309
11877TIP3   OH257045   5.505   6.363   2.217 -0.7739  0.4498  0.6025
11877TIP3    H157046   5.600   6.377   2.223 -0.2526 -2.0954 -0.4703
11877TIP3    H257047   5.488   6.354   2.124 -1.8082 -0.5728  0.8698
11878TIP3   OH257048   2.282   1.663  15.330  0.4497  0.1498 -0.1377
11878TIP3    H157049   2.372   1.684  15.353  0.2759  2.0753 -0.9922
11878TIP3    H257050   2.243   1.748  15.308 -2.0254 -0.3805  1.7304
11879TIP3   OH257051   3.338   0.649  16.615 -0.4041  0.0760 -0.3254
11879TIP3    H157052   3.342   0.740  16.643  2.2253 -0.0999  0.1318
11879TIP3    H257053   3.291   0.651  16.532 -1.9792  1.5692  0.5504
11880TIP3   OH257054   5.417   1.050  10.957 -0.3684 -0.7864  0.0210
11880TIP3    H157055   5.454   1.042  10.869 -0.6642 -1.3857 -0.0530
11880TIP3    H257056   5.488   1.086  11.010  0.7343 -2.9570  0.1442
11881TIP3   OH257057   2.987   2.225   5.855  0.0890  0.3785  0.8629
11881TIP3    H157058   2.972   2.285   5.928  0.6755  1.2493  0.2751
11881TIP3    H257059   3.078   2.197   5.865 -0.7491 -2.1783  2.4031
11882TIP3   OH257060   6.322   4.414   2.319  0.3240  0.3665  0.0117
11882TIP3    H157061   6.288   4.391   2.233 -1.0265  0.0578  0.6003
11882TIP3    H257062   6.403   4.363   2.327  0.6988  0.7413 -1.2378
11883TIP3   OH257063   3.023   1.159   2.309  0.2136 -0.5509 -0.0491
11883TIP3    H157064   3.085   1.134   2.377 -0.1970 -0.0244  0.5297
11883TIP3    H257065   3.015   1.082   2.253  1.6589 -0.5066 -0.3457
11884TIP3   OH257066   3.634   6.435  15.473  0.2387  0.1972  0.0309
11884TIP3    H157067   3.612   6.471  15.559 -4.0414 -1.5337 -0.0931
11884TIP3    H257068   3.642   6.341  15.489  1.5262  0.0716 -1.1912
11885TIP3   OH257069   5.249   3.622  14.028 -0.2631 -0.2841  0.0972
11885TIP3    H157070   5.250   3.603  13.935  1.1347 -1.3295  0.2800
11885TIP3    H257071   5.193   3.554  14.067  0.3523 -0.7693  0.1590
11886TIP3   OH257072   1.824   6.376   0.767  0.1669 -0.4829 -0.1547
11886TIP3    H157073   1.848   6.345   0.854 -0.0274 -0.9126 -0.2500
11886TIP3    H257074   1.903   6.419   0.734  0.5760 -1.2162 -0.1658
11887TIP3   OH257075   3.405   6.506   6.063  0.5076  0.0214  0.4497
11887TIP3    H157076   3.356   6.586   6.081  0.4679 -0.3551  2.2268
11887TIP3    H257077   3.369   6.442   6.124  0.9691 -1.1864 -0.5129
11888TIP3   OH257078   1.901   4.165  11.879 -0.1938 -0.5928  0.3672
11888TIP3    H157079   1.946   4.242  11.915 -0.1107 -0.2433 -0.4580
11888TIP3    H257080   1.878   4.190  11.789 -0.7083 -1.3152  0.2847
11889TIP3   OH257081   0.313   1.716  13.580  0.4007 -0.1856 -0.3031
11889TIP3    H157082   0.373   1.659  13.629 -0.9360 -0.7879  0.7198
11889TIP3    H257083   0.226   1.691  13.612 -0.2636  2.2832  0.0286
11890TIP3   OH257084   3.782   4.660   1.040  0.4898  0.5164 -0.3567
11890TIP3    H157085   3.739   4.710   1.109  0.7468 -0.2599  0.3808
11890TIP3    H257086   3.862   4.627   1.081  0.1103 -0.8676 -0.6693
11891TIP3   OH257087   1.536   2.463   2.284  0.0158  0.6502  0.5674
11891TIP3    H157088   1.528   2.394   2.218 -0.3568  1.3088 -0.0997
11891TIP3    H257089   1.618   2.444   2.329  0.3921  0.3043 -0.2366
11892TIP3   OH257090   1.424   3.122   2.716  0.4844 -0.4430  0.0560
11892TIP3    H157091   1.510   3.114   2.674  0.6254  1.6760 -0.1442
11892TIP3    H257092   1.394   3.031   2.725  2.3517 -1.1877 -0.6493
11893TIP3   OH257093   4.804   5.634  14.114 -0.2243  0.0152  0.4850
11893TIP3    H157094   4.863   5.709  14.110 -1.1903  0.8968  1.7312
11893TIP3    H257095   4.723   5.665  14.073  0.0382 -1.0786 -0.9370
11894TIP3   OH257096   4.643   5.241   1.974  0.2987 -0.0919 -0.0122
11894TIP3    H157097   4.611   5.320   2.017 -2.7815 -0.7064 -0.9274
11894TIP3    H257098   4.688   5.273   1.895 -2.8814  0.8635 -1.6195
11895TIP3   OH257099   5.246   5.497  13.826 -0.0495  0.0643 -0.0147
11895TIP3    H157100   5.306   5.426  13.803  1.4979  0.6381  2.0353
11895TIP3    H257101   5.298   5.556  13.880 -1.6087  2.2253 -0.7467
11896TIP3   OH257102   4.535   0.444   3.434  0.3378  0.2505 -0.6576
11896TIP3    H157103   4.517   0.358   3.472  0.1987  0.9555  0.9628
11896TIP3    H257104   4.505   0.506   3.500  1.4436  1.5430 -1.3212
11897TIP3   OH257105   4.531   6.648   0.801  0.2050 -0.2257  0.3884
11897TIP3    H157106   4.581   6.729   0.786 -0.2820  0.2285  1.1052
11897TIP3    H257107   4.439   6.674   0.788  0.1219 -0.9761 -0.6171
11898TIP3   OH257108   3.649   3.769  16.232 -0.6156 -0.4517 -0.0310
11898TIP3    H157109   3.697   3.775  16.149  0.2576 -0.6296  0.4560
11898TIP3    H257110   3.589   3.695  16.219  0.8592 -1.7143  0.1608
11899TIP3   OH257111   6.428   4.864   0.648  0.1852  0.0608 -0.0288
11899TIP3    H157112   6.348   4.917   0.659  0.7081  0.9010 -0.1584
11899TIP3    H257113   6.492   4.905   0.706  0.5322 -0.5977  0.0583
11900TIP3   OH257114   3.857   4.527  11.168  0.2640 -0.5677 -0.5883
11900TIP3    H157115   3.939   4.575  11.156 -0.5182  0.4006 -2.3045
11900TIP3    H257116   3.880   4.436  11.149  1.0474 -0.4019 -0.4727
11901TIP3   OH257117   2.057   1.758   2.614  0.6670  0.1356  0.1415
11901TIP3    H157118   2.074   1.769   2.708  2.0991  1.0258 -0.1802
11901TIP3    H257119   1.984   1.818   2.596  1.7156  1.5281  0.3423
11902TIP3   OH257120   3.764   5.180  17.103 -0.2094 -0.1889 -0.1668
11902TIP3    H157121   3.683   5.133  17.082  0.0922 -1.3662  1.1183
11902TIP3    H257122   3.735   5.264  17.137 -0.8686 -0.4075 -0.1774
11903TIP3   OH257123   6.189   5.750  16.083  0.5179  0.1946 -0.0064
11903TIP3    H157124   6.196   5.737  15.989  1.0113  0.8478 -0.0673
11903TIP3    H257125   6.101   5.785  16.096  0.0388 -0.9288 -0.0900
11904TIP3   OH257126   1.986   4.227  11.348 -0.1411 -0.0330 -0.2395
11904TIP3    H157127   2.040   4.277  11.286 -0.9932  0.8369 -0.3053
11904TIP3    H257128   2.041   4.220  11.426  0.4177  0.0538 -0.6175
11905TIP3   OH257129   2.018   4.519   0.507 -0.7603 -0.3792 -0.0357
11905TIP3    H157130   2.019   4.521   0.602 -0.6388  1.3421 -0.0487
11905TIP3    H257131   1.944   4.574   0.482  1.4635  2.4817 -0.9271
11906TIP3   OH257132   0.274   1.897  16.449 -0.0485  0.4771 -0.2196
11906TIP3    H157133   0.252   1.975  16.499 -1.3118  0.5307 -0.8223
11906TIP3    H257134   0.342   1.926  16.388  0.9259  0.5997  0.9111
11907TIP3   OH257135   4.611   0.729  13.158  0.2074 -0.3483 -0.5435
11907TIP3    H157136   4.579   0.734  13.249  0.7513  1.2091 -0.4006
11907TIP3    H257137   4.660   0.647  13.154  0.4983 -0.2575  0.6808
11908TIP3   OH257138   1.867   2.218  13.171 -0.1185 -0.5068  0.1160
11908TIP3    H157139   1.919   2.152  13.124 -0.3810  0.1019 -1.0601
11908TIP3    H257140   1.835   2.276  13.102 -0.4952  0.4312  1.0691
11909TIP3   OH257141   6.357   1.532  13.654  0.0848 -0.1562 -0.1561
11909TIP3    H157142   6.300   1.592  13.605  0.8534  1.2396  0.5766
11909TIP3    H257143   6.345   1.447  13.612  0.5093  0.9047 -2.6180
11910TIP3   OH257144   2.772   1.204  16.042 -0.3592  0.2269  0.3854
11910TIP3    H157145   2.781   1.109  16.036  2.7012  0.1349  3.3905
11910TIP3    H257146   2.688   1.218  16.086 -1.6515 -0.8973 -1.5790
11911TIP3   OH257147   5.404   4.206  10.990  0.1940 -0.1603 -0.0515
11911TIP3    H157148   5.436   4.279  10.937  3.5435 -0.5506  1.1768
11911TIP3    H257149   5.424   4.128  10.937 -0.5308 -0.3595 -0.0475
11912TIP3   OH257150   6.021   6.470   6.070  0.4286  0.6073  0.1413
11912TIP3    H157151   6.114   6.459   6.089  0.0636  0.6144  2.0608
11912TIP3    H257152   5.985   6.511   6.148 -1.2252  0.4898 -0.5225
11913TIP3   OH257153   2.125   2.646  14.435 -0.0828 -0.0871 -0.5830
11913TIP3    H157154   2.155   2.702  14.507 -0.8230 -1.5807  0.9859
11913TIP3    H257155   2.039   2.682  14.412  1.1565  1.8892 -2.4911
11914TIP3   OH257156   6.663   4.826  12.686  0.0620  0.3401  0.6282
11914TIP3    H157157   6.640   4.910  12.648 -0.0982  0.5210  1.1214
11914TIP3    H257158   6.593   4.808  12.749 -0.0526 -0.2894  0.3363
11915TIP3   OH257159   3.195   2.257  13.243 -0.0244  0.1719 -0.1786
11915TIP3    H157160   3.242   2.341  13.246  0.6370 -0.1851 -0.2915
11915TIP3    H257161   3.261   2.194  13.213 -0.6768 -0.2814 -0.6845
11916TIP3   OH257162   0.797   3.697  15.870  0.0465  0.0718 -0.3308
11916TIP3    H157163   0.884   3.736  15.865  0.3155 -0.6520 -1.9040
11916TIP3    H257164   0.802   3.618  15.816 -0.9831 -1.2106  1.3476
11917TIP3   OH257165   6.678   4.820   1.617  0.0300 -0.0490 -0.0304
11917TIP3    H157166   6.598   4.833   1.668  0.4160  0.3963  0.4689
11917TIP3    H257167   6.692   4.726   1.619 -0.3598 -0.1075  0.0690
11918TIP3   OH257168   0.494   6.029  14.426  0.2869 -0.2874 -0.5871
11918TIP3    H157169   0.534   6.111  14.454 -0.5848  0.3583 -1.1931
11918TIP3    H257170   0.566   5.980  14.386  1.3875 -0.8969  1.9364
11919TIP3   OH257171   5.411   6.020   3.998 -0.1751 -0.8144 -0.0001
11919TIP3    H157172   5.320   6.046   3.987 -0.3226 -1.3761 -0.1470
11919TIP3    H257173   5.423   6.014   4.093 -0.0750 -0.0163  0.0458
11920TIP3   OH257174   6.013   1.233   5.382  0.2176  0.4863  0.4980
11920TIP3    H157175   6.001   1.253   5.475 -0.1082  1.9816  0.1493
11920TIP3    H257176   5.930   1.193   5.355  0.8976 -1.5618  1.2090
11921TIP3   OH257177   6.500   5.092  13.721 -0.1640  0.1440  0.6075
11921TIP3    H157178   6.440   5.018  13.725  2.7400 -2.3271  1.5046
11921TIP3    H257179   6.456   5.155  13.663 -2.6892 -2.2792 -0.3187
11922TIP3   OH257180   3.269   3.351   3.808 -0.2684 -0.2718 -0.4340
11922TIP3    H157181   3.246   3.399   3.728 -1.3105  0.7503  0.4395
11922TIP3    H257182   3.263   3.416   3.878 -3.8428 -1.9726  1.1509
11923TIP3   OH257183   6.712   1.861   2.560 -0.3174  0.6627 -0.2500
11923TIP3    H157184   6.675   1.936   2.607  0.6466  0.6129  0.6004
11923TIP3    H257185   6.635   1.815   2.526 -1.2187 -0.3768  2.8610
11924TIP3   OH257186   6.388   3.503   3.523  0.5134  0.7073 -0.0499
11924TIP3    H157187   6.452   3.535   3.459 -0.4967 -0.2118 -1.5865
11924TIP3    H257188   6.314   3.473   3.470 -0.3488 -0.1394  1.5583
11925TIP3   OH257189   1.238   2.469  16.350 -0.1720 -0.2322 -0.0031
11925TIP3    H157190   1.215   2.418  16.427  0.3161  1.0296  1.0255
11925TIP3    H257191   1.159   2.471  16.297  0.1081 -2.9561 -0.6447
11926TIP3   OH257192   5.362   2.182  12.221  0.4531 -0.1769 -0.4423
11926TIP3    H157193   5.373   2.154  12.130 -1.0978  0.4297 -0.8534
11926TIP3    H257194   5.271   2.211  12.226  0.7308  0.5191  1.1185
11927TIP3   OH257195   2.834   1.824  16.825  0.0410 -0.2016 -0.0557
11927TIP3    H157196   2.902   1.769  16.786 -0.6608 -0.2862 -1.2335
11927TIP3    H257197   2.765   1.762  16.849  0.7112 -0.2212  1.9539
11928TIP3   OH257198   0.549   4.341  17.040  0.2848  0.3493  0.2896
11928TIP3    H157199   0.516   4.365  17.127 -0.2270 -0.5802  0.3636
11928TIP3    H257200   0.512   4.407  16.981 -1.0337 -0.1747  0.5046
11929TIP3   OH257201   0.891   4.358  14.257 -0.4415 -0.2271  0.0396
11929TIP3    H157202   0.880   4.418  14.184  1.5267 -1.2744 -1.2096
11929TIP3    H257203   0.828   4.288  14.239 -1.7276  0.7111  0.7366
11930TIP3   OH257204   5.930   3.864  13.320 -0.4386 -0.7017  0.7213
11930TIP3    H157205   5.921   3.950  13.362  0.7983 -0.8160  1.2705
11930TIP3    H257206   5.908   3.879  13.228  0.6282  0.4095  0.6277
11931TIP3   OH257207   5.358   2.085  16.073 -0.2177 -0.6110  0.1848
11931TIP3    H157208   5.382   2.012  16.017  1.4708  1.3119 -1.8084
11931TIP3    H257209   5.442   2.125  16.097 -1.0616  0.4624  1.4811
11932TIP3   OH257210   0.521   4.587   4.909 -0.1138  0.6268  0.0380
11932TIP3    H157211   0.454   4.518   4.913 -1.0123  1.3663 -1.3795
11932TIP3    H257212   0.580   4.567   4.981 -1.4571 -0.4788  0.8829
11933TIP3   OH257213   5.765   1.988  14.789  0.4303  0.5249  0.4095
11933TIP3    H157214   5.858   1.996  14.814  0.9718 -1.1055 -0.8923
11933TIP3    H257215   5.766   1.932  14.712 -1.7123 -0.0086  0.7077
11934TIP3   OH257216   0.705   1.315   6.148 -0.3157  0.5927 -0.0195
11934TIP3    H157217   0.755   1.278   6.221  0.3369 -0.6423 -1.0603
11934TIP3    H257218   0.650   1.243   6.118  0.4419  0.6445 -1.6195
11935TIP3   OH257219   0.207   1.144  11.591  0.4541 -0.1274  0.1946
11935TIP3    H157220   0.250   1.212  11.643 -1.3939  0.3389  1.2065
11935TIP3    H257221   0.231   1.062  11.634  2.6462 -0.2014 -0.9990
11936TIP3   OH257222   4.648   4.440   6.147 -0.2249  0.0682 -0.2748
11936TIP3    H157223   4.606   4.525   6.135 -0.1206  0.1149 -0.3114
11936TIP3    H257224   4.583   4.388   6.193 -1.3668 -0.7038 -2.6155
11937TIP3   OH257225   1.323   4.254   3.938 -0.3856  0.1975 -0.1073
11937TIP3    H157226   1.270   4.332   3.920  1.7395  1.2498 -2.3680
11937TIP3    H257227   1.411   4.288   3.955  0.1890 -1.6355  0.8712
11938TIP3   OH257228   3.924   6.319   2.361  0.1501 -0.0171 -0.1329
11938TIP3    H157229   3.945   6.308   2.268  0.8861  1.3179 -0.1536
11938TIP3    H257230   3.861   6.390   2.364 -0.6603 -0.7323  0.3326
11939TIP3   OH257231   3.819   3.483  11.758  0.6847  0.4960  0.4025
11939TIP3    H157232   3.753   3.424  11.793  0.3497  0.8462  0.3590
11939TIP3    H257233   3.770   3.554  11.716  1.0611  0.0807 -0.8091
11940TIP3   OH257234   0.340   2.859   0.438 -0.5610  0.3671 -0.2718
11940TIP3    H157235   0.361   2.805   0.361 -1.3466 -0.5323  0.1219
11940TIP3    H257236   0.422   2.902   0.460  0.9156 -2.8306  1.0978
11941TIP3   OH257237   3.718   0.757  12.404 -0.7802  0.2201  0.0033
11941TIP3    H157238   3.686   0.829  12.349 -0.3379  2.7767  2.7715
11941TIP3    H257239   3.646   0.741  12.465 -0.0016  0.0185  0.8985
11942TIP3   OH257240   4.144   2.307  16.485 -0.5801  0.6420  0.2463
11942TIP3    H157241   4.234   2.275  16.480 -0.1894  1.6578  0.5900
11942TIP3    H257242   4.146   2.391  16.440 -1.6627  0.0822 -0.9103
11943TIP3   OH257243   2.687   4.289   5.141 -0.1530  0.7946  0.3373
11943TIP3    H157244   2.591   4.281   5.141 -0.2102  1.4118 -0.2105
11943TIP3    H257245   2.718   4.199   5.130 -0.6956  0.7210 -0.7013
11944TIP3   OH257246   5.643   4.210  12.423  0.0855 -0.1855 -0.3909
11944TIP3    H157247   5.652   4.305  12.415  2.4570 -0.2625  0.6446
11944TIP3    H257248   5.589   4.185  12.348  0.3647  1.8564 -1.3449
11945TIP3   OH257249   3.590   0.789   0.353  0.0908 -0.1578 -0.0797
11945TIP3    H157250   3.604   0.749   0.268  0.7952  1.0600 -0.5581
11945TIP3    H257251   3.678   0.814   0.383 -0.2776  0.5235  0.4559
11946TIP3   OH257252   2.001   1.096  14.511  0.5561 -0.0628 -0.2906
11946TIP3    H157253   1.952   1.035  14.457  1.2424 -1.1616  0.3026
11946TIP3    H257254   1.939   1.123  14.580 -0.1938  1.0386 -1.3453
11947TIP3   OH257255   5.775   3.780   3.487  0.4399  0.5697  0.4779
11947TIP3    H157256   5.695   3.831   3.496  0.6142  0.8329  0.5535
11947TIP3    H257257   5.792   3.778   3.393 -1.1082 -1.7575  0.1664
11948TIP3   OH257258   2.982   0.765   3.881  0.3778  0.5043  0.5669
11948TIP3    H157259   2.890   0.742   3.868  0.5092  0.3788 -0.2505
11948TIP3    H257260   3.024   0.738   3.799  1.0926  0.7960  0.8340
11949TIP3   OH257261   5.807   2.792  15.840 -0.2422  0.0729 -0.0811
11949TIP3    H157262   5.900   2.799  15.815 -0.9919  2.0052 -2.8052
11949TIP3    H257263   5.785   2.700  15.824  0.6933  0.0862 -1.7268
11950TIP3   OH257264   5.638   5.407   5.119 -0.5972  0.1729 -0.2529
11950TIP3    H157265   5.627   5.388   5.026  0.8033 -2.6350  0.0521
11950TIP3    H257266   5.591   5.336   5.163  0.3596  0.3939  1.1729
11951TIP3   OH257267   6.235   5.785  11.945  0.2751  0.2737  0.0980
11951TIP3    H157268   6.179   5.850  11.902  0.3247  1.1153  1.2703
11951TIP3    H257269   6.257   5.824  12.029  0.7221 -1.0550  0.6246
11952TIP3   OH257270   0.711   3.967  11.452  0.6266 -0.3703 -0.1978
11952TIP3    H157271   0.687   4.041  11.507  0.9416  0.5613 -1.2841
11952TIP3    H257272   0.806   3.957  11.465  1.0845  1.1122 -2.0045
11953TIP3   OH257273   4.214   0.439  16.373 -0.3592  0.0204 -0.5377
11953TIP3    H157274   4.256   0.520  16.401 -0.7115  0.2799 -0.7643
11953TIP3    H257275   4.149   0.421  16.441  1.0055 -1.0997  0.5367
11954TIP3   OH257276   3.490   3.453  11.650 -0.4107 -0.0961  0.2379
11954TIP3    H157277   3.450   3.509  11.583 -1.4522 -0.5796  0.4393
11954TIP3    H257278   3.532   3.514  11.710  0.7733  0.3432 -0.9697
11955TIP3   OH257279   1.374   3.723   1.354  0.5589  0.4194 -0.1719
11955TIP3    H157280   1.334   3.643   1.321  0.7905  0.3227 -0.2201
11955TIP3    H257281   1.353   3.724   1.447 -2.1226  1.8708 -0.6918
11956TIP3   OH257282   4.501   6.697  15.897 -0.1903  0.3232 -0.0890
11956TIP3    H157283   4.555   6.618  15.901 -0.6211 -0.2090 -2.6997
11956TIP3    H257284   4.556   6.762  15.853  0.1769  1.5683  2.0737
11957TIP3   OH257285   5.487   3.667  17.112 -0.3495 -0.0507 -0.2341
11957TIP3    H157286   5.425   3.733  17.141  0.3248  0.6731 -0.4191
11957TIP3    H257287   5.558   3.669  17.177  0.8459  1.1203 -1.5063
11958TIP3   OH257288   3.113   0.407  16.163  0.0068  0.1627  0.3936
11958TIP3    H157289   3.088   0.397  16.255 -2.5275  0.0089 -0.2585
11958TIP3    H257290   3.046   0.463  16.125 -1.1907 -2.7109 -2.2007
11959TIP3   OH257291   2.727   1.534  12.136 -0.4372  0.3982 -0.3875
11959TIP3    H157292   2.675   1.454  12.147  0.2677 -0.3059 -1.9205
11959TIP3    H257293   2.793   1.511  12.070 -2.5696  3.3527 -3.8735
11960TIP3   OH257294   6.255   6.203  12.113  0.2689  0.2075 -0.0086
11960TIP3    H157295   6.293   6.222  12.198  3.7072  1.0907 -1.5441
11960TIP3    H257296   6.221   6.287  12.082 -3.2278 -0.5593  1.3124
11961TIP3   OH257297   0.223   5.448   2.336  0.2808  0.2327 -0.4166
11961TIP3    H157298   0.197   5.411   2.421  1.3905  0.6527  0.1329
11961TIP3    H257299   0.251   5.537   2.357 -0.1718  0.6058 -1.3592
11962TIP3   OH257300   6.580   4.014   5.554 -0.2867  0.6285 -0.0325
11962TIP3    H157301   6.657   3.978   5.598 -0.9200  0.1735  0.7331
11962TIP3    H257302   6.538   3.939   5.512 -0.4962  0.8158 -0.1659
11963TIP3   OH257303   3.038   1.298   1.105  0.6200  0.0809 -0.4598
11963TIP3    H157304   3.033   1.393   1.094 -0.0461 -0.1435 -2.3587
11963TIP3    H257305   3.072   1.265   1.022  0.3229 -1.3974 -0.0358
11964TIP3   OH257306   6.741   1.602  13.100 -0.2483 -0.3639 -0.0753
11964TIP3    H157307   6.792   1.626  13.177 -0.9595  0.1336  0.2448
11964TIP3    H257308   6.671   1.547  13.135 -1.6143  1.3014 -0.1081
11965TIP3   OH257309   3.592   6.029  13.871 -0.7856  0.1835 -0.3894
11965TIP3    H157310   3.548   5.958  13.916 -0.9268  1.0116  0.8368
11965TIP3    H257311   3.542   6.107  13.894 -0.4249  0.7410 -1.4061
11966TIP3   OH257312   2.252   3.094   1.869  0.3738 -0.3060  0.1827
11966TIP3    H157313   2.312   3.067   1.939  0.7107 -1.4077 -0.5052
11966TIP3    H257314   2.182   3.029   1.871  0.1120 -0.0407 -0.1689
11967TIP3   OH257315   5.550   1.642  10.145  0.5167 -0.0149 -0.0926
11967TIP3    H157316   5.631   1.591  10.140 -1.4776 -3.4265 -0.9459
11967TIP3    H257317   5.512   1.617  10.229 -0.8901 -0.6278 -0.8880
11968TIP3   OH257318   2.475   1.065   0.294  0.1062  0.0865  0.0050
11968TIP3    H157319   2.570   1.069   0.304  0.0782 -0.0275  0.3127
11968TIP3    H257320   2.452   1.149   0.254  0.4000 -0.1277 -0.6177
11969TIP3   OH257321   5.384   2.026  12.764 -0.3690 -0.2939 -0.0243
11969TIP3    H157322   5.292   2.006  12.780 -0.2255  1.1579  3.6081
11969TIP3    H257323   5.383   2.107  12.712 -1.0980 -0.6075 -0.5120
11970TIP3   OH257324   6.123   6.032   0.196  0.6176  0.3100  0.0195
11970TIP3    H157325   6.191   6.059   0.259 -0.7416 -0.0374  1.7201
11970TIP3    H257326   6.059   6.104   0.198  0.5149  0.2571 -0.9331
11971TIP3   OH257327   5.517   5.769   2.666 -0.6750  0.1315 -0.2935
11971TIP3    H157328   5.610   5.748   2.672 -0.4138  1.5143  1.6756
11971TIP3    H257329   5.509   5.821   2.586  0.6909  1.7727  0.5696
11972TIP3   OH257330   5.011   5.126  13.555  0.0611  0.3530  0.4280
11972TIP3    H157331   4.980   5.178  13.630  0.1441 -0.0642  0.7548
11972TIP3    H257332   5.097   5.161  13.535 -0.4251  1.2219 -0.1983
11973TIP3   OH257333   3.810   3.265   1.245 -0.0801  0.1829  0.2929
11973TIP3    H157334   3.747   3.202   1.209  0.3508 -0.6867  1.0210
11973TIP3    H257335   3.815   3.243   1.338 -0.8277  2.0923  0.8355
11974TIP3   OH257336   6.236   5.200   0.471  0.2721 -0.0456  0.4162
11974TIP3    H157337   6.277   5.280   0.503 -0.0592 -0.0697  0.9156
11974TIP3    H257338   6.297   5.167   0.405 -1.4993  2.8253 -2.9545
11975TIP3   OH257339   2.036   5.321  11.141 -0.1839  0.5173 -0.2939
11975TIP3    H157340   1.976   5.281  11.078  1.9136  1.0226 -2.7386
11975TIP3    H257341   2.002   5.410  11.152 -1.2758  0.0520  0.3256
11976TIP3   OH257342   0.055   4.697  13.501 -0.0576  0.1993  0.2988
11976TIP3    H157343  -0.019   4.651  13.540  0.1007  0.6170  1.1189
11976TIP3    H257344   0.045   4.787  13.530  1.4769  0.0258  1.5632
11977TIP3   OH257345   5.061   4.824  12.986 -0.1691 -0.5391  0.5534
11977TIP3    H157346   5.129   4.827  13.053 -0.0922  0.9934  0.4546
11977TIP3    H257347   4.979   4.841  13.033 -0.2538 -0.5726  0.4219
11978TIP3   OH257348   5.443   3.475  15.199  0.0447  0.0548  0.1532
11978TIP3    H157349   5.480   3.512  15.279 -0.6380  1.3272 -0.0922
11978TIP3    H257350   5.515   3.479  15.136  0.3857 -0.3432  0.5059
11979TIP3   OH257351   6.536   6.217  11.622 -0.3016 -0.3824  0.0046
11979TIP3    H157352   6.462   6.223  11.561 -0.4678  3.0193  0.3518
11979TIP3    H257353   6.499   6.243  11.707  0.9193 -0.3681  0.5514
11980TIP3   OH257354   5.600   1.577   0.285 -0.2908 -0.5788  0.4068
11980TIP3    H157355   5.564   1.553   0.370 -1.4818 -0.1237  0.0573
11980TIP3    H257356   5.682   1.529   0.279  0.1562 -0.0972  2.0843
11981TIP3   OH257357   1.037   3.812   5.194  0.0677 -0.0240 -0.1219
11981TIP3    H157358   0.959   3.803   5.140 -0.1631  1.6834 -0.1185
11981TIP3    H257359   1.103   3.848   5.134  0.6002 -0.6454  0.0864
11982TIP3   OH257360   5.422   1.441  14.285 -0.3521  0.0769 -0.1615
11982TIP3    H157361   5.454   1.491  14.210  1.7768 -2.0973 -0.8342
11982TIP3    H257362   5.396   1.357  14.249  0.9452 -1.1233  1.5042
11983TIP3   OH257363   6.134   0.120   1.012  0.2197 -0.3065 -0.5523
11983TIP3    H157364   6.061   0.079   0.966  1.4320 -0.1151 -2.8034
11983TIP3    H257365   6.185   0.162   0.943  1.2868  1.4384  1.1900
11984TIP3   OH257366   2.785   3.230  12.709  0.2889 -0.0219 -0.6774
11984TIP3    H157367   2.779   3.223  12.805  3.0738 -0.0020 -0.4227
11984TIP3    H257368   2.720   3.296  12.686 -1.2595 -0.8643  1.0572
11985TIP3   OH257369   4.147   3.703  13.606 -0.1556  0.0316 -0.1095
11985TIP3    H157370   4.157   3.626  13.550 -1.8890  0.4091 -0.9950
11985TIP3    H257371   4.220   3.760  13.581  0.6144 -0.9172 -0.0888
11986TIP3   OH257372   0.172   0.685   0.786  0.1750 -0.4225 -0.3221
11986TIP3    H157373   0.178   0.686   0.691  0.6571  0.6485 -0.2980
11986TIP3    H257374   0.205   0.599   0.812  0.5980 -0.4951 -1.0861
11987TIP3   OH257375   4.088   2.699   4.632 -0.3585 -0.1559 -0.2419
11987TIP3    H157376   4.107   2.710   4.539  0.4835 -0.6590 -0.1408
11987TIP3    H257377   4.011   2.643   4.634 -2.0460  2.0204 -0.6679
11988TIP3   OH257378   6.090   4.360  15.311 -0.5411  0.9197  0.4450
11988TIP3    H157379   6.041   4.284  15.341 -0.8416  0.8644 -0.1714
11988TIP3    H257380   6.107   4.411  15.391 -1.6882  0.9884  0.6555
11989TIP3   OH257381   1.522   6.589  11.227  0.0353 -0.2254 -0.5825
11989TIP3    H157382   1.570   6.664  11.263  0.4729  0.5426 -2.6294
11989TIP3    H257383   1.585   6.545  11.171 -1.3447  0.3526 -2.7212
11990TIP3   OH257384   5.926   6.435   0.446 -0.2948  0.1272  0.1223
11990TIP3    H157385   5.916   6.473   0.359  1.1043  0.2755 -0.0020
11990TIP3    H257386   5.997   6.371   0.436 -0.8084 -0.5925  0.9300
11991TIP3   OH257387   6.376   0.557   1.102  0.0421 -0.1197  0.4836
11991TIP3    H157388   6.468   0.533   1.091 -0.0914 -1.4353  1.9824
11991TIP3    H257389   6.376   0.653   1.101  1.1770 -0.0926 -1.2373
11992TIP3   OH257390   0.395   1.761   2.701 -0.1400  0.2599 -0.3058
11992TIP3    H157391   0.419   1.850   2.723  0.3748  0.3524 -1.1947
11992TIP3    H257392   0.304   1.767   2.671  0.2681  0.7106 -1.5353
11993TIP3   OH257393   0.221   2.414   0.110  0.2113  0.4754  0.5426
11993TIP3    H157394   0.241   2.499   0.071 -1.4225  1.0821  0.9506
11993TIP3    H257395   0.253   2.350   0.046  1.1562  1.3796  0.0824
11994TIP3   OH257396   6.660   2.630  14.041 -0.0051 -0.4767 -0.2524
11994TIP3    H157397   6.601   2.634  14.116 -3.0792 -1.9033 -2.3978
11994TIP3    H257398   6.690   2.720  14.029 -0.4838  0.0185  1.8120
11995TIP3   OH257399   2.508   3.535   0.533  0.8745  0.0509  0.3359
11995TIP3    H157400   2.438   3.469   0.529  0.2547  0.6691  0.7270
11995TIP3    H257401   2.517   3.566   0.444 -0.9439  1.5752  0.6148
11996TIP3   OH257402   3.000   5.451   0.858  0.3861 -0.2494  0.5599
11996TIP3    H157403   2.953   5.482   0.781 -2.3660 -0.1639  2.1375
11996TIP3    H257404   2.933   5.442   0.925  2.4448 -1.5754  2.6049
11997TIP3   OH257405   1.581   5.871   2.824  0.0111 -0.2808  0.0524
11997TIP3    H157406   1.552   5.860   2.733  0.6484 -0.9461 -0.0725
11997TIP3    H257407   1.529   5.945   2.856 -1.1700 -0.8724 -0.4484
11998TIP3   OH257408   1.734   1.838  13.386  0.5040 -0.3370 -0.7208
11998TIP3    H157409   1.765   1.928  13.398  0.5516 -0.4739  0.3280
11998TIP3    H257410   1.667   1.845  13.318  0.4855  0.5089 -0.6343
11999TIP3   OH257411   5.381   4.257   5.317 -0.1105  0.3132 -0.7216
11999TIP3    H157412   5.323   4.328   5.344 -1.4568 -0.3535 -1.7176
11999TIP3    H257413   5.322   4.185   5.295  1.2545 -1.5671  1.4004
12000TIP3   OH257414   6.317   1.196  10.387  0.6134 -0.1244 -0.0413
12000TIP3    H157415   6.361   1.267  10.432  1.2144 -0.2550 -0.4139
12000TIP3    H257416   6.331   1.119  10.443  1.6139 -0.3492 -0.5864
12001TIP3   OH257417   5.657   2.471  13.053 -0.3580  1.1822  0.0331
12001TIP3    H157418   5.606   2.418  12.992  2.1163 -0.4786 -0.7342
12001TIP3    H257419   5.681   2.550  13.004  0.4211  0.5058 -0.7087
12002TIP3   OH257420   2.082   6.479   4.451  0.7389 -0.3029 -0.0612
12002TIP3    H157421   2.008   6.520   4.405  2.4730  1.3734 -1.5227
12002TIP3    H257422   2.046   6.454   4.536 -1.0827  1.9955 -0.0589
12003TIP3   OH257423   2.138   5.915   2.316  0.4312 -0.0742  0.1490
12003TIP3    H157424   2.221   5.886   2.354  2.1155  1.4075 -2.0682
12003TIP3    H257425   2.079   5.841   2.326  1.5583 -0.6974  3.0438
12004TIP3   OH257426   2.816   1.140   3.976  0.2814 -0.0271 -0.5523
12004TIP3    H157427   2.907   1.155   3.949  0.7230 -1.0024  0.3181
12004TIP3    H257428   2.765   1.200   3.922  1.5023  1.0154 -0.6043
12005TIP3   OH257429   3.896   0.730  13.154 -0.0207 -0.3365 -0.0859
12005TIP3    H157430   3.856   0.668  13.094  0.3748  0.1259 -0.8528
12005TIP3    H257431   3.890   0.815  13.109  0.0609  0.0640  0.6358
12006TIP3   OH257432   3.574   4.701  16.129 -0.4023  0.1084  0.2403
12006TIP3    H157433   3.665   4.692  16.156 -1.2094 -1.3892  2.7234
12006TIP3    H257434   3.576   4.684  16.034  1.7623 -0.8018  0.3904
12007TIP3   OH257435   0.520   2.767   5.523  0.1814 -0.0545  0.0154
12007TIP3    H157436   0.529   2.692   5.582  0.8748  0.1822  0.2218
12007TIP3    H257437   0.547   2.733   5.438 -0.7171 -0.3677 -0.1524
12008TIP3   OH257438   4.680   3.640   1.698 -0.6016 -0.4624 -0.3402
12008TIP3    H157439   4.587   3.661   1.688 -0.3039  1.0526 -0.1860
12008TIP3    H257440   4.721   3.671   1.617  0.1536  1.4971  0.7212
12009TIP3   OH257441   6.093   4.873  14.256  0.3315 -0.1067  0.5671
12009TIP3    H157442   6.037   4.856  14.332  0.8898  0.1442  1.0470
12009TIP3    H257443   6.127   4.961  14.271  1.6614 -0.6306  0.8266
12010TIP3   OH257444   5.513   5.825   0.280 -0.6459 -0.1348  0.1801
12010TIP3    H157445   5.437   5.855   0.230 -0.8409 -0.6571  0.1551
12010TIP3    H257446   5.583   5.816   0.215 -1.0997 -1.5329 -0.1582
12011TIP3   OH257447   5.157   4.700  14.327 -0.2840 -0.1986 -0.1459
12011TIP3    H157448   5.095   4.639  14.367 -0.3297  0.8009  1.4288
12011TIP3    H257449   5.241   4.680  14.368 -0.3453  0.9100  0.5666
12012TIP3   OH257450   2.443   0.260  14.095 -0.6925 -0.3453 -0.0362
12012TIP3    H157451   2.468   0.181  14.142 -0.0849 -0.2579 -0.2053
12012TIP3    H257452   2.519   0.318  14.103  0.7296 -1.3908 -3.5408
12013TIP3   OH257453   3.561   2.858  14.191 -0.1297 -0.3140 -0.2480
12013TIP3    H157454   3.547   2.945  14.229 -2.4026 -0.2097 -1.1550
12013TIP3    H257455   3.647   2.864  14.150  0.6308  0.8355  1.3914
12014TIP3   OH257456   4.129   0.219  14.917 -0.2823  0.2346 -0.4358
12014TIP3    H157457   4.092   0.140  14.880 -0.2869  1.2938 -2.9198
12014TIP3    H257458   4.105   0.288  14.855  2.0926  1.6979  0.1254
12015TIP3   OH257459   5.337   6.316  14.297 -0.7815 -0.2598 -0.1518
12015TIP3    H157460   5.408   6.272  14.343  1.2335  1.4778 -1.4654
12015TIP3    H257461   5.292   6.367  14.365 -0.5826 -1.0918  0.6254
12016TIP3   OH257462   5.807   6.245   2.922 -0.4752  0.0966 -0.7069
12016TIP3    H157463   5.776   6.335   2.909  0.2329  0.4827  0.2090
12016TIP3    H257464   5.811   6.234   3.017 -0.6274 -0.9400 -0.8057
12017TIP3   OH257465   4.473   1.175  14.085 -0.2219  0.4727  0.1511
12017TIP3    H157466   4.523   1.134  14.015  2.7887  0.6261  2.0092
12017TIP3    H257467   4.383   1.151  14.068  0.4213  0.1230 -3.4540
12018TIP3   OH257468   1.019   4.671   4.859 -0.1705  0.2329 -0.2649
12018TIP3    H157469   0.974   4.636   4.936 -3.7234  2.4942 -1.0364
12018TIP3    H257470   1.110   4.645   4.870 -0.9360 -1.5617  3.4554
12019TIP3   OH257471   5.488   4.376  16.676  0.0383  0.1181  0.4832
12019TIP3    H157472   5.531   4.297  16.709  0.6346 -0.4021 -1.4122
12019TIP3    H257473   5.399   4.370  16.711  0.6492 -0.2756  2.0942
12020TIP3   OH257474   6.019   1.511  15.523  0.3818  0.0830 -0.1203
12020TIP3    H157475   6.050   1.497  15.613 -1.7759 -0.1240  0.6574
12020TIP3    H257476   5.985   1.600  15.523  0.3189  0.0631 -0.7276
12021TIP3   OH257477   4.296   1.587  13.775 -0.1230 -0.1427 -0.5372
12021TIP3    H157478   4.386   1.617  13.790 -0.4471  0.2798  0.6512
12021TIP3    H257479   4.242   1.640  13.833 -1.4499  1.1662 -2.7998
12022TIP3   OH257480   6.705   2.920   1.404  0.3741  0.3362 -0.1097
12022TIP3    H157481   6.739   3.008   1.420 -0.1499  0.7180 -1.0476
12022TIP3    H257482   6.629   2.913   1.463 -0.7564  1.2514 -1.3937
12023TIP3   OH257483   4.078   4.114   2.403 -0.2642 -0.6152  0.1727
12023TIP3    H157484   4.165   4.113   2.364 -0.0584  0.9469  0.5089
12023TIP3    H257485   4.088   4.166   2.483 -1.7001  0.5375 -0.3427
12024TIP3   OH257486   5.192   0.339   3.039  0.2043 -0.2417 -0.1601
12024TIP3    H157487   5.153   0.270   3.091  1.3329 -1.5681 -1.0078
12024TIP3    H257488   5.118   0.382   2.996 -0.4383 -1.8669 -0.7415
12025TIP3   OH257489   0.563   1.943   1.223 -0.2817 -0.5252 -0.5412
12025TIP3    H157490   0.595   1.931   1.313 -0.0090 -0.5173 -0.6357
12025TIP3    H257491   0.642   1.941   1.169 -0.5063 -1.3893 -0.8668
12026TIP3   OH257492   0.267   2.602  11.474 -0.2860 -0.3563 -0.2682
12026TIP3    H157493   0.181   2.570  11.503  1.4564 -3.0538  2.5117
12026TIP3    H257494   0.314   2.524  11.447  1.8591  0.8028 -0.0890
12027TIP3   OH257495   5.533   0.561   0.423 -0.5365  0.2533  0.4319
12027TIP3    H157496   5.469   0.551   0.493 -1.6251 -1.8172 -0.7604
12027TIP3    H257497   5.498   0.631   0.368 -0.2218  1.1470  1.3309
12028TIP3   OH257498   2.517   0.544  16.569  0.0975 -0.2292 -0.3138
12028TIP3    H157499   2.561   0.579  16.492  0.0675  0.2427 -0.1175
12028TIP3    H257500   2.505   0.619  16.627  0.3857 -0.6310  0.2803
12029TIP3   OH257501   2.935   6.009  14.416  0.2917 -0.2444  0.5237
12029TIP3    H157502   2.846   5.976  14.429  0.1542  0.0448  0.3289
12029TIP3    H257503   2.923   6.099  14.385  0.6588 -0.0477  0.9441
12030TIP3   OH257504   5.868   2.934   6.225 -0.0113 -1.0717 -0.4604
12030TIP3    H157505   5.830   2.984   6.298 -1.3763 -0.6223 -1.4413
12030TIP3    H257506   5.797   2.877   6.196  0.0741 -0.3210 -2.2610
12031TIP3   OH257507   1.100   2.466   3.390  0.0133  0.2425 -0.0480
12031TIP3    H157508   1.068   2.403   3.454 -0.6851  1.3860  0.7480
12031TIP3    H257509   1.193   2.475   3.409  0.0915 -0.4486 -0.0902
12032TIP3   OH257510   4.388   0.459   3.985  0.5746 -0.3140  0.1071
12032TIP3    H157511   4.467   0.449   4.038 -0.1122 -2.5763  0.7984
12032TIP3    H257512   4.402   0.540   3.936  2.3617  0.4793  1.8122
12033TIP3   OH257513   5.302   3.549  11.913 -0.1012  0.0185  0.4896
12033TIP3    H157514   5.259   3.634  11.903 -3.0383 -1.3245  0.5963
12033TIP3    H257515   5.317   3.519  11.823  1.1338  0.6903  0.4517
12034TIP3   OH257516   3.874   4.384  12.185 -0.6698 -0.4711 -0.2101
12034TIP3    H157517   3.875   4.366  12.091  0.5888  1.9313 -0.7400
12034TIP3    H257518   3.782   4.387  12.208 -1.1613  1.7231 -2.0466
12035TIP3   OH257519   1.007   4.385  13.205 -0.1276 -0.5163  0.2967
12035TIP3    H157520   1.065   4.377  13.130  2.3222 -2.5021  2.2050
12035TIP3    H257521   0.941   4.449  13.178  1.3220 -0.2080 -3.0229
12036TIP3   OH257522   1.302   0.110   1.699  0.2293  0.7951  0.2728
12036TIP3    H157523   1.226   0.168   1.688 -0.1682  0.2304 -0.0135
12036TIP3    H257524   1.272   0.042   1.760  0.3617  0.3254 -0.1767
12037TIP3   OH257525   0.843   2.306  16.914  0.9327  0.0062 -0.5647
12037TIP3    H157526   0.869   2.294  16.822 -1.0526 -1.6246 -0.9807
12037TIP3    H257527   0.808   2.395  16.918 -1.0195 -0.6487 -1.9633
12038TIP3   OH257528   2.575   5.268  14.714  0.8501  0.6540 -0.0798
12038TIP3    H157529   2.618   5.191  14.678  1.1808  0.7078  0.1913
12038TIP3    H257530   2.511   5.294  14.648  1.3879  0.7007 -0.5858
12039TIP3   OH257531   2.056   1.745  11.676  0.3604  0.1155  0.1478
12039TIP3    H157532   2.024   1.787  11.756 -0.5395  0.2019 -0.2475
12039TIP3    H257533   2.041   1.652  11.689 -0.2840  0.1755 -0.1299
12040TIP3   OH257534   2.967   6.193   6.057 -0.5054  0.3670  0.3275
12040TIP3    H157535   3.059   6.187   6.084 -0.0094 -0.9877 -1.4128
12040TIP3    H257536   2.919   6.147   6.126  0.1497  0.7855  1.0825
12041TIP3   OH257537   1.647   1.064  13.622 -0.5980 -0.0296  0.0031
12041TIP3    H157538   1.696   1.142  13.650  2.3509 -1.7268  0.0177
12041TIP3    H257539   1.637   1.013  13.702 -0.8121 -0.5097 -0.3319
12042TIP3   OH257540   6.403   3.269  15.932 -0.4381  0.5068  0.0970
12042TIP3    H157541   6.404   3.174  15.943  1.8874  0.1864 -1.8379
12042TIP3    H257542   6.481   3.299  15.979 -0.4614  1.2815 -0.3505
12043TIP3   OH257543   5.346   1.200   2.442 -0.1588  0.3007 -0.0997
12043TIP3    H157544   5.315   1.285   2.473  1.0208  0.5789  0.3632
12043TIP3    H257545   5.267   1.153   2.418 -0.8934  1.1966  0.5055
12044TIP3   OH257546   3.192   2.539  11.667  0.4476  0.0537 -0.4876
12044TIP3    H157547   3.259   2.474  11.649  0.7263  0.2078 -0.0290
12044TIP3    H257548   3.177   2.533  11.761 -0.8174 -0.5834 -0.7048
12045TIP3   OH257549   5.077   4.103  11.399 -0.0951 -0.0137  0.2045
12045TIP3    H157550   5.030   4.173  11.444 -0.8750  1.0594 -2.1590
12045TIP3    H257551   5.115   4.145  11.322  3.8404 -1.0848  1.3227
12046TIP3   OH257552   2.051   3.296  14.700 -0.2753  0.0138 -0.6645
12046TIP3    H157553   2.110   3.343  14.642  2.4381 -1.1690  0.9313
12046TIP3    H257554   2.040   3.355  14.775  0.0034 -0.3333 -0.3501
12047TIP3   OH257555   6.185   1.667  16.643 -0.2220 -0.4295  0.0824
12047TIP3    H157556   6.095   1.665  16.675 -1.4181 -0.3991 -2.9553
12047TIP3    H257557   6.187   1.605  16.570  2.2916 -0.5808  0.1781
12048TIP3   OH257558   1.460   1.701  16.547 -0.5100  0.0179 -0.0338
12048TIP3    H157559   1.438   1.710  16.454  0.3407 -0.5032 -0.2985
12048TIP3    H257560   1.478   1.790  16.577  0.1328  0.0862 -0.6074
12049TIP3   OH257561   1.667   2.950   2.230 -0.0219  0.0577 -0.1978
12049TIP3    H157562   1.663   2.903   2.313  0.3408  1.1772  0.4673
12049TIP3    H257563   1.692   3.039   2.253  1.8964 -0.0277 -1.6580
12050TIP3   OH257564   0.106   5.407   6.557  0.1626  0.0539 -0.3639
12050TIP3    H157565   0.031   5.371   6.510 -0.3701 -0.4302  0.8230
12050TIP3    H257566   0.071   5.433   6.642  1.2521  0.2388  0.0449
12051TIP3   OH257567   4.243   2.632  16.582  0.2010 -0.9719 -0.6962
12051TIP3    H157568   4.234   2.609  16.675 -0.3566  0.8961 -0.2295
12051TIP3    H257569   4.165   2.685  16.563  0.4509 -1.0850 -2.1582
12052TIP3   OH257570   0.650   2.923  14.913  0.2095  0.0644  0.1431
12052TIP3    H157571   0.648   2.896  14.822  1.0470  1.0567 -0.1945
12052TIP3    H257572   0.558   2.927  14.939 -0.1794  1.6764 -1.2771
12053TIP3   OH257573   0.589   3.105  16.166 -0.1317  0.1825 -0.0745
12053TIP3    H157574   0.538   3.027  16.146  1.1861 -0.6238 -0.4354
12053TIP3    H257575   0.642   3.080  16.242  1.2630  0.2476 -0.9936
12054TIP3   OH257576   6.014   3.452   5.943  0.2865  0.0449 -0.1988
12054TIP3    H157577   6.036   3.507   6.018  3.0671  0.4151 -1.1577
12054TIP3    H257578   5.963   3.380   5.979 -0.4421  1.4077  1.6371
12055TIP3   OH257579   1.461   0.137  14.942  0.2944  0.6492 -0.2082
12055TIP3    H157580   1.381   0.173  14.982  0.0931  0.9530 -0.8774
12055TIP3    H257581   1.529   0.154  15.007 -0.1542  0.5064  0.3136
12056TIP3   OH257582   4.429   4.904  12.344  0.4588 -0.3187  0.7631
12056TIP3    H157583   4.343   4.894  12.305 -0.3018  0.3844  2.1934
12056TIP3    H257584   4.416   4.885  12.437  1.4441  1.6040  1.3558
12057TIP3   OH257585   4.985   3.548  11.405  0.4096 -0.1419 -0.0067
12057TIP3    H157586   5.052   3.566  11.472  1.5394  3.2349 -1.8117
12057TIP3    H257587   4.978   3.630  11.356 -3.8525 -0.9157 -1.0654
12058TIP3   OH257588   3.579   2.608  12.849  0.4902  0.0572  0.7355
12058TIP3    H157589   3.667   2.644  12.834  0.6840 -0.6525  0.1266
12058TIP3    H257590   3.526   2.646  12.778  0.6750 -0.7718  0.1445
12059TIP3   OH257591   2.509   5.618  16.926 -1.2074 -0.3936  0.3257
12059TIP3    H157592   2.589   5.590  16.881 -1.9750 -1.4697 -0.3900
12059TIP3    H257593   2.536   5.629  17.017 -0.1351 -0.2782  0.0104
12060TIP3   OH257594   4.815   5.700  16.507 -0.4409 -0.1344  0.0902
12060TIP3    H157595   4.786   5.775  16.457 -1.1600 -0.2491  0.3297
12060TIP3    H257596   4.751   5.692  16.578  0.9638  0.5015  1.5043
12061TIP3   OH257597   1.657   5.708  15.312  0.5352  0.3747  0.3915
12061TIP3    H157598   1.742   5.688  15.350  1.4671  1.3859 -1.0736
12061TIP3    H257599   1.652   5.804  15.312 -0.5502  0.3343  0.3446
12062TIP3   OH257600   4.932   5.732   4.071  0.6199  0.0830  0.0888
12062TIP3    H157601   4.973   5.799   4.126  0.6287  2.8903 -3.0562
12062TIP3    H257602   5.003   5.701   4.014 -0.4312  1.1876 -1.9034
12063TIP3   OH257603   1.746   2.650   0.312  0.5219 -0.2427 -0.6474
12063TIP3    H157604   1.665   2.653   0.261  0.4866 -0.0945 -0.5827
12063TIP3    H257605   1.812   2.617   0.250  0.3405 -0.7051 -0.6008
12064TIP3   OH257606   5.261   4.986  12.317 -0.4316  0.3048  0.4899
12064TIP3    H157607   5.341   4.958  12.362  0.5257  2.6424  0.4022
12064TIP3    H257608   5.281   4.975  12.224 -0.4300  0.3048  0.4901
12065TIP3   OH257609   1.829   6.548  15.303 -0.1439  0.7110 -0.0798
12065TIP3    H157610   1.741   6.531  15.270  1.0483 -2.6074 -2.0626
12065TIP3    H257611   1.858   6.625  15.254 -1.1005  0.3720 -1.2234
12066TIP3   OH257612   0.657   5.931  15.249 -0.0264 -0.1004 -0.9003
12066TIP3    H157613   0.714   6.007  15.264  0.6227 -0.7000 -0.2882
12066TIP3    H257614   0.590   5.938  15.317 -1.3128  1.1482 -2.2082
12067TIP3   OH257615   4.875   3.995   0.124  0.6275 -0.0765 -0.0095
12067TIP3    H157616   4.906   3.955   0.042  1.8660 -0.4083  0.6014
12067TIP3    H257617   4.947   4.051   0.152  0.0200  0.4007  0.6191
12068TIP3   OH257618   4.828   2.308  11.509 -0.1489 -0.2046  0.3021
12068TIP3    H157619   4.918   2.290  11.482 -0.8586 -1.1326 -1.6300
12068TIP3    H257620   4.776   2.301  11.429 -1.6410  2.8471  0.8601
12069TIP3   OH257621   2.082   3.510  16.679 -0.1045 -1.2928  0.1950
12069TIP3    H157622   2.025   3.584  16.699  0.7543 -0.3880 -0.6246
12069TIP3    H257623   2.148   3.511  16.747  1.1702  0.0644 -0.9822
12070TIP3   OH257624   4.913   6.029  12.398 -0.2864  0.3789 -0.2835
12070TIP3    H157625   4.844   6.077  12.444  1.0024 -0.4230  2.6805
12070TIP3    H257626   4.870   5.951  12.364 -0.7955 -0.4007  2.0171
12071TIP3   OH257627   2.643   6.330  12.735  0.2748  0.0480  0.3818
12071TIP3    H157628   2.644   6.415  12.779  0.7942 -0.1176  0.7032
12071TIP3    H257629   2.575   6.280  12.781 -0.9247  0.7089 -0.6380
12072TIP3   OH257630   4.663   1.524  11.528  0.7459 -0.0804 -0.5070
12072TIP3    H157631   4.628   1.472  11.456 -0.0274 -0.1465 -0.0948
12072TIP3    H257632   4.587   1.568  11.565  1.3290  0.9867 -0.5564
12073TIP3   OH257633   6.499   4.073  16.386  0.0231  0.5185  0.4357
12073TIP3    H157634   6.478   4.108  16.299 -1.4128  2.5102  1.4831
12073TIP3    H257635   6.594   4.064  16.386  0.2353  2.2389 -0.7536
12074TIP3   OH257636   3.660   5.258   1.412  0.1970  0.1834 -0.0310
12074TIP3    H157637   3.609   5.338   1.394 -1.2859 -0.6868  0.1415
12074TIP3    H257638   3.694   5.232   1.327  0.7303  0.9988 -0.0863
12075TIP3   OH257639   0.893   1.458   5.009 -0.6429  0.0758  0.7870
12075TIP3    H157640   0.836   1.385   5.036 -3.5726  2.1509  0.6855
12075TIP3    H257641   0.958   1.417   4.952 -2.7576 -2.3596 -0.0679
12076TIP3   OH257642   2.404   5.808  14.365 -0.4981  0.2033 -0.2373
12076TIP3    H157643   2.404   5.746  14.293 -2.6563  0.5941 -0.6610
12076TIP3    H257644   2.442   5.888  14.328 -0.3460 -0.0051 -0.5333
12077TIP3   OH257645   2.212   0.341  13.952  0.5322  0.0980  0.3119
12077TIP3    H157646   2.259   0.390  13.884  1.6673  0.6229  1.4329
12077TIP3    H257647   2.281   0.305  14.007 -0.3555  0.4432  1.7118
12078TIP3   OH257648   5.982   6.241  13.001  0.5319  0.3654 -0.4037
12078TIP3    H157649   5.939   6.227  12.917  1.0314  2.4210 -1.0715
12078TIP3    H257650   6.016   6.156  13.026 -2.4143 -1.0049 -0.6561
12079TIP3   OH257651   0.023   5.605  12.610  0.3338 -0.6341  0.5833
12079TIP3    H157652   0.023   5.595  12.515 -1.0293 -1.3634  0.6372
12079TIP3    H257653  -0.033   5.680  12.627  0.4580 -0.5931  0.8216
12080TIP3   OH257654   5.651   4.218   5.607 -0.4395 -0.6765  0.2312
12080TIP3    H157655   5.562   4.203   5.574 -0.4081 -0.2360 -0.0724
12080TIP3    H257656   5.643   4.294   5.664 -0.0394  0.2075 -0.8415
12081TIP3   OH257657   4.874   4.277   1.769  0.3004 -0.0350  0.5008
12081TIP3    H157658   4.944   4.279   1.835 -0.7209 -0.2034  1.6268
12081TIP3    H257659   4.834   4.191   1.779  0.6534 -0.3930 -0.9476
12082TIP3   OH257660   5.684   5.561   5.463  0.9037  0.7456  0.3243
12082TIP3    H157661   5.597   5.536   5.430  0.7451  0.4997  0.9008
12082TIP3    H257662   5.679   5.542   5.557  1.3428  1.4171  0.4837
12083TIP3   OH257663   2.831   0.075  16.721 -0.1773  0.4679  0.4709
12083TIP3    H157664   2.738   0.094  16.713 -0.6194 -0.9920  1.7490
12083TIP3    H257665   2.874   0.160  16.707 -1.8106  1.6449  2.1359
12084TIP3   OH257666   1.343   6.711   4.523  0.2349  0.0181 -0.5682
12084TIP3    H157667   1.348   6.615   4.515 -0.4901  0.0684 -1.8458
12084TIP3    H257668   1.363   6.728   4.615 -0.4920 -1.4308 -0.1113
12085TIP3   OH257669   6.493   4.284   2.587  0.5323  0.1863 -0.4581
12085TIP3    H157670   6.461   4.365   2.626  3.2038  1.9548 -1.6050
12085TIP3    H257671   6.535   4.238   2.659 -0.2769  0.1987  0.0351
12086TIP3   OH257672   4.360   5.786  17.015  0.2244 -0.5494  0.0290
12086TIP3    H157673   4.439   5.739  17.040 -0.1473 -1.2724 -0.1020
12086TIP3    H257674   4.388   5.850  16.951  0.5878 -1.3486 -0.6256
12087TIP3   OH257675   5.164   3.503  14.996  0.2589 -0.3517  0.1505
12087TIP3    H157676   5.245   3.518  14.947 -0.9988 -0.2878 -2.0198
12087TIP3    H257677   5.125   3.590  15.006 -0.1358 -0.5200  0.0974
12088TIP3   OH257678   6.577   6.420   1.112 -0.2661 -0.2749 -0.2963
12088TIP3    H157679   6.631   6.484   1.159 -0.8168 -0.6349  0.8617
12088TIP3    H257680   6.544   6.361   1.181  2.2111 -3.3892 -1.5122
12089TIP3   OH257681   4.434   2.970   2.587 -0.5436 -0.0547 -0.3076
12089TIP3    H157682   4.431   2.973   2.491  0.2709 -0.5783 -0.3600
12089TIP3    H257683   4.343   2.981   2.614 -0.8015 -0.0502 -1.1451
12090TIP3   OH257684   5.667   4.486  12.448 -0.1125 -0.5076  0.1679
12090TIP3    H157685   5.755   4.474  12.410 -0.1652 -1.2507  0.2531
12090TIP3    H257686   5.628   4.556  12.396  0.6448  0.0545  0.3308
12091TIP3   OH257687   3.611   3.271   1.883  0.4942 -0.7696 -0.2397
12091TIP3    H157688   3.584   3.355   1.920  1.7407 -0.8527  0.9108
12091TIP3    H257689   3.529   3.224   1.869 -0.0861 -0.8102  2.6643
12092TIP3   OH257690   1.301   0.698   5.590 -0.7909 -0.1616 -0.0909
12092TIP3    H157691   1.282   0.691   5.497  1.5272  0.7632 -0.6785
12092TIP3    H257692   1.243   0.633   5.631 -2.2997 -0.1512 -2.0689
12093TIP3   OH257693   4.162   3.755  12.181 -0.0986  0.3948 -0.8175
12093TIP3    H157694   4.180   3.845  12.208 -4.1981  1.5803 -1.3920
12093TIP3    H257695   4.167   3.757  12.086 -1.0574  0.2591 -0.8770
12094TIP3   OH257696   0.612   6.339  15.846 -0.1350  0.5689  0.3053
12094TIP3    H157697   0.631   6.353  15.939 -0.9940  0.6387  0.4723
12094TIP3    H257698   0.636   6.421  15.804  0.4126  0.4801  0.4385
12095TIP3   OH257699   6.667   0.398  10.942  0.3400  0.0638  0.2494
12095TIP3    H157700   6.620   0.470  10.983 -1.5731 -1.3935  0.8056
12095TIP3    H257701   6.602   0.355  10.887  1.1768 -1.6436  0.4934
12096TIP3   OH257702   1.454   6.191  12.881 -0.2725  0.3079 -0.0462
12096TIP3    H157703   1.405   6.163  12.804 -5.9997  0.2796  3.0155
12096TIP3    H257704   1.491   6.276  12.857  0.2023 -0.6796 -3.3278
12097TIP3   OH257705   1.922   6.630  16.049 -0.3155  0.5949  0.0276
12097TIP3    H157706   1.993   6.693  16.063 -0.2052  0.7648 -1.2141
12097TIP3    H257707   1.863   6.674  15.988 -0.8534 -0.0416  0.0843
12098TIP3   OH257708   4.644   0.350   5.424  0.3365  0.0661 -0.0835
12098TIP3    H157709   4.629   0.348   5.330 -0.2444 -1.7746  0.0147
12098TIP3    H257710   4.569   0.302   5.461  1.6084 -1.0419  1.1542
12099TIP3   OH257711   4.468   2.769  17.048  0.1383 -0.5889 -0.2763
12099TIP3    H157712   4.514   2.805  16.972 -0.4074 -0.4039 -0.5283
12099TIP3    H257713   4.469   2.674  17.033 -1.9532 -0.4560 -1.7308
12100TIP3   OH257714   4.248   0.103  13.832 -0.1144  0.1331  0.3816
12100TIP3    H157715   4.254   0.041  13.760 -0.3199  1.4400 -0.8222
12100TIP3    H257716   4.339   0.118  13.859 -0.1661 -2.1017  2.0099
12101TIP3   OH257717   4.685   2.253   1.820 -0.1973 -0.9811  0.4884
12101TIP3    H157718   4.726   2.272   1.735  1.7080  0.4899  1.6682
12101TIP3    H257719   4.739   2.183   1.857  0.9445  0.5162  1.7749
12102TIP3   OH257720   3.685   5.520  14.486 -0.0179  0.3860  0.8174
12102TIP3    H157721   3.718   5.573  14.412  1.0997 -0.4672  0.6832
12102TIP3    H257722   3.590   5.531  14.482  0.0688  0.8963 -0.3428
12103TIP3   OH257723   5.455   5.480  14.406  0.2200 -0.4344 -0.0987
12103TIP3    H157724   5.542   5.504  14.375  0.4064 -1.0924 -0.1014
12103TIP3    H257725   5.471   5.416  14.475 -0.2836 -1.6917 -1.0963
12104TIP3   OH257726   3.405   3.260  14.840  0.1285  0.0292  0.0286
12104TIP3    H157727   3.497   3.238  14.858  0.3390  0.3189 -0.6427
12104TIP3    H257728   3.357   3.225  14.915  0.7836 -0.1568  0.3736
12105TIP3   OH257729   5.270   3.762   3.007 -0.1145  0.5868  0.3703
12105TIP3    H157730   5.265   3.831   3.073  1.4603  0.0423  1.1104
12105TIP3    H257731   5.229   3.686   3.049  1.9846 -0.1155  1.2701
12106TIP3   OH257732   0.290   1.503  12.579 -0.0317 -0.0217 -0.2628
12106TIP3    H157733   0.243   1.499  12.495  0.6081  2.2084 -0.7963
12106TIP3    H257734   0.221   1.516  12.644 -0.5137 -1.5009 -0.4436
12107TIP3   OH257735   0.657   3.542  11.929 -0.5306 -0.2433 -0.3068
12107TIP3    H157736   0.724   3.610  11.940 -1.6654  0.9394 -0.4645
12107TIP3    H257737   0.634   3.517  12.019  1.2792 -1.9084 -0.2273
12108TIP3   OH257738   2.762   5.589   6.115 -0.0095  0.3528  0.0056
12108TIP3    H157739   2.835   5.531   6.135  0.9126  1.6912  0.6321
12108TIP3    H257740   2.721   5.607   6.199 -2.0045 -1.5077 -0.4757
12109TIP3   OH257741   3.989   1.170  11.688  0.1892  0.0890 -0.0804
12109TIP3    H157742   4.001   1.099  11.625  0.8107 -0.0423  0.1784
12109TIP3    H257743   4.016   1.133  11.772  0.3708  0.5820  0.0864
12110TIP3   OH257744   3.647   3.068   1.179 -0.4407  0.4535 -0.3559
12110TIP3    H157745   3.612   2.979   1.176  1.1486 -0.1737 -1.0149
12110TIP3    H257746   3.630   3.097   1.269 -2.0526 -0.0289 -0.4690
12111TIP3   OH257747   2.038   5.134   3.622 -0.4549  0.5085  0.0817
12111TIP3    H157748   2.075   5.097   3.702  1.2265  1.2843 -0.2876
12111TIP3    H257749   1.979   5.066   3.589 -0.5469 -0.1515  1.5330
12112TIP3   OH257750   5.668   3.223   0.743 -0.6353 -0.5226 -0.2203
12112TIP3    H157751   5.649   3.289   0.810 -1.6860  1.2019 -2.0926
12112TIP3    H257752   5.674   3.141   0.791 -1.0459  0.6635  2.0049
12113TIP3   OH257753   0.767   5.894   2.749  0.4500  0.4398 -0.2032
12113TIP3    H157754   0.822   5.841   2.806  1.0437 -0.2634 -1.3693
12113TIP3    H257755   0.765   5.981   2.789  1.0823  0.0417  0.7039
12114TIP3   OH257756   2.143   6.484   4.947 -0.0765  0.1382 -0.2920
12114TIP3    H157757   2.201   6.551   4.982  1.0132 -1.0747  0.3464
12114TIP3    H257758   2.067   6.485   5.006 -0.3209  1.1452 -0.6083
12115TIP3   OH257759   3.409   0.881  16.071 -0.1243 -0.6367  0.4416
12115TIP3    H157760   3.339   0.816  16.064 -0.4298 -0.2472 -0.1906
12115TIP3    H257761   3.368   0.955  16.115 -0.2553 -0.2201 -0.3636
12116TIP3   OH257762   0.473   2.555   4.661 -0.1949 -0.0291  0.1269
12116TIP3    H157763   0.416   2.504   4.718  1.2917 -0.2080  1.5257
12116TIP3    H257764   0.561   2.524   4.682  0.5867  1.7301 -0.4017
12117TIP3   OH257765   6.287   2.835   5.395  0.0604 -0.5643 -0.2087
12117TIP3    H157766   6.342   2.789   5.331  0.6238 -2.7490  1.7122
12117TIP3    H257767   6.220   2.771   5.418 -1.6566  1.0856 -0.4233
12118TIP3   OH257768   3.579   6.698  12.969  0.1194 -0.6298 -0.0284
12118TIP3    H157769   3.493   6.707  12.928  0.4972  0.3800 -0.6539
12118TIP3    H257770   3.638   6.677  12.896  1.2172  3.4635 -0.6137
12119TIP3   OH257771   5.572   4.724   3.258  0.5595 -0.1123  0.1614
12119TIP3    H157772   5.540   4.811   3.233  0.0603 -0.6677 -1.2467
12119TIP3    H257773   5.574   4.675   3.176  0.0112 -1.6862  1.0442
12120TIP3   OH257774   4.881   3.402  15.116 -0.2630 -0.8322 -0.3546
12120TIP3    H157775   4.940   3.417  15.043  0.5867 -1.3126  0.2195
12120TIP3    H257776   4.920   3.330  15.165 -0.8610 -0.5896  0.5172
12121TIP3   OH257777   0.065   6.635   3.922  0.2811 -0.2999 -0.3726
12121TIP3    H157778   0.009   6.687   3.980 -0.2608  1.0914 -2.0618
12121TIP3    H257779   0.006   6.569   3.885  0.0725  0.2581 -1.0555
12122TIP3   OH257780   5.664   1.617  15.073 -0.1520  0.0534 -0.2471
12122TIP3    H157781   5.729   1.680  15.041 -1.6651  2.8417  1.7568
12122TIP3    H257782   5.710   1.567  15.139  0.1163  1.8575  1.0078
12123TIP3   OH257783   3.435   2.826  16.068 -0.3769  0.1614 -0.0697
12123TIP3    H157784   3.383   2.903  16.091 -1.6174 -0.7538  0.2724
12123TIP3    H257785   3.380   2.752  16.091  0.1811 -0.8366 -1.8048
12124TIP3   OH257786   1.715   0.723  17.219  0.3155  0.2539  0.2428
12124TIP3    H157787   1.649   0.656  17.202 -0.3204  0.8243  0.3972
12124TIP3    H257788   1.775   0.683  17.281 -0.5072  0.1005  0.9587
12125TIP3   OH257789   3.498   2.891   1.936  0.6112  0.3006 -0.4119
12125TIP3    H157790   3.434   2.857   1.998 -1.3714 -0.0926 -2.5042
12125TIP3    H257791   3.549   2.814   1.909 -0.0205  0.0405 -0.8911
12126TIP3   OH257792   4.593   6.227   2.037  0.4948 -0.1581 -0.3074
12126TIP3    H157793   4.661   6.258   1.977 -0.7056 -0.0564 -1.6792
12126TIP3    H257794   4.533   6.300   2.045 -0.3380 -0.8089 -0.4684
12127TIP3   OH257795   0.284   2.499   1.826 -0.1064 -0.2463  0.0789
12127TIP3    H157796   0.323   2.416   1.855 -0.2768 -0.3484  0.0178
12127TIP3    H257797   0.327   2.517   1.742  2.3649  1.4192  1.6060
12128TIP3   OH257798   2.326   3.512  11.250 -0.8029  0.1881 -0.6289
12128TIP3    H157799   2.264   3.467  11.306  1.6936  1.0361  3.1746
12128TIP3    H257800   2.399   3.452  11.241 -0.2261  0.9453 -1.1824
12129TIP3   OH257801   5.817   1.651   4.374 -0.6367 -0.1583 -0.3936
12129TIP3    H157802   5.773   1.723   4.419  0.7324  0.2089  0.4117
12129TIP3    H257803   5.794   1.573   4.425 -0.0977  0.0819  0.2327
12130TIP3   OH257804   1.919   3.451  14.016  0.6583 -0.7682 -0.1122
12130TIP3    H157805   1.897   3.359  14.003  0.3838 -0.6304 -0.7021
12130TIP3    H257806   2.015   3.453  14.023  0.9421 -0.8440 -2.7588
12131TIP3   OH257807   3.961   0.578   5.609 -0.4976  0.4349 -0.4908
12131TIP3    H157808   3.993   0.659   5.650 -0.5236  0.7250 -1.0427
12131TIP3    H257809   3.903   0.540   5.675 -0.8188  1.0767 -0.3898
12132TIP3   OH257810   5.752   0.377   4.465  0.0080  0.0701  0.4489
12132TIP3    H157811   5.670   0.406   4.504 -0.6709 -1.4993  0.2436
12132TIP3    H257812   5.815   0.379   4.538 -0.2818  0.9256  0.6908
12133TIP3   OH257813   0.093   1.576  11.923 -0.5581 -0.0778 -0.0311
12133TIP3    H157814   0.086   1.584  12.018  0.3729 -0.5150  0.0863
12133TIP3    H257815   0.117   1.484  11.909  0.4678  0.2643 -0.6065
12134TIP3   OH257816   6.527   5.823  15.380 -0.0057 -0.2528 -0.5563
12134TIP3    H157817   6.579   5.829  15.300  0.4355 -1.3226 -0.3700
12134TIP3    H257818   6.584   5.860  15.448 -0.6369  1.2876 -0.8134
12135TIP3   OH257819   0.157   2.071   5.369  0.0253 -0.4293 -0.3008
12135TIP3    H157820   0.071   2.030   5.384  0.5460 -1.4566 -0.0591
12135TIP3    H257821   0.196   2.021   5.298 -0.2784  1.1619 -1.6620
12136TIP3   OH257822   4.710   5.668  14.393 -0.5216  0.2431 -0.1798
12136TIP3    H157823   4.726   5.685  14.300 -0.3852 -1.0799 -0.4261
12136TIP3    H257824   4.798   5.660  14.430 -0.5656 -0.7329 -0.2566
12137TIP3   OH257825   3.160   6.414  13.619  0.0109  0.0089  0.9333
12137TIP3    H157826   3.117   6.424  13.534  0.8173 -0.0144  0.5126
12137TIP3    H257827   3.205   6.497  13.634  0.4167 -0.2200  1.0180
12138TIP3   OH257828   2.834   4.272  16.960  0.2573  0.2794 -0.1786
12138TIP3    H157829   2.772   4.326  16.912  0.0957 -1.1465 -1.6710
12138TIP3    H257830   2.779   4.208  17.006  0.5364 -0.9546 -1.4642
12139TIP3   OH257831   5.043   6.496  11.649 -0.5906  0.7598  0.4122
12139TIP3    H157832   5.049   6.437  11.574  0.6601  0.0315  1.0573
12139TIP3    H257833   4.954   6.530  11.646 -1.2391 -0.9041 -0.1708
12140TIP3   OH257834   0.952   2.947   0.822 -0.0277 -0.2058  0.0509
12140TIP3    H157835   1.012   3.014   0.790  1.4946 -1.1826  0.7227
12140TIP3    H257836   1.009   2.872   0.843 -1.5443 -1.3472  0.2677
12141TIP3   OH257837   1.797   5.271   2.350 -0.2203 -0.2456 -0.1500
12141TIP3    H157838   1.740   5.346   2.365 -0.1848 -0.1619 -0.4278
12141TIP3    H257839   1.785   5.249   2.258  1.5670  0.9470 -0.7366
12142TIP3   OH257840   0.819   5.687  15.507  0.3786  0.6361  0.3270
12142TIP3    H157841   0.751   5.627  15.476  0.7800  0.7446 -0.8318
12142TIP3    H257842   0.773   5.747  15.565 -0.5207  0.6791 -0.3991
12143TIP3   OH257843   3.671   3.562  13.653  0.1795  0.3242  0.4143
12143TIP3    H157844   3.585   3.548  13.614 -0.2805 -0.0720  1.5185
12143TIP3    H257845   3.705   3.474  13.668  0.0933  0.4423  1.4012
12144TIP3   OH257846   5.448   4.342  15.969  0.5589 -0.2035 -0.1878
12144TIP3    H157847   5.387   4.416  15.969 -0.9257 -1.3415  1.3765
12144TIP3    H257848   5.466   4.326  15.877  0.1609  1.4752 -0.6038
12145TIP3   OH257849   0.130   4.392   5.299  0.1681  0.5399  0.1919
12145TIP3    H157850   0.155   4.302   5.278  0.2827  0.2877  1.3350
12145TIP3    H257851   0.042   4.401   5.264 -0.2184 -0.3438  0.9051
12146TIP3   OH257852   0.458   3.462   3.349 -0.1051  0.5028  0.0145
12146TIP3    H157853   0.498   3.426   3.270 -0.1923 -2.0669  1.0275
12146TIP3    H257854   0.384   3.515   3.317  0.7939  0.8135 -1.6410
12147TIP3   OH257855   6.579   4.097  10.919  0.6193  0.2729  0.1279
12147TIP3    H157856   6.629   4.177  10.934 -1.0065  0.6808  6.3448
12147TIP3    H257857   6.645   4.027  10.922  1.5567  1.1444  1.2389
12148TIP3   OH257858   0.022   0.160  13.367 -0.6958  0.1811  0.5313
12148TIP3    H157859   0.083   0.171  13.294 -1.2053  1.5462  0.2911
12148TIP3    H257860  -0.037   0.090  13.340 -0.0457 -0.2559  0.2225
12149TIP3   OH257861   1.255   2.821  11.192 -0.0936  0.4010 -0.2008
12149TIP3    H157862   1.342   2.840  11.226 -0.6325  1.5071  0.6327
12149TIP3    H257863   1.250   2.870  11.110  0.0857  0.2785 -0.2856
12150TIP3   OH257864   2.949   4.041  14.577  0.5462  0.2342 -0.1311
12150TIP3    H157865   3.031   3.992  14.581 -0.0156 -0.6995  0.1808
12150TIP3    H257866   2.973   4.129  14.608  1.6116  0.2495 -0.9303
12151TIP3   OH257867   6.105   0.680  14.374  0.3796  0.3150 -0.7383
12151TIP3    H157868   6.166   0.628  14.322 -0.0094 -0.1186 -0.7678
12151TIP3    H257869   6.048   0.722  14.309 -0.3602 -0.5419 -0.6607
12152TIP3   OH257870   0.499   5.654  11.428  0.1236 -0.0080 -0.2564
12152TIP3    H157871   0.462   5.599  11.496 -0.5105 -0.8719 -1.2718
12152TIP3    H257872   0.437   5.648  11.355  0.5073  1.3141 -0.7324
12153TIP3   OH257873   2.247   4.931   5.850  0.3209 -0.1649  0.5456
12153TIP3    H157874   2.317   4.947   5.787  0.9127  1.3998  1.5066
12153TIP3    H257875   2.255   4.839   5.873  1.3361 -0.2871 -0.2299
12154TIP3   OH257876   2.754   1.042  11.595 -0.0080 -0.5833  0.5751
12154TIP3    H157877   2.764   0.960  11.546 -0.2738 -0.1078 -0.2910
12154TIP3    H257878   2.711   1.015  11.676 -1.6295 -1.1029 -0.4033
12155TIP3   OH257879   3.054   3.059   2.394  0.4005 -0.5385 -0.6876
12155TIP3    H157880   3.037   2.983   2.448  0.4588  0.0354  0.1501
12155TIP3    H257881   2.968   3.087   2.363  0.0903  0.4692  0.9645
12156TIP3   OH257882   5.816   3.718   0.735  0.1667 -0.5183  0.5491
12156TIP3    H157883   5.850   3.807   0.726 -2.0055  0.4280  0.9757
12156TIP3    H257884   5.723   3.725   0.711  0.3732 -3.1062 -1.4765
12157TIP3   OH257885   3.817   3.189  14.263  0.4096  0.4851  1.0885
12157TIP3    H157886   3.741   3.207  14.319  0.0201  1.3352  0.3170
12157TIP3    H257887   3.800   3.240  14.183  2.1604  1.3340  1.2120
12158TIP3   OH257888   1.723   6.690  11.617  0.0695  0.4297  0.0287
12158TIP3    H157889   1.678   6.618  11.573 -0.2784 -0.0645  1.1565
12158TIP3    H257890   1.814   6.663  11.621 -0.1924 -0.3507  1.1849
12159TIP3   OH257891   1.600   5.308  15.776 -0.3276  0.4853 -0.5006
12159TIP3    H157892   1.676   5.292  15.721 -1.0482 -1.7442 -0.9184
12159TIP3    H257893   1.618   5.260  15.857 -1.2741 -0.0713 -0.6076
12160TIP3   OH257894   0.940   5.982   1.028  0.0725  0.6958 -0.9107
12160TIP3    H157895   0.897   6.066   1.012 -0.9668  0.2267 -0.6430
12160TIP3    H257896   1.032   6.005   1.043 -0.4187  1.9363  0.4786
12161TIP3   OH257897   1.503   0.769  15.888  0.2314  0.5643  0.4882
12161TIP3    H157898   1.467   0.682  15.906  0.7684 -0.3457 -2.3456
12161TIP3    H257899   1.593   0.764  15.920  0.3291 -0.0027  0.1391
12162TIP3   OH257900   0.463   5.585   3.447 -0.4401  0.6922  0.1832
12162TIP3    H157901   0.378   5.594   3.490 -0.9223  0.6597 -0.7380
12162TIP3    H257902   0.461   5.648   3.375 -0.5129 -0.6960 -1.1005
12163TIP3   OH257903   3.029   3.171  10.577 -0.3798  0.1216 -0.0780
12163TIP3    H157904   3.110   3.217  10.558 -0.8712  0.5660 -1.1965
12163TIP3    H257905   3.023   3.103  10.509 -2.1537  1.7094 -1.6198
12164TIP3   OH257906   4.425   2.934   6.458 -0.6494  0.2590 -0.2488
12164TIP3    H157907   4.463   2.900   6.377  0.0450  2.1718 -0.7908
12164TIP3    H257908   4.454   3.025   6.461 -1.5314  0.5174  1.6374
12165TIP3   OH257909   2.625   6.786  16.106 -0.3771  0.0515 -0.6517
12165TIP3    H157910   2.681   6.843  16.054 -1.2673  2.6075  0.9802
12165TIP3    H257911   2.560   6.753  16.044  0.5968  0.1845 -1.7871
12166TIP3   OH257912   3.084   6.615   4.987 -0.4497 -0.2486  0.0223
12166TIP3    H157913   3.091   6.614   5.082 -0.8408  0.5777  0.0611
12166TIP3    H257914   3.110   6.526   4.961  0.0245 -0.3723  0.8655
12167TIP3   OH257915   4.389   4.683  14.855  0.1152  0.3640 -0.1464
12167TIP3    H157916   4.376   4.648  14.767  0.7718  1.8130 -0.8560
12167TIP3    H257917   4.315   4.743  14.869  1.4602  2.3022 -0.8940
12168TIP3   OH257918   5.141   4.238   6.480 -0.3249 -0.4472  0.3528
12168TIP3    H157919   5.159   4.144   6.476 -0.8753 -0.5253 -1.8479
12168TIP3    H257920   5.045   4.244   6.475 -0.3487  0.2142  1.4491
12169TIP3   OH257921   3.160   2.321   1.925 -0.1181 -0.0545 -0.3304
12169TIP3    H157922   3.120   2.237   1.899  0.7401 -0.2407 -1.1281
12169TIP3    H257923   3.233   2.331   1.864  0.9762  0.3294  1.0252
12170TIP3   OH257924   3.679   4.393  13.032 -0.0786  0.0223 -0.9540
12170TIP3    H157925   3.656   4.352  13.115  0.2003  2.3462  0.3311
12170TIP3    H257926   3.634   4.339  12.966  1.5024 -3.2355  0.4081
12171TIP3   OH257927   6.177   2.951  13.854  0.2736  0.5207  0.2341
12171TIP3    H157928   6.233   3.015  13.899  1.2480 -1.6664  2.3525
12171TIP3    H257929   6.218   2.867  13.871 -2.0410 -0.9110 -0.7583
12172TIP3   OH257930   6.693   1.963  10.968 -0.6239 -0.5702 -1.0136
12172TIP3    H157931   6.746   2.034  10.930 -0.8891  0.6322  0.7009
12172TIP3    H257932   6.704   1.890  10.908 -0.0765  0.8267 -2.7057
12173TIP3   OH257933   3.661   4.674  16.576  0.0355 -0.2756 -0.2701
12173TIP3    H157934   3.577   4.686  16.619  0.8694  3.0190  0.7179
12173TIP3    H257935   3.643   4.688  16.483 -0.5571  0.2904 -0.0743
12174TIP3   OH257936   3.139   0.551  10.648 -0.1857 -0.5496 -0.0520
12174TIP3    H157937   3.158   0.642  10.672  1.0436 -0.7308 -0.2902
12174TIP3    H257938   3.115   0.555  10.556 -0.7618 -0.3930  0.0995
12175TIP3   OH257939   2.933   6.484   1.563  0.3637 -0.4321  0.3220
12175TIP3    H157940   2.949   6.578   1.566  1.4893 -0.5991 -0.0480
12175TIP3    H257941   2.851   6.475   1.515  0.5051  0.3399 -0.0770
12176TIP3   OH257942   3.269   0.670   5.933 -0.5819 -0.0141 -0.0347
12176TIP3    H157943   3.273   0.749   5.878 -2.3170 -1.4152 -2.3614
12176TIP3    H257944   3.176   0.650   5.940 -0.1987 -1.7069  0.7272
12177TIP3   OH257945   3.515   0.572   5.639  0.0950  0.5701 -0.6999
12177TIP3    H157946   3.574   0.630   5.687 -1.4231  1.2594  0.3975
12177TIP3    H257947   3.509   0.494   5.694 -1.8179  1.4483  0.4346
12178TIP3   OH257948   3.366   1.670   3.271 -0.6987 -0.1328 -0.2584
12178TIP3    H157949   3.459   1.659   3.291 -0.5166  1.2890 -0.1960
12178TIP3    H257950   3.364   1.702   3.181 -1.0341  0.9641  0.1185
12179TIP3   OH257951   3.401   3.260   1.573  0.0073 -0.6501  0.4294
12179TIP3    H157952   3.405   3.210   1.655  2.1964 -0.5194  0.4466
12179TIP3    H257953   3.358   3.342   1.597  1.0900 -0.3960  1.5763
12180TIP3   OH257954   6.578   6.155   2.913  0.0468 -0.4773 -0.5090
12180TIP3    H157955   6.596   6.201   2.831 -3.6555  0.1636 -1.1263
12180TIP3    H257956   6.577   6.224   2.980 -1.7744 -0.1485 -0.8186
12181TIP3   OH257957   4.182   1.606  13.520 -0.0443  0.2584  0.1707
12181TIP3    H157958   4.239   1.601  13.597 -0.5381  0.9778  0.5864
12181TIP3    H257959   4.208   1.531  13.467  2.0403  1.1637 -0.1682
12182TIP3   OH257960   2.843   2.964   2.069 -0.3835  0.2369 -0.3265
12182TIP3    H157961   2.858   2.926   1.983 -0.6829 -0.8350  0.0819
12182TIP3    H257962   2.828   2.889   2.127  0.5092  0.8853  0.8032
12183TIP3   OH257963   0.991   0.604   1.672  0.5280  0.4870  0.6529
12183TIP3    H157964   0.926   0.591   1.604 -1.4815  1.5899  2.2277
12183TIP3    H257965   1.033   0.687   1.649  0.3293  0.5191  0.4034
12184TIP3   OH257966   5.693   3.061   3.908  0.6085  0.0245 -0.2281
12184TIP3    H157967   5.786   3.081   3.894  0.3701  1.4867  0.1044
12184TIP3    H257968   5.662   3.030   3.823  1.3048 -0.0664 -0.4566
12185TIP3   OH257969   5.052   2.387  12.414 -0.1011 -0.1959  0.5604
12185TIP3    H157970   5.017   2.375  12.326  1.2493 -3.1678  0.3156
12185TIP3    H257971   5.138   2.426  12.401  0.1265 -0.6976  0.5527
12186TIP3   OH257972   4.777   0.154   3.466 -0.5051 -0.0913 -0.0339
12186TIP3    H157973   4.858   0.191   3.432 -0.9862  0.2310 -0.8777
12186TIP3    H257974   4.785   0.161   3.561 -0.0486  1.0461 -0.1356
12187TIP3   OH257975   1.222   2.211   0.005 -0.2189  0.8545 -0.8516
12187TIP3    H157976   1.303   2.223   0.055 -0.5410 -2.1565  0.5732
12187TIP3    H257977   1.163   2.279   0.038  0.4354  0.5574  1.0542
12188TIP3   OH257978   0.357   1.374  11.675 -0.0895 -0.6909  0.7115
12188TIP3    H157979   0.387   1.437  11.741 -2.8277  1.9820 -0.4343
12188TIP3    H257980   0.403   1.399  11.595 -0.6738 -0.6043  0.4037
12189TIP3   OH257981   2.815   6.613  16.817  0.0724 -0.5786 -0.0010
12189TIP3    H157982   2.730   6.603  16.859  0.1738 -3.1019 -0.2090
12189TIP3    H257983   2.824   6.707  16.801 -2.3722 -0.1796  0.5955
12190TIP3   OH257984   2.125   2.207   2.541 -0.1216  0.3740  0.3305
12190TIP3    H157985   2.077   2.208   2.624  2.1322  0.3629  1.6995
12190TIP3    H257986   2.179   2.128   2.544  0.8008  0.9299 -0.6670
12191TIP3   OH257987   2.932   5.338   0.273  0.3350 -0.5967  0.6604
12191TIP3    H157988   2.938   5.243   0.285 -1.5718 -1.0503 -1.4469
12191TIP3    H257989   2.868   5.350   0.204  2.6440  2.1350 -1.2569
12192TIP3   OH257990   3.331   6.548  14.602 -0.0942  0.1926 -0.2049
12192TIP3    H157991   3.394   6.493  14.554 -1.1361 -2.7615  1.5876
12192TIP3    H257992   3.246   6.511  14.581 -1.0308  2.2330 -0.2137
12193TIP3   OH257993   5.336   1.654  16.617 -0.3050  0.3079 -0.1774
12193TIP3    H157994   5.340   1.742  16.580 -0.6247  0.5117  0.2679
12193TIP3    H257995   5.415   1.647  16.671 -1.0166  0.8772  0.9900
12194TIP3   OH257996   1.783   1.942   0.535  0.1766 -0.4438 -0.3382
12194TIP3    H157997   1.790   2.037   0.522  1.2591 -0.3374  0.8867
12194TIP3    H257998   1.871   1.909   0.520  0.3513 -0.9364  1.4980
12195TIP3   OH257999   1.694   5.917  11.567 -0.7784  0.0197  0.4776
12195TIP3    H158000   1.637   5.965  11.627 -0.5345 -1.1879  1.7126
12195TIP3    H258001   1.779   5.913  11.612 -0.0382  0.7429 -0.8020
12196TIP3   OH258002   3.150   1.159  11.437  0.3502 -0.4110 -0.1257
12196TIP3    H158003   3.149   1.198  11.350 -1.7177  1.6946  0.7253
12196TIP3    H258004   3.233   1.188  11.475  0.6859 -0.2745 -0.9350
12197TIP3   OH258005   4.852   3.618   4.890  0.2287  0.2703  0.5791
12197TIP3    H158006   4.883   3.528   4.894  1.7343  0.4419 -3.1248
12197TIP3    H258007   4.928   3.671   4.912  0.5966  0.6085 -1.3251
12198TIP3   OH258008   0.737   1.162   3.523  0.9341 -0.0415  0.3161
12198TIP3    H158009   0.752   1.091   3.460  1.5969  1.0074 -0.7588
12198TIP3    H258010   0.816   1.216   3.517 -0.0816  1.4940  0.1328
12199TIP3   OH258011   4.856   1.912   4.181  0.1376  0.3311  0.0104
12199TIP3    H158012   4.901   1.929   4.098  0.0069  0.6017 -0.0077
12199TIP3    H258013   4.901   1.968   4.244 -0.8393  1.4333 -0.2159
12200TIP3   OH258014   6.328   0.626  13.170  0.4979  0.3669 -0.4002
12200TIP3    H158015   6.370   0.544  13.146  0.2740  0.3085 -0.5898
12200TIP3    H258016   6.255   0.601  13.227  0.9341  0.4922  0.2307
12201TIP3   OH258017   1.987   0.086  17.080  0.3383 -0.5685 -0.0744
12201TIP3    H158018   2.004   0.169  17.036 -1.1486  0.6245  1.4518
12201TIP3    H258019   1.978   0.109  17.173 -1.2490 -2.2382  0.2580
12202TIP3   OH258020   4.536   2.593  15.748 -0.2863  0.2866  0.7099
12202TIP3    H158021   4.460   2.538  15.764 -0.6206  0.1396 -1.1206
12202TIP3    H258022   4.585   2.591  15.830 -2.0157  0.0404  1.7990
12203TIP3   OH258023   3.760   4.259  15.178 -0.2371 -0.1735 -0.4437
12203TIP3    H158024   3.670   4.237  15.202  0.7263 -1.0997  2.8909
12203TIP3    H258025   3.753   4.344  15.135 -2.6043  0.3644  0.8175
12204TIP3   OH258026   3.759   3.021   2.606  0.0054 -0.5382  0.1081
12204TIP3    H158027   3.819   3.068   2.664 -0.0550  0.9302 -0.9845
12204TIP3    H258028   3.814   2.987   2.536 -0.2730 -0.1711 -0.2928
12205TIP3   OH258029   1.136   3.338  15.503  0.3653  0.4265  0.2138
12205TIP3    H158030   1.057   3.389  15.484  1.4649  2.0748 -0.1850
12205TIP3    H258031   1.165   3.306  15.417 -0.6531 -1.4709  0.5275
12206TIP3   OH258032   0.913   2.203  16.047 -0.4195 -0.1893 -0.1881
12206TIP3    H158033   0.822   2.233  16.042 -0.8425 -1.0937  1.2086
12206TIP3    H258034   0.907   2.108  16.034  0.3486 -0.2154 -0.3446
12207TIP3   OH258035   0.199   0.238  12.134 -0.3365  0.7414  0.0739
12207TIP3    H158036   0.288   0.215  12.162 -1.1175 -3.5478 -0.2621
12207TIP3    H258037   0.165   0.293  12.205  0.7566 -2.2748  3.2098
12208TIP3   OH258038   5.150   2.667   0.929 -0.3919 -0.8492  0.1721
12208TIP3    H158039   5.218   2.734   0.937  1.1010 -1.5874 -3.8904
12208TIP3    H258040   5.163   2.610   1.004  2.2401  0.1021  0.5249
12209TIP3   OH258041   3.454   5.480  14.194 -0.0447  0.0926  0.1343
12209TIP3    H158042   3.417   5.396  14.223 -0.6450  0.3023 -0.0178
12209TIP3    H258043   3.474   5.526  14.276  0.1687 -0.1461  0.2193
12210TIP3   OH258044   0.848   4.407  12.606 -0.3022 -0.1796  0.6808
12210TIP3    H158045   0.926   4.423  12.552 -0.8360  1.1474  0.2732
12210TIP3    H258046   0.778   4.393  12.542 -1.1049  2.1890  0.9660
12211TIP3   OH258047   0.159   3.454   1.305  0.4431 -0.1333  0.7269
12211TIP3    H158048   0.205   3.402   1.239  0.1430 -2.3056  2.1370
12211TIP3    H258049   0.068   3.453   1.277  0.6971  1.2898 -0.2465
12212TIP3   OH258050   0.353   4.184  14.374  0.3934  0.3750 -0.6783
12212TIP3    H158051   0.259   4.172  14.385  0.7692 -0.5070  2.7875
12212TIP3    H258052   0.388   4.095  14.367  1.0711  0.6455 -0.8194
12213TIP3   OH258053   3.711   2.455  13.731 -0.3142  0.1776  0.0496
12213TIP3    H158054   3.671   2.522  13.676  0.2233  0.9266  0.5535
12213TIP3    H258055   3.733   2.384  13.671  0.3843  1.0361 -0.7388
12214TIP3   OH258056   0.643   2.411   6.025  0.3588 -0.1328  0.4468
12214TIP3    H158057   0.588   2.478   6.066 -0.0170  1.2854 -2.1008
12214TIP3    H258058   0.593   2.330   6.035 -0.9793  0.6532  0.4618
12215TIP3   OH258059   6.565   5.163   2.184 -0.0847  0.1647 -0.7704
12215TIP3    H158060   6.563   5.069   2.168  1.4784  0.1780 -1.2768
12215TIP3    H258061   6.546   5.173   2.277  0.1640 -0.6952 -0.6258
12216TIP3   OH258062   5.207   1.466  15.949 -0.2498 -0.6314  0.5869
12216TIP3    H158063   5.295   1.504  15.940 -0.1111 -0.8384  1.0668
12216TIP3    H258064   5.192   1.422  15.865  0.6587 -1.7544  0.9976
12217TIP3   OH258065   2.589   0.162  12.655  0.1075 -0.4023 -0.4704
12217TIP3    H158066   2.658   0.158  12.722 -1.7293 -1.9426  1.4552
12217TIP3    H258067   2.556   0.252  12.660  0.0690 -0.4646  0.6461
12218TIP3   OH258068   0.010   1.914   2.914  0.2064  0.0010  0.0131
12218TIP3    H158069   0.079   1.896   2.978  0.1762 -0.8185 -0.1768
12218TIP3    H258070  -0.027   1.998   2.941 -0.5484 -0.8365  1.7187
12219TIP3   OH258071   5.968   2.231  14.208 -0.1911  0.2280 -0.6142
12219TIP3    H158072   5.909   2.156  14.205 -0.4586  0.0776  3.0936
12219TIP3    H258073   6.010   2.233  14.122 -2.7831 -1.9476 -2.0768
12220TIP3   OH258074   0.137   4.558  15.268  0.0628  0.5105  0.5048
12220TIP3    H158075   0.080   4.583  15.195  0.2417 -1.4209 -0.3602
12220TIP3    H258076   0.224   4.589  15.241  0.1772 -0.4290 -0.2600
12221TIP3   OH258077   5.527   1.640  11.309 -0.0996 -0.0023 -0.5411
12221TIP3    H158078   5.569   1.567  11.264 -1.2058 -2.5137  2.1620
12221TIP3    H258079   5.581   1.716  11.287  1.6193 -1.7284 -2.8127
12222TIP3   OH258080   1.504   0.187  13.338 -0.2484 -1.0255  0.3690
12222TIP3    H158081   1.431   0.219  13.285  0.8013  0.0187 -0.5061
12222TIP3    H258082   1.488   0.225  13.425 -0.5362 -0.4593  0.0820
12223TIP3   OH258083   4.005   6.501  16.100 -0.5518  0.2865 -0.1548
12223TIP3    H158084   4.043   6.574  16.147 -0.9402 -0.7594  1.8727
12223TIP3    H258085   3.996   6.431  16.165 -0.3629 -1.5247 -1.9580
12224TIP3   OH258086   0.125   5.261   1.255  0.0204  0.0398 -0.5325
12224TIP3    H158087   0.158   5.340   1.213  1.4768 -0.5863 -0.6241
12224TIP3    H258088   0.178   5.190   1.219 -0.8163 -0.9097  0.0269
12225TIP3   OH258089   0.829   1.259  15.199  0.6927  0.4246  0.4119
12225TIP3    H158090   0.883   1.323  15.246  1.0541  0.3312  0.1208
12225TIP3    H258091   0.889   1.189  15.175  0.8172  1.0825 -1.3734
12226TIP3   OH258092   3.204   0.209   4.465 -0.6440  0.0060 -0.7783
12226TIP3    H158093   3.190   0.151   4.540  1.3539  0.4429 -0.0138
12226TIP3    H258094   3.173   0.295   4.495  2.0392  0.6575  0.3978
12227TIP3   OH258095   0.815   1.901  17.159  0.1778 -0.0368 -0.3029
12227TIP3    H158096   0.881   1.969  17.156 -0.8629  0.9881 -0.6689
12227TIP3    H258097   0.739   1.939  17.114 -2.0655  0.3511  3.3870
12228TIP3   OH258098   6.159   0.319   3.246  0.2060 -0.5391 -0.0908
12228TIP3    H158099   6.182   0.384   3.312 -1.3854  0.8709 -0.8556
12228TIP3    H258100   6.093   0.264   3.289 -1.0993  0.6015 -0.5647
12229TIP3   OH258101   4.758   1.491  13.235  0.1903 -0.4710 -0.7027
12229TIP3    H158102   4.698   1.428  13.195  0.1199 -0.6366 -0.3455
12229TIP3    H258103   4.812   1.523  13.163 -1.1427  0.6093 -1.2631
12230TIP3   OH258104   1.978   0.570  14.659  0.2127 -0.0583 -0.3490
12230TIP3    H158105   2.057   0.623  14.662  0.6910 -0.8154  1.2934
12230TIP3    H258106   1.995   0.497  14.719 -2.7568  1.2619  2.3879
12231TIP3   OH258107   1.588   4.222  15.737  0.1115 -0.2281  0.1185
12231TIP3    H158108   1.513   4.218  15.796 -1.2075  0.4411 -1.4330
12231TIP3    H258109   1.579   4.306  15.693 -0.0195 -1.4454 -2.3522
12232TIP3   OH258110   0.768   6.104   4.554  0.1767  0.1295  0.1653
12232TIP3    H158111   0.689   6.155   4.538  0.6518  0.6673 -0.5761
12232TIP3    H258112   0.747   6.050   4.630 -2.1210 -2.2640 -1.9783
12233TIP3   OH258113   2.737   4.964   2.423  0.1520 -0.0184 -0.5437
12233TIP3    H158114   2.764   5.018   2.497  1.0250 -1.1952  0.0227
12233TIP3    H258115   2.648   4.992   2.404 -0.1198  0.2414  1.0185
12234TIP3   OH258116   6.462   3.925   5.194  0.3197 -0.5762 -0.0891
12234TIP3    H158117   6.454   3.858   5.261 -2.7168 -0.0478  0.2197
12234TIP3    H258118   6.471   3.877   5.112  2.3148 -1.2385  0.4674
12235TIP3   OH258119   2.662   2.300   4.975  0.1325  0.1596  0.3621
12235TIP3    H158120   2.652   2.241   5.050 -0.2047  0.2324  0.3756
12235TIP3    H258121   2.706   2.377   5.012  1.4608 -0.4665  0.1502
12236TIP3   OH258122   4.671   0.045  15.272  0.8691 -0.6401 -0.4374
12236TIP3    H158123   4.731  -0.027  15.251  1.4371 -0.3361  0.0912
12236TIP3    H258124   4.616   0.054  15.195  1.1759 -1.2632 -0.7366
12237TIP3   OH258125   4.370   2.834  15.742  0.0469 -0.3220 -0.1945
12237TIP3    H158126   4.294   2.785  15.772  0.1646 -2.6018 -3.1671
12237TIP3    H258127   4.442   2.772  15.744  0.6685  0.2495 -2.1530
12238TIP3   OH258128   5.437   5.689   1.535  0.4367  0.4130  0.5918
12238TIP3    H158129   5.524   5.653   1.518  0.1155  0.0388 -0.3167
12238TIP3    H258130   5.435   5.772   1.488  0.0492  0.0624 -0.0284
12239TIP3   OH258131   0.028   0.503   1.782 -0.1579 -0.4458  0.3796
12239TIP3    H158132   0.074   0.500   1.865 -0.6944 -0.4675  0.6808
12239TIP3    H258133  -0.061   0.475   1.803 -2.1361  4.9931  1.0492
12240TIP3   OH258134   0.594   1.042  12.565 -0.2014 -0.7749 -0.9084
12240TIP3    H158135   0.681   1.065  12.533  0.0465  0.7682  0.7318
12240TIP3    H258136   0.610   0.977  12.633 -0.5462 -2.2038 -2.1342
12241TIP3   OH258137   6.477   5.215  17.051 -0.1068  0.4668  0.3410
12241TIP3    H158138   6.441   5.127  17.064  1.6920  0.0131  2.9208
12241TIP3    H258139   6.416   5.273  17.098 -1.1329  0.6465 -1.1189
12242TIP3   OH258140   1.898   3.698   1.803 -0.6249  0.0481 -0.1509
12242TIP3    H158141   1.978   3.713   1.753 -2.0488 -0.5029 -2.8063
12242TIP3    H258142   1.913   3.617   1.851  0.5897  0.2590 -0.1566
12243TIP3   OH258143   4.678   0.152  13.120 -0.5955 -0.0662 -0.3054
12243TIP3    H158144   4.591   0.155  13.081 -0.9260 -0.4163  0.3996
12243TIP3    H258145   4.677   0.075  13.177 -1.2088  2.1078  2.8850
12244TIP3   OH258146   1.154   0.217  11.780  0.5249  0.3068  0.0392
12244TIP3    H158147   1.121   0.292  11.830  0.6785  1.1666 -1.1045
12244TIP3    H258148   1.133   0.238  11.689 -1.9614 -2.3259 -0.1331
12245TIP3   OH258149   0.075   2.666   0.779  0.2786 -0.7758  0.0715
12245TIP3    H158150   0.151   2.608   0.766  0.9772  0.3220 -1.0058
12245TIP3    H258151   0.066   2.711   0.695 -1.4497 -0.7191  0.2650
12246TIP3   OH258152   5.290   2.975  16.139  0.5817  0.3857 -0.1538
12246TIP3    H158153   5.373   3.021  16.149 -0.3512  2.2584 -0.6779
12246TIP3    H258154   5.252   2.975  16.227  1.4274 -1.1429  0.2474
12247TIP3   OH258155   5.201   4.160  11.149 -0.2485  0.1490 -0.5086
12247TIP3    H158156   5.111   4.170  11.118 -0.3422  4.3343  0.5775
12247TIP3    H258157   5.254   4.204  11.083  0.5021  1.1475  0.7132
12248TIP3   OH258158   6.480   5.811   4.884 -0.3858 -0.4722  0.1503
12248TIP3    H158159   6.507   5.749   4.816  0.7117  2.4475 -2.2957
12248TIP3    H258160   6.431   5.878   4.837 -1.8945  0.3859  2.7386
12249TIP3   OH258161   5.305   1.576  12.638 -0.2601  0.0473 -0.0770
12249TIP3    H158162   5.320   1.487  12.670 -0.7825  0.0460  0.1635
12249TIP3    H258163   5.330   1.632  12.711 -0.1162  0.0968 -0.1625
12250TIP3   OH258164   6.227   0.081  11.459 -0.2089  0.0176  0.2398
12250TIP3    H158165   6.199   0.021  11.390  0.3634 -0.9935  0.8545
12250TIP3    H258166   6.322   0.082  11.453 -0.2480  2.1732 -0.8086
12251TIP3   OH258167   3.061   4.355  17.090 -0.1287  0.4388 -1.0460
12251TIP3    H158168   2.975   4.331  17.055  0.1736 -1.2317 -0.7090
12251TIP3    H258169   3.047   4.362  17.184  0.1121  0.1512 -0.9900
12252TIP3   OH258170   0.079   5.846  16.116 -0.5090  0.4279 -0.0361
12252TIP3    H158171   0.061   5.934  16.149 -2.5860 -0.0749  0.3218
12252TIP3    H258172   0.058   5.787  16.189 -0.9614 -0.4620 -0.8562
12253TIP3   OH258173   2.285   1.309   1.093  0.1428 -0.0072 -0.1196
12253TIP3    H158174   2.333   1.254   1.154  0.1740 -0.3596 -0.4614
12253TIP3    H258175   2.192   1.290   1.110  0.1646 -1.7003 -1.6127
12254TIP3   OH258176   2.860   3.774   3.455  0.8731  0.3184  0.0167
12254TIP3    H158177   2.887   3.758   3.546  3.3819  0.4959 -0.6295
12254TIP3    H258178   2.921   3.840   3.423 -2.4150  3.3492 -0.6728
12255TIP3   OH258179   5.269   1.692  12.982 -0.3715  0.7398 -0.2221
12255TIP3    H158180   5.279   1.603  13.017  1.0252  0.2422 -1.7227
12255TIP3    H258181   5.349   1.706  12.931 -0.9908  2.5200 -0.7715
12256TIP3   OH258182   1.327   1.507  12.889 -0.0506  0.7413 -0.0135
12256TIP3    H158183   1.417   1.528  12.863 -0.1046 -0.8592 -1.7277
12256TIP3    H258184   1.330   1.415  12.913 -1.0890  0.8765  0.7055
12257TIP3   OH258185   4.491   2.484  12.637  0.1942 -0.7482  0.2103
12257TIP3    H158186   4.423   2.447  12.581  0.5499  0.1527 -0.8545
12257TIP3    H258187   4.455   2.567  12.667  1.4498  0.6250 -1.8289
12258TIP3   OH258188   3.671   5.685   4.277  0.5801 -0.3166  0.4682
12258TIP3    H158189   3.594   5.742   4.269 -0.8222 -2.1490  0.0819
12258TIP3    H258190   3.711   5.687   4.190  0.6655  0.2522  0.5216
12259TIP3   OH258191   0.562   0.910   2.824  0.3432  0.3336 -0.4665
12259TIP3    H158192   0.479   0.953   2.846  0.8561  0.7512  0.7429
12259TIP3    H258193   0.536   0.823   2.793 -0.5734  0.6459 -0.6111
12260TIP3   OH258194   2.396   1.848   3.687  0.0276  0.6288  0.2101
12260TIP3    H158195   2.405   1.774   3.627 -0.2533  0.4999  0.3260
12260TIP3    H258196   2.486   1.867   3.715 -0.0235 -0.5544  1.2472
12261TIP3   OH258197   6.060   1.472  16.222  1.0131  0.2867  0.6658
12261TIP3    H158198   6.140   1.483  16.275  1.4265 -0.3383  0.1856
12261TIP3    H258199   5.996   1.436  16.284  0.9157  1.3348  1.1984
12262TIP3   OH258200   1.796   5.199   6.721  0.3800  0.1301 -0.1583
12262TIP3    H158201   1.809   5.117   6.768  0.3918  0.3764  0.2705
12262TIP3    H258202   1.757   5.173   6.638 -0.2355 -0.2623  0.2418
12263TIP3   OH258203   2.781   2.199   0.055  0.0874 -0.0641 -0.0169
12263TIP3    H158204   2.812   2.165  -0.029 -0.6168  0.1391 -0.3690
12263TIP3    H258205   2.750   2.122   0.102 -0.0563 -0.1061 -0.1796
12264TIP3   OH258206   6.051   5.347   5.014  0.3864 -0.5026  0.8624
12264TIP3    H158207   6.029   5.406   5.086  0.8010  1.3546 -0.4439
12264TIP3    H258208   5.969   5.340   4.964  1.0430  1.4886 -0.6358
12265TIP3   OH258209   4.468   0.357  11.544 -0.4206 -0.1584 -0.0459
12265TIP3    H158210   4.415   0.280  11.564 -0.3709 -0.1100  0.2862
12265TIP3    H258211   4.458   0.413  11.621 -2.4680  1.3018 -1.3013
12266TIP3   OH258212   2.719   0.965   0.811 -0.0739  0.2447 -0.7555
12266TIP3    H158213   2.710   1.059   0.799 -0.8558  0.4162  0.9336
12266TIP3    H258214   2.794   0.955   0.869 -0.2902 -0.1379 -0.5331
12267TIP3   OH258215   1.609   1.403   3.061  0.0415  0.4209 -0.4224
12267TIP3    H158216   1.585   1.461   3.133  0.9654 -0.9819  1.0890
12267TIP3    H258217   1.652   1.461   2.998 -1.4051  1.8025 -0.2130
12268TIP3   OH258218   1.060   6.078   4.682 -0.8715 -0.2587 -0.2546
12268TIP3    H158219   1.084   6.109   4.595 -0.6382 -0.3824 -0.2343
12268TIP3    H258220   1.027   5.989   4.668 -0.8069 -0.2889 -0.2115
12269TIP3   OH258221   0.543   2.078  15.347 -0.6356 -0.1906  0.0392
12269TIP3    H158222   0.508   2.014  15.285  1.8223 -0.5964 -1.0354
12269TIP3    H258223   0.578   2.148  15.293  1.5654 -0.5455  0.8989
12270TIP3   OH258224   6.140   4.608   3.570  0.1329  0.2619 -0.2118
12270TIP3    H158225   6.222   4.603   3.521 -0.3738 -3.2641 -1.0338
12270TIP3    H258226   6.164   4.582   3.659 -0.0272 -0.9249 -0.4880
12271TIP3   OH258227   4.804   4.485  14.052  0.2859  0.3596 -0.3338
12271TIP3    H158228   4.857   4.405  14.058  0.1790  0.4153  2.1870
12271TIP3    H258229   4.867   4.556  14.064 -0.2026  0.4374  2.3311
12272TIP3   OH258230   0.793   1.211   2.350 -0.1489  0.1173  0.0090
12272TIP3    H158231   0.700   1.197   2.370 -0.0501 -2.1642 -0.8006
12272TIP3    H258232   0.835   1.218   2.435 -1.0282  0.9234  0.3891
12273TIP3   OH258233   5.777   2.197   1.414  0.1780  0.3064  0.1495
12273TIP3    H158234   5.693   2.240   1.430  1.8057  3.0489  1.9622
12273TIP3    H258235   5.788   2.138   1.488  0.4155  0.8904  0.5813
12274TIP3   OH258236   1.699   5.765  13.559  0.2773  0.3880 -0.0382
12274TIP3    H158237   1.607   5.744  13.573  0.4650  0.7049  1.8113
12274TIP3    H258238   1.747   5.687  13.588  0.6277  0.2081 -1.0270
12275TIP3   OH258239   4.574   0.814   4.682  0.1499 -0.0800  0.3813
12275TIP3    H158240   4.666   0.814   4.707  0.5531  1.3752 -0.9287
12275TIP3    H258241   4.568   0.880   4.613 -2.1431  0.9420  1.4568
12276TIP3   OH258242   5.532   0.764  13.048  0.3483 -0.0167 -0.3083
12276TIP3    H158243   5.466   0.712  13.095  2.1169 -1.7118  0.4329
12276TIP3    H258244   5.567   0.824  13.114  2.1511 -1.7389  0.4098
12277TIP3   OH258245   6.331   3.675  12.718  0.3502 -0.3313  0.1352
12277TIP3    H158246   6.284   3.683  12.801 -0.1759  0.9696 -0.2649
12277TIP3    H258247   6.264   3.688  12.651  1.4036  3.2380 -0.4553
12278TIP3   OH258248   6.602   2.191  13.487 -0.4636 -0.6056 -0.2354
12278TIP3    H158249   6.661   2.189  13.411 -0.4693 -2.0740 -0.2391
12278TIP3    H258250   6.623   2.110  13.535 -2.1142 -0.8930  0.0447
12279TIP3   OH258251   0.233   1.762  16.706  0.2551  0.0376  0.1783
12279TIP3    H158252   0.144   1.792  16.686  0.3941  0.2443 -0.1367
12279TIP3    H258253   0.290   1.819  16.655  0.6969  1.4350  2.1365
12280TIP3   OH258254   4.487   4.198  13.693  0.5630  0.0348  0.2796
12280TIP3    H158255   4.450   4.269  13.746 -0.2243 -0.0096 -0.2004
12280TIP3    H258256   4.411   4.156  13.652  1.1278 -0.1709 -0.5866
12281TIP3   OH258257   5.920   2.381   4.168  0.5390  0.1035  0.6082
12281TIP3    H158258   6.015   2.373   4.177  0.4960 -0.3422  0.6969
12281TIP3    H258259   5.900   2.468   4.204  0.6547 -0.6568  2.6390
12282TIP3   OH258260   6.051   0.877   4.604 -0.4489 -0.1184 -0.3747
12282TIP3    H158261   6.038   0.907   4.694  1.9331  1.5422 -0.4978
12282TIP3    H258262   6.137   0.835   4.605 -0.2024  0.2984 -1.9467
12283TIP3   OH258263   0.713   6.767   2.697 -0.2682  0.6212 -0.3282
12283TIP3    H158264   0.780   6.815   2.745 -1.0894 -0.0018  1.5488
12283TIP3    H258265   0.749   6.679   2.687  0.1117  0.8766 -1.3682
12284TIP3   OH258266   5.143   6.230  17.054  0.0198 -0.6295 -0.4767
12284TIP3    H158267   5.168   6.204  16.966 -2.2427  1.2604 -1.8008
12284TIP3    H258268   5.070   6.291  17.042 -0.0443  0.1402  2.6883
12285TIP3   OH258269   2.673   4.535  11.611  0.0967 -0.6147  0.5930
12285TIP3    H158270   2.646   4.444  11.622  0.0317 -0.6672 -0.0113
12285TIP3    H258271   2.728   4.535  11.533  0.5554 -0.2308  0.9061
12286TIP3   OH258272   3.155   4.542   4.290  0.2283  0.1988  0.4833
12286TIP3    H158273   3.116   4.589   4.217  0.6930 -1.9557 -1.2666
12286TIP3    H258274   3.249   4.557   4.281  0.1643  2.0742  2.2837
12287TIP3   OH258275   0.415   6.206   1.578  0.1688  0.1525 -0.2640
12287TIP3    H158276   0.335   6.244   1.542  0.4942  0.7362 -0.3771
12287TIP3    H258277   0.385   6.127   1.623 -0.2817 -0.4419 -1.5594
12288TIP3   OH258278   4.747   5.977   4.134  0.1174 -0.0497  0.5636
12288TIP3    H158279   4.791   5.897   4.106 -0.6521 -1.1307  2.3068
12288TIP3    H258280   4.689   5.999   4.061  1.7473  0.0849 -0.7638
12289TIP3   OH258281   2.764   0.542  11.698  0.6560 -0.0289 -0.0341
12289TIP3    H158282   2.745   0.537  11.792 -0.4038  0.9855 -0.1661
12289TIP3    H258283   2.735   0.457  11.664  2.5411 -1.0450  0.7637
12290TIP3   OH258284   3.278   6.436   5.424 -1.3206  0.4054  0.0137
12290TIP3    H158285   3.361   6.406   5.462 -0.4238  2.0360 -0.5713
12290TIP3    H258286   3.213   6.374   5.458  0.2309 -1.4789 -0.2242
12291TIP3   OH258287   6.571   5.377  13.553  0.5986  0.1809  0.1883
12291TIP3    H158288   6.483   5.371  13.590  1.1178  1.7513  1.7869
12291TIP3    H258289   6.619   5.434  13.613  2.0522  1.2767 -1.8959
12292TIP3   OH258290   3.037   4.272  14.736 -0.1037  0.1387 -0.1284
12292TIP3    H158291   3.063   4.321  14.814  0.6768 -1.0693  0.3946
12292TIP3    H258292   2.945   4.248  14.752  0.6221 -1.9212  1.4644
12293TIP3   OH258293   1.021   0.523   2.992 -0.4229 -0.6655  0.1211
12293TIP3    H158294   0.946   0.578   2.971 -0.6640 -0.9236  0.2934
12293TIP3    H258295   0.986   0.434   2.992 -0.3439 -0.7131  1.1798
12294TIP3   OH258296   2.432   0.765  13.625 -0.1133  0.6919 -0.1333
12294TIP3    H158297   2.407   0.800  13.710  0.3158  0.2642  0.1737
12294TIP3    H258298   2.358   0.711  13.598 -0.0169  0.3748  0.2311
12295TIP3   OH258299   1.569   6.438  11.525  0.3280 -0.2161  0.2179
12295TIP3    H158300   1.536   6.378  11.592 -0.4493  2.2071  2.1400
12295TIP3    H258301   1.506   6.431  11.453 -1.2024  0.1387  1.4764
12296TIP3   OH258302   4.598   5.909   3.886  0.8156  0.2959 -0.4440
12296TIP3    H158303   4.576   5.835   3.829  1.2010 -0.5014  0.3973
12296TIP3    H258304   4.514   5.953   3.901 -0.1559 -1.9800  1.7399
12297TIP3   OH258305   3.713   0.808  14.314 -0.2316  0.0491 -0.4236
12297TIP3    H158306   3.798   0.768  14.331 -0.9369 -0.4805  2.3909
12297TIP3    H258307   3.730   0.876  14.248  2.6048  0.7447  0.8905
12298TIP3   OH258308   4.866   6.391  15.560 -0.2373 -0.1962  0.1646
12298TIP3    H158309   4.807   6.426  15.493 -0.8328  0.2108  0.8788
12298TIP3    H258310   4.831   6.304  15.579  1.7322 -1.6221 -2.2071
12299TIP3   OH258311   1.740   0.293   4.690 -0.0191  0.1896  0.7431
12299TIP3    H158312   1.798   0.368   4.677 -0.0731  0.7464  3.3250
12299TIP3    H258313   1.799   0.217   4.687  0.4260  0.5317  0.7160
12300TIP3   OH258314   4.818   0.199  14.035 -0.1808 -0.9420  0.2991
12300TIP3    H158315   4.823   0.210  13.940  0.2275  2.4033  0.5639
12300TIP3    H258316   4.886   0.135  14.056  2.9288  1.5085 -1.3775
12301TIP3   OH258317   1.937   6.054   3.066  0.0819  0.1674  0.3186
12301TIP3    H158318   1.895   6.113   3.004  0.1010  0.3995  0.5251
12301TIP3    H258319   2.027   6.088   3.074 -0.3739  1.1478  1.7252
12302TIP3   OH258320   3.330   5.742   6.125  0.6209  0.3040 -0.2662
12302TIP3    H158321   3.292   5.659   6.095  2.2996 -1.4032  1.9177
12302TIP3    H258322   3.309   5.745   6.219 -0.2669  2.9289 -0.4793
12303TIP3   OH258323   5.617   3.676   5.319 -0.1074  0.3876  0.6827
12303TIP3    H158324   5.668   3.685   5.238 -0.1328 -0.1576  0.6060
12303TIP3    H258325   5.535   3.635   5.291  0.6011 -1.5137  1.2359
12304TIP3   OH258326   1.132   4.354  14.764  0.6019  0.2713  0.5692
12304TIP3    H158327   1.070   4.318  14.826 -0.1741  1.7586  0.7135
12304TIP3    H258328   1.156   4.281  14.707 -0.3608 -0.5900  1.2570
12305TIP3   OH258329   6.388   4.392  14.208 -0.0775  0.2133 -0.1270
12305TIP3    H158330   6.343   4.476  14.210 -0.2854  0.0997  0.0628
12305TIP3    H258331   6.345   4.343  14.138 -1.7025 -0.6787  1.3905
12306TIP3   OH258332   1.411   0.856  11.402  0.1997  0.0399  0.0973
12306TIP3    H158333   1.503   0.847  11.378 -0.0251  0.2248 -0.8997
12306TIP3    H258334   1.406   0.939  11.450  0.7585 -0.6130  1.3293
12307TIP3   OH258335   1.368   0.318  12.551 -0.1608  0.1834  0.1706
12307TIP3    H158336   1.433   0.388  12.545 -0.5713  0.5408 -0.2772
12307TIP3    H258337   1.285   0.361  12.529 -0.4825 -0.3543  0.3125
12308TIP3   OH258338   2.079   1.007   2.322 -1.0766 -0.0135  0.0540
12308TIP3    H158339   2.094   0.968   2.408 -0.0984 -0.4636 -0.3139
12308TIP3    H258340   2.131   0.955   2.262  0.0830  1.6859 -0.4910
12309TIP3   OH258341   2.593   3.127  14.160  0.3346  0.0024  0.5650
12309TIP3    H158342   2.635   3.141  14.245 -0.4518  0.5952  0.8793
12309TIP3    H258343   2.584   3.032  14.153  2.6508 -0.2316 -0.0021
12310TIP3   OH258344   5.612   1.908  15.292  0.0463 -0.6766 -0.0794
12310TIP3    H158345   5.675   1.882  15.224  0.7534 -1.4967  0.8582
12310TIP3    H258346   5.656   1.978  15.340 -0.1159 -0.6472  0.0253
12311TIP3   OH258347   5.712   6.550   1.127 -0.5680  0.0889 -0.1155
12311TIP3    H158348   5.737   6.593   1.209 -0.5339 -0.4871  0.1838
12311TIP3    H258349   5.742   6.459   1.138 -0.5964  0.0009 -0.7503
12312TIP3   OH258350   0.456   2.934   1.862  0.5857  0.1212 -0.2080
12312TIP3    H158351   0.429   2.881   1.787 -0.2472 -0.8694  0.7567
12312TIP3    H258352   0.486   2.870   1.927 -0.9530  0.7331  1.1944
12313TIP3   OH258353   4.000   3.572   4.052 -0.4006  0.2901 -0.3185
12313TIP3    H158354   3.945   3.497   4.077 -0.6353  0.1160 -1.3140
12313TIP3    H258355   4.090   3.541   4.063 -0.4821 -0.4569 -1.5717
12314TIP3   OH258356   0.283   2.561  15.339  0.1210 -0.0527 -0.9000
12314TIP3    H158357   0.308   2.621  15.268 -1.4353  1.0474 -0.5958
12314TIP3    H258358   0.206   2.515  15.305  1.1475 -1.7437 -1.0248
12315TIP3   OH258359   6.762   0.539   5.596 -0.1798 -0.3970 -0.1025
12315TIP3    H158360   6.855   0.518   5.606 -0.0381 -1.0448 -2.2489
12315TIP3    H258361   6.761   0.633   5.578 -0.2216  0.1832  2.5965
12316TIP3   OH258362   1.226   1.347  16.870 -0.4001  0.2221  0.1563
12316TIP3    H158363   1.168   1.415  16.837 -1.9610 -0.1365  1.9910
12316TIP3    H258364   1.220   1.355  16.965  2.2279 -0.1592  0.4226
12317TIP3   OH258365   3.122   2.945  14.308 -0.4788 -0.4462  0.1074
12317TIP3    H158366   3.117   2.995  14.227 -0.1034  0.2747  0.5178
12317TIP3    H258367   3.119   3.011  14.378 -0.5515 -1.0320  0.6750
12318TIP3   OH258368   0.807   5.459   3.535  0.1160  0.0830 -0.3357
12318TIP3    H158369   0.811   5.445   3.440  3.4612 -0.9653 -0.1789
12318TIP3    H258370   0.892   5.428   3.567 -0.4195  1.5571  2.8749
12319TIP3   OH258371   2.099   3.251   5.527  0.0020 -0.4657  0.1475
12319TIP3    H158372   2.158   3.315   5.486  0.0514 -0.3880  0.3380
12319TIP3    H258373   2.143   3.227   5.609  0.0762 -0.8915 -0.0178
12320TIP3   OH258374   6.598   2.239  13.855  0.5616 -0.4332 -0.5315
12320TIP3    H158375   6.689   2.265  13.838  1.0558 -0.5302  1.7464
12320TIP3    H258376   6.546   2.312  13.820  1.6174  0.5192 -0.1789
12321TIP3   OH258377   4.575   0.443   0.379  0.3766 -0.3982 -0.2177
12321TIP3    H158378   4.656   0.465   0.426  0.7900 -1.1569 -0.5540
12321TIP3    H258379   4.605   0.412   0.294 -0.4066  1.7099 -1.3180
12322TIP3   OH258380   0.341   5.650  14.260 -0.2111  0.1745  0.1233
12322TIP3    H158381   0.397   5.573  14.252  0.7965  0.9518 -0.6030
12322TIP3    H258382   0.346   5.692  14.174 -0.5735  1.1492  0.5633
12323TIP3   OH258383   5.672   0.804  16.965 -0.0770  0.5859  0.1256
12323TIP3    H158384   5.587   0.839  16.937  0.1323  1.3121  0.3834
12323TIP3    H258385   5.726   0.810  16.886  0.9799  4.0822  0.9349
12324TIP3   OH258386   5.299   0.427   5.064  0.3727 -0.1409  0.0919
12324TIP3    H158387   5.350   0.403   4.987  0.3825 -0.8021  0.2982
12324TIP3    H258388   5.218   0.377   5.055 -1.3944  2.7988 -1.5490
12325TIP3   OH258389   3.813   4.914   0.132  0.3252  0.1786  0.2333
12325TIP3    H158390   3.761   4.938   0.208  0.1926  0.5284  0.0374
12325TIP3    H258391   3.878   4.985   0.124  0.1215  0.3220 -0.1774
12326TIP3   OH258392   5.542   5.152  11.079 -0.4910  0.2959 -0.0635
12326TIP3    H158393   5.575   5.106  11.001 -1.0507 -0.8888  0.3852
12326TIP3    H258394   5.469   5.204  11.047 -1.6846 -1.3258 -0.1177
12327TIP3   OH258395   1.683   0.928  13.400 -0.3590 -0.2848 -0.0844
12327TIP3    H158396   1.659   0.958  13.488  1.7069  0.9575  0.1217
12327TIP3    H258397   1.757   0.983  13.375 -0.1229 -1.4213 -2.1326
12328TIP3   OH258398   0.487   6.388   2.608  0.0245  0.3905  0.0533
12328TIP3    H158399   0.495   6.402   2.702 -0.4871 -1.2314  0.3793
12328TIP3    H258400   0.575   6.363   2.580  0.4826  2.1378 -0.1740
12329TIP3   OH258401   0.301   5.667  15.038  0.0267 -0.5069 -0.4826
12329TIP3    H158402   0.275   5.757  15.018  0.7581 -0.2532 -0.3168
12329TIP3    H258403   0.268   5.652  15.127  0.6827 -0.0891 -0.1642
12330TIP3   OH258404   4.082   1.111   1.654  0.1830 -1.0526 -0.1849
12330TIP3    H158405   4.148   1.046   1.678 -0.9247 -2.6151 -1.2077
12330TIP3    H258406   4.125   1.195   1.671  2.2818 -2.0001 -0.4118
12331TIP3   OH258407   4.124   6.639   0.547 -0.2434 -0.3727 -0.0905
12331TIP3    H158408   4.166   6.724   0.533  0.9681 -1.2802 -2.4146
12331TIP3    H258409   4.114   6.602   0.460 -0.7290 -2.6297  0.8478
12332TIP3   OH258410   2.135   5.669  12.122  0.2884  0.2529 -0.1041
12332TIP3    H158411   2.070   5.611  12.160  0.4540  0.1260 -0.0124
12332TIP3    H258412   2.103   5.686  12.033 -0.7038  1.4927  0.4616
12333TIP3   OH258413   3.429   1.698   4.620 -0.5796  0.1849  0.6728
12333TIP3    H158414   3.479   1.655   4.551 -0.1743  0.3358  0.8677
12333TIP3    H258415   3.345   1.653   4.620  0.0328 -1.0087  1.2504
12334TIP3   OH258416   0.642   3.351  15.709 -0.5762 -0.2946  0.4859
12334TIP3    H158417   0.690   3.432  15.695 -1.5103  0.0713 -0.7733
12334TIP3    H258418   0.672   3.320  15.794 -0.0437  1.2506  0.8933
12335TIP3   OH258419   3.484   1.503  16.730  0.5002  0.0734 -0.1718
12335TIP3    H158420   3.559   1.535  16.681  1.3528 -1.3577  0.1362
12335TIP3    H258421   3.491   1.545  16.816 -0.2209  1.5066 -0.7846
12336TIP3   OH258422   2.951   6.409  11.642  0.0893  0.3149 -0.4597
12336TIP3    H158423   2.885   6.468  11.606 -1.6165 -1.6055 -0.6650
12336TIP3    H258424   2.935   6.410  11.736  0.6899  0.9014 -0.3629
12337TIP3   OH258425   6.789   1.629  13.890 -0.6145 -0.1828  0.0111
12337TIP3    H158426   6.793   1.613  13.985 -1.1748 -2.2407 -0.2759
12337TIP3    H258427   6.696   1.642  13.872 -0.7796 -1.9605 -0.5457
12338TIP3   OH258428   0.077   4.538   4.814  0.2031 -0.1251 -0.1833
12338TIP3    H158429   0.063   4.540   4.908 -2.7188 -0.7426 -0.5130
12338TIP3    H258430   0.049   4.624   4.784  1.1181  0.0684 -0.4991
12339TIP3   OH258431   5.154   4.854  13.295 -0.3907 -0.3256 -0.3423
12339TIP3    H158432   5.201   4.771  13.289 -0.0801 -0.0562 -2.4950
12339TIP3    H258433   5.216   4.914  13.337  0.7931 -0.2990 -2.0169
12340TIP3   OH258434   1.588   0.809   0.217 -0.1408 -0.7187  0.0777
12340TIP3    H158435   1.593   0.899   0.247  2.7080 -1.4998  2.4214
12340TIP3    H258436   1.621   0.811   0.127  0.4960  0.4820  0.3261
12341TIP3   OH258437   2.310   5.488   0.711 -0.1542  0.1579  0.5042
12341TIP3    H158438   2.333   5.579   0.733  3.0935 -0.6419  0.9482
12341TIP3    H258439   2.393   5.448   0.686 -1.7183 -2.3687 -1.0377
12342TIP3   OH258440   3.310   6.348  16.494  0.8161  0.0460  0.0432
12342TIP3    H158441   3.327   6.432  16.536  0.9125  0.2051 -0.3098
12342TIP3    H258442   3.219   6.353  16.465  0.8147  0.0188  0.0425
12343TIP3   OH258443   0.977   1.598   5.242 -0.0801 -0.7656 -0.5614
12343TIP3    H158444   0.963   1.551   5.159 -0.0718 -2.1892  0.2240
12343TIP3    H258445   1.064   1.570   5.271  0.9242  1.4904 -1.1631
12344TIP3   OH258446   0.136   0.488  10.383  0.1627 -0.6175  0.3959
12344TIP3    H158447   0.144   0.572  10.429 -0.0688 -0.6534  0.5048
12344TIP3    H258448   0.210   0.486  10.323  0.5762 -0.6471  0.8971
12345TIP3   OH258449   0.099   2.046   0.794  0.6133 -0.3397 -0.0176
12345TIP3    H158450   0.148   2.122   0.826 -0.3265  1.1345 -1.9011
12345TIP3    H258451   0.090   1.989   0.871  1.3105  1.4581  1.4618
12346TIP3   OH258452   5.305   3.703   0.403  0.2528 -0.1605  0.4485
12346TIP3    H158453   5.327   3.669   0.490  2.4027 -0.6282 -0.2070
12346TIP3    H258454   5.322   3.630   0.343  1.8879  1.0484 -0.6641
12347TIP3   OH258455   4.699   1.279  13.575  0.0788 -0.1879 -0.2798
12347TIP3    H158456   4.777   1.279  13.520  0.2867 -1.1286 -0.0012
12347TIP3    H258457   4.660   1.365  13.560  0.4514 -0.1925 -1.4370
12348TIP3   OH258458   0.420   3.625  11.551 -0.4138  1.0098  0.1695
12348TIP3    H158459   0.503   3.669  11.570 -0.6439  0.8073  1.7914
12348TIP3    H258460   0.438   3.571  11.474  1.4222 -0.1969  1.3645
12349TIP3   OH258461   1.873   5.885  14.499  0.0533  0.8880 -0.3372
12349TIP3    H158462   1.810   5.837  14.554 -0.2079  0.8362 -0.6824
12349TIP3    H258463   1.955   5.882  14.549  0.2153 -0.4637 -0.6296
12350TIP3   OH258464   3.141   0.334  12.343  0.0349  0.0232 -0.0613
12350TIP3    H158465   3.151   0.239  12.336 -0.4991 -0.1464  1.1703
12350TIP3    H258466   3.221   0.363  12.387 -0.4632 -0.0836  0.9667
12351TIP3   OH258467   6.384   4.720  14.530  0.7487 -0.1306  0.8660
12351TIP3    H158468   6.366   4.807  14.566  1.6214 -0.9103  3.3806
12351TIP3    H258469   6.406   4.736  14.438 -1.4115  2.0191  0.6242
12352TIP3   OH258470   2.193   1.557  15.090  0.5354  0.4736 -0.0573
12352TIP3    H158471   2.130   1.629  15.082  0.1404  0.2214  0.7027
12352TIP3    H258472   2.214   1.553  15.183 -2.3410 -2.7574  0.6506
12353TIP3   OH258473   1.993   0.854   3.273  0.7022 -0.2407 -0.1717
12353TIP3    H158474   1.928   0.783   3.266  1.0566 -0.5028 -0.9348
12353TIP3    H258475   1.954   0.916   3.335 -0.7403  0.1030 -1.3650
12354TIP3   OH258476   4.343   0.797  15.564  1.0676 -0.0130  0.1642
12354TIP3    H158477   4.285   0.722  15.566  0.0049  0.7485 -0.8929
12354TIP3    H258478   4.341   0.828  15.474  2.8635  0.2521  0.1758
12355TIP3   OH258479   0.757   2.706  15.126 -0.1093  0.1788  1.2557
12355TIP3    H158480   0.777   2.795  15.097  1.9063 -0.6457 -0.0787
12355TIP3    H258481   0.692   2.674  15.063  0.7866 -0.0197  0.4189
12356TIP3   OH258482   1.382   4.008  12.597  0.3918 -0.0328  0.9251
12356TIP3    H158483   1.363   3.932  12.651 -1.6644  0.0687  0.4485
12356TIP3    H258484   1.381   4.082  12.658  3.6387 -0.4308  1.6001
12357TIP3   OH258485   4.314   2.819   5.418  0.5525  0.4793 -0.1462
12357TIP3    H158486   4.345   2.817   5.508  2.3934  2.2109 -0.6708
12357TIP3    H258487   4.294   2.911   5.401 -2.4110 -0.1515 -0.7340
12358TIP3   OH258488   6.429   5.722   2.897  0.0787  0.0568  0.1730
12358TIP3    H158489   6.443   5.806   2.941 -1.7590  0.9833 -0.9030
12358TIP3    H258490   6.505   5.712   2.840  1.3583 -0.0652  1.8195
12359TIP3   OH258491   4.559   0.305  15.717  0.3902  0.0561 -0.4239
12359TIP3    H158492   4.613   0.229  15.739 -0.7473 -0.4633  0.7255
12359TIP3    H258493   4.474   0.267  15.693 -0.0411  0.9335 -0.3066
12360TIP3   OH258494   3.660   4.645   3.148  0.1685  0.3413  0.3357
12360TIP3    H158495   3.620   4.626   3.233 -0.2550 -0.4587 -0.0301
12360TIP3    H258496   3.621   4.727   3.121  1.0173  1.1060  1.3396
12361TIP3   OH258497   0.852   1.445   0.457  0.3246  1.0873  0.0757
12361TIP3    H158498   0.931   1.493   0.435  0.6905  0.1212 -0.8615
12361TIP3    H258499   0.789   1.512   0.483  0.9620  2.0136 -0.6939
12362TIP3   OH258500   3.095   6.611  14.904 -0.2088  0.3489  0.2061
12362TIP3    H158501   3.161   6.542  14.896 -2.0160 -1.3578 -1.2743
12362TIP3    H258502   3.141   6.684  14.944  2.2272 -1.1701  0.4003
12363TIP3   OH258503   1.895   3.731   0.063 -0.3297  0.1494  0.0178
12363TIP3    H158504   1.819   3.762   0.015  0.7973 -0.9009 -2.6330
12363TIP3    H258505   1.938   3.670   0.003  1.6871 -0.5835  2.0670
12364TIP3   OH258506   0.330   1.733  12.819  0.3912  0.1335 -0.3473
12364TIP3    H158507   0.387   1.657  12.811 -0.1886 -0.3389 -0.0442
12364TIP3    H258508   0.356   1.790  12.746  0.1460 -0.8021 -1.1942
12365TIP3   OH258509   2.501   1.653  15.875 -0.0019  0.3064  0.3833
12365TIP3    H158510   2.522   1.592  15.804  2.4090 -0.2365  1.4625
12365TIP3    H258511   2.478   1.735  15.830  0.5858 -0.2631 -1.0342
12366TIP3   OH258512   2.926   0.707  15.151 -0.8041 -0.2885 -0.7026
12366TIP3    H158513   2.986   0.766  15.105  0.5052 -0.7864  0.3015
12366TIP3    H258514   2.932   0.624  15.102 -1.4850 -0.0373 -1.2196
12367TIP3   OH258515   0.543   2.893  12.468  0.3975  0.4672 -1.0161
12367TIP3    H158516   0.457   2.884  12.510  1.1826 -1.4376  0.3359
12367TIP3    H258517   0.582   2.970  12.510 -0.1090  0.5094 -0.6139
12368TIP3   OH258518   6.144   0.496   2.465 -0.1373 -0.8338 -0.4965
12368TIP3    H158519   6.068   0.550   2.485 -0.0078 -0.8151 -0.0555
12368TIP3    H258520   6.148   0.432   2.536  0.0673 -1.0425 -0.6922
12369TIP3   OH258521   1.385   1.435   1.152  0.6529 -0.1426  0.0873
12369TIP3    H158522   1.448   1.502   1.176  1.9268 -1.0891 -0.5190
12369TIP3    H258523   1.392   1.370   1.222  1.0519 -0.7113 -0.4762
12370TIP3   OH258524   2.665   2.127  12.856 -0.4027 -0.1605  0.3219
12370TIP3    H158525   2.737   2.157  12.801  0.2854 -0.4227  1.0649
12370TIP3    H258526   2.704   2.061  12.913 -1.7220 -1.9291 -0.7461
12371TIP3   OH258527   5.220   0.557   5.892  0.2194 -0.2658 -0.2168
12371TIP3    H158528   5.150   0.611   5.855  0.5426 -0.3401 -0.9591
12371TIP3    H258529   5.197   0.468   5.865  1.8069 -0.0596 -2.5307
12372TIP3   OH258530   3.864   1.107  16.253 -0.0764  0.3006  0.0819
12372TIP3    H158531   3.771   1.084  16.246  0.3141 -0.8811 -2.3013
12372TIP3    H258532   3.910   1.025  16.233  1.4442  1.3870 -1.0252
12373TIP3   OH258533   5.045   2.848  13.420 -0.7547 -0.0712 -0.6266
12373TIP3    H158534   4.976   2.903  13.458  0.6595  1.0245  0.4326
12373TIP3    H258535   5.019   2.838  13.328 -2.3453  0.2563 -0.2456
12374TIP3   OH258536   1.569   6.295   0.705  0.6177  0.0811  0.4376
12374TIP3    H158537   1.606   6.231   0.643  0.0752 -1.9721  2.1291
12374TIP3    H258538   1.645   6.339   0.741  1.0806 -0.3233 -0.0123
12375TIP3   OH258539   2.624   3.773   0.864  0.5850  0.3190  0.1371
12375TIP3    H158540   2.670   3.699   0.825  1.9052  0.8472  0.6493
12375TIP3    H258541   2.546   3.785   0.810  0.6209 -1.1112 -0.2569
12376TIP3   OH258542   0.375   4.399  14.943  0.7247 -0.3913 -0.1482
12376TIP3    H158543   0.409   4.401  15.032  0.1093 -1.0592  0.1064
12376TIP3    H258544   0.452   4.411  14.888  1.6041 -3.0353  0.3795
12377TIP3   OH258545   0.578   5.039  15.436 -0.2679  0.4037 -0.4159
12377TIP3    H158546   0.618   5.094  15.504  0.6914 -1.6888  0.8099
12377TIP3    H258547   0.613   5.074  15.354  0.9171  1.1675  0.3787
12378TIP3   OH258548   3.290   6.201   1.809  0.4839  0.4959 -0.0034
12378TIP3    H158549   3.270   6.167   1.722 -0.0986  0.9053 -0.0333
12378TIP3    H258550   3.308   6.123   1.862  0.9661  0.2522 -0.5192
12379TIP3   OH258551   3.391   1.900  15.271  0.5485 -0.2143  0.5156
12379TIP3    H158552   3.436   1.844  15.208  0.9301 -0.1923  0.7602
12379TIP3    H258553   3.323   1.845  15.308  0.4547 -0.2906  0.2326
12380TIP3   OH258554   4.266   6.324  14.351 -0.3364 -0.4772  0.4718
12380TIP3    H158555   4.320   6.245  14.357 -0.9309 -0.7836  2.4549
12380TIP3    H258556   4.327   6.396  14.366 -0.1176 -0.6745  0.5252
12381TIP3   OH258557   2.814   4.476   2.023 -0.4758 -0.3003 -0.6064
12381TIP3    H158558   2.816   4.543   1.954  1.8601  0.8967  0.5330
12381TIP3    H258559   2.880   4.504   2.086 -2.6226 -1.2251  2.2839
12382TIP3   OH258560   1.657   1.310   5.670  0.6724 -0.0268 -0.0595
12382TIP3    H158561   1.679   1.236   5.727  2.6079  0.8788  0.4406
12382TIP3    H258562   1.734   1.320   5.613 -0.8882 -0.4286 -2.3992
12383TIP3   OH258563   4.449   5.406   5.162  0.0489 -0.2971 -0.8436
12383TIP3    H158564   4.485   5.487   5.127  0.8414 -1.4762 -2.9999
12383TIP3    H258565   4.370   5.391   5.110 -0.9906 -0.1470  0.6229
12384TIP3   OH258566   1.269   2.646  12.040  0.2704 -0.4590  1.3531
12384TIP3    H158567   1.181   2.641  12.079 -0.0120 -0.2715  0.7556
12384TIP3    H258568   1.326   2.606  12.105 -0.2334 -0.4214  1.8294
12385TIP3   OH258569   1.876   0.050  14.410 -0.7453  0.2682 -0.3093
12385TIP3    H158570   1.880   0.140  14.379 -0.1735  0.2018 -0.4378
12385TIP3    H258571   1.932   0.048  14.487  1.3292 -0.5287 -1.7433
12386TIP3   OH258572   0.361   6.713   4.908  1.1518 -0.1433 -0.2524
12386TIP3    H158573   0.447   6.672   4.911  1.7288  1.0651  0.4517
12386TIP3    H258574   0.300   6.640   4.899  2.0868 -1.2211  1.5867
12387TIP3   OH258575   4.366   5.905  13.111  0.6703 -0.3284  0.1029
12387TIP3    H158576   4.383   5.811  13.107  2.6441 -0.0655  1.0064
12387TIP3    H258577   4.370   5.935  13.020  2.3529 -0.8007 -0.0133
12388TIP3   OH258578   0.669   0.662   5.489 -0.0806  0.4803  0.0503
12388TIP3    H158579   0.625   0.669   5.404 -1.4253  1.6805  0.7842
12388TIP3    H258580   0.618   0.596   5.537  0.5105 -0.0021  0.0202
12389TIP3   OH258581   0.667   5.210  15.928 -0.3129  0.1659  0.2781
12389TIP3    H158582   0.585   5.162  15.920 -0.8429  1.1562 -0.4395
12389TIP3    H258583   0.677   5.225  16.022 -0.3729 -0.8996  0.4724
12390TIP3   OH258584   5.695   5.612   1.570 -0.0438  0.2009  0.0641
12390TIP3    H158585   5.737   5.618   1.656  0.4323 -0.8725 -0.0785
12390TIP3    H258586   5.692   5.519   1.551 -1.1221  0.3602 -0.6223
12391TIP3   OH258587   5.315   1.575  10.612 -0.5525 -0.5813  0.1434
12391TIP3    H158588   5.224   1.604  10.618 -1.0657 -2.0988  0.1408
12391TIP3    H258589   5.364   1.639  10.663 -1.6105  0.2932  0.0944
12392TIP3   OH258590   2.004   4.756  16.982  0.2991 -0.4942 -0.5887
12392TIP3    H158591   2.018   4.695  17.055  0.4545 -0.3468 -0.4940
12392TIP3    H258592   2.015   4.842  17.021 -0.2775 -0.3952 -0.6469
12393TIP3   OH258593   1.364   4.365  12.034 -0.2925 -0.4132 -0.7438
12393TIP3    H158594   1.366   4.460  12.048 -0.8905 -0.2304 -1.8316
12393TIP3    H258595   1.455   4.338  12.045 -0.1887  0.2085  0.0478
12394TIP3   OH258596   4.003   5.118   2.159 -0.4084 -0.5026 -0.4843
12394TIP3    H158597   3.989   5.175   2.084 -1.0796 -0.8238 -0.6157
12394TIP3    H258598   4.035   5.176   2.228 -1.1941  0.0531 -0.5763
12395TIP3   OH258599   1.500   1.990   4.956 -0.6651  0.3985 -0.2467
12395TIP3    H158600   1.490   1.895   4.954  2.0598 -0.0177  1.0982
12395TIP3    H258601   1.425   2.021   5.005 -0.8450 -1.2265  0.5616
12396TIP3   OH258602   6.057   4.209   3.611 -0.4088 -0.1467 -0.6491
12396TIP3    H158603   6.117   4.225   3.538 -1.8501  2.1042 -1.4416
12396TIP3    H258604   5.995   4.144   3.578  0.6659 -1.3951 -0.3189
12397TIP3   OH258605   6.036   1.375   1.805 -0.2471 -0.5135 -0.1390
12397TIP3    H158606   6.053   1.464   1.775  0.1071 -1.2578 -2.3489
12397TIP3    H258607   5.950   1.380   1.848 -1.3201  0.5221 -2.2380
12398TIP3   OH258608   2.357   5.495  12.476  0.3598  0.9493  0.3869
12398TIP3    H158609   2.393   5.521  12.391  0.7378  0.0659  0.2723
12398TIP3    H258610   2.286   5.434  12.456  0.5883  0.5721  0.7087
12399TIP3   OH258611   1.998   4.769   1.797  0.3602  0.1846  0.5784
12399TIP3    H158612   1.906   4.775   1.771  0.7000 -0.7707 -1.0044
12399TIP3    H258613   2.023   4.859   1.816 -0.3245  0.8078 -1.2250
12400TIP3   OH258614   2.091   0.284   0.328 -0.5432 -0.3882  0.3036
12400TIP3    H158615   2.073   0.356   0.388  0.2490 -1.3520  1.7613
12400TIP3    H258616   2.185   0.270   0.335 -0.5190 -0.8476 -0.7894
12401TIP3   OH258617   1.416   1.457   6.369  0.4862 -0.4527  0.3154
12401TIP3    H158618   1.333   1.504   6.355  0.2582 -1.2127 -1.0131
12401TIP3    H258619   1.477   1.524   6.397 -0.0734  0.4879 -0.6530
12402TIP3   OH258620   6.583   1.765  14.292 -0.0299 -0.1737 -0.4008
12402TIP3    H158621   6.659   1.742  14.238  0.5295  0.6239  0.0244
12402TIP3    H258622   6.600   1.723  14.376  0.3125  0.5983 -0.0723
12403TIP3   OH258623   4.228   6.172   1.258 -0.5884  0.1179  0.1486
12403TIP3    H158624   4.267   6.158   1.345  1.9485 -2.4477 -1.2290
12403TIP3    H258625   4.160   6.104   1.252 -0.9857  0.5038  0.2183
12404TIP3   OH258626   3.906   3.773   2.849  1.1113 -0.0002 -0.2290
12404TIP3    H158627   3.993   3.758   2.885  1.0230  0.6582  0.2798
12404TIP3    H258628   3.864   3.687   2.850  1.0980 -0.0056  1.3138
12405TIP3   OH258629   6.617   6.239   3.412 -0.9949  0.8263 -0.3622
12405TIP3    H158630   6.683   6.250   3.481 -0.7390 -1.2852 -0.2023
12405TIP3    H258631   6.537   6.275   3.450 -0.3724  1.6878  0.1737
12406TIP3   OH258632   3.090   3.604  15.570 -0.6871 -0.3749  0.0143
12406TIP3    H158633   3.019   3.668  15.571 -2.4800 -2.2337 -0.0352
12406TIP3    H258634   3.087   3.563  15.656  1.2499  0.3866  0.5010
12407TIP3   OH258635   1.193   3.941   4.192 -0.0199 -0.3667 -0.1496
12407TIP3    H158636   1.182   4.030   4.225  0.1552 -0.5846  0.5318
12407TIP3    H258637   1.106   3.915   4.162  0.1781  0.4497 -1.4598
12408TIP3   OH258638   4.107   3.014  14.452 -0.2027  0.0085  0.2694
12408TIP3    H158639   4.095   3.102  14.416 -0.5076  0.7318  2.0530
12408TIP3    H258640   4.072   2.956  14.384 -2.2272  1.3899  0.0288
12409TIP3   OH258641   4.856   5.613   6.168  0.2379  0.2522  0.4997
12409TIP3    H158642   4.930   5.670   6.148  1.3645 -0.3858  2.4983
12409TIP3    H258643   4.875   5.580   6.256 -1.3087 -1.7103  0.1651
12410TIP3   OH258644   2.930   3.274  15.528  0.1752 -0.3389 -0.3520
12410TIP3    H158645   2.858   3.337  15.526 -1.1144 -1.7657 -0.4727
12410TIP3    H258646   2.949   3.256  15.436  1.5322  0.9085 -0.3553
12411TIP3   OH258647   4.317   4.886  15.627  0.5229  0.6560  0.3720
12411TIP3    H158648   4.248   4.929  15.577  0.2404  0.6647  0.7637
12411TIP3    H258649   4.301   4.913  15.718  0.3165 -0.2977  0.6302
12412TIP3   OH258650   0.310   4.474  16.384  0.4751  0.3521  0.2155
12412TIP3    H158651   0.252   4.499  16.456  0.2627  0.2347  0.0874
12412TIP3    H258652   0.251   4.435  16.318  0.6430  0.6172 -0.0951
12413TIP3   OH258653   0.170   6.204   2.259  0.0423 -0.2233 -0.2639
12413TIP3    H158654   0.205   6.257   2.330 -0.9305  0.6852 -0.4429
12413TIP3    H258655   0.234   6.134   2.248  0.9905  0.4987  0.4664
12414TIP3   OH258656   5.029   1.266   5.877 -0.6436 -0.5665  0.5925
12414TIP3    H158657   5.015   1.172   5.868 -1.3592 -0.4160 -0.0449
12414TIP3    H258658   4.977   1.291   5.954  0.2336 -0.8210  1.2770
12415TIP3   OH258659   1.136   4.512   0.176  0.0777  0.6262  0.2093
12415TIP3    H158660   1.140   4.534   0.269  1.8926  1.0255  0.0787
12415TIP3    H258661   1.207   4.563   0.136  0.9942 -1.4466 -0.9714
12416TIP3   OH258662   3.634   1.192  10.488 -0.6856  0.0439  0.6365
12416TIP3    H158663   3.645   1.163  10.578  0.0868 -0.1261  0.4952
12416TIP3    H258664   3.545   1.165  10.464 -0.0883 -1.9916  0.5909
12417TIP3   OH258665   3.959   5.507  13.422 -0.1779  0.5416  0.8457
12417TIP3    H158666   4.008   5.539  13.498  2.2866  2.5379 -1.3589
12417TIP3    H258667   3.903   5.580  13.397  1.9402  1.5573 -1.4086
12418TIP3   OH258668   0.656   3.202  12.845  0.1770  0.6142 -0.4821
12418TIP3    H158669   0.588   3.249  12.893  0.2422  2.2220 -1.8644
12418TIP3    H258670   0.672   3.123  12.897 -1.4183  1.0994  0.8397
12419TIP3   OH258671   2.196   1.544   2.077  0.0420 -0.0095 -0.2601
12419TIP3    H158672   2.220   1.555   2.169  1.1198  2.7320 -0.7743
12419TIP3    H258673   2.125   1.607   2.063  0.6322  0.3946 -1.5432
12420TIP3   OH258674   2.514   0.468  13.708  0.1079 -0.0267  0.4301
12420TIP3    H158675   2.495   0.553  13.669  1.0117 -0.6636 -1.4908
12420TIP3    H258676   2.429   0.426  13.718 -0.4723  1.4759  2.4421
12421TIP3   OH258677   1.644   0.521  14.799 -0.5445 -0.2777  0.0008
12421TIP3    H158678   1.669   0.462  14.870  0.5176 -1.2805 -1.1362
12421TIP3    H258679   1.726   0.536  14.752 -0.9416  1.5512 -0.1645
12422TIP3   OH258680   2.553   2.597  16.087  0.0765  0.1963 -0.0306
12422TIP3    H158681   2.458   2.601  16.097  0.2152  1.7279  1.1526
12422TIP3    H258682   2.573   2.667  16.025  0.4390 -0.0660 -0.2122
12423TIP3   OH258683   2.249   5.914   4.570  0.2287 -0.6534 -0.3989
12423TIP3    H158684   2.256   6.004   4.536 -1.1439  0.0675  1.0848
12423TIP3    H258685   2.312   5.911   4.641  0.4601 -0.9643 -0.6150
12424TIP3   OH258686   2.920   3.097  12.519 -0.0633 -0.1694  0.0158
12424TIP3    H158687   2.877   3.156  12.581  0.0123 -0.6758  0.5528
12424TIP3    H258688   3.012   3.123  12.521 -0.0443 -0.2544  0.1845
12425TIP3   OH258689   4.128   5.286  14.518 -0.2520  0.0302  0.1949
12425TIP3    H158690   4.075   5.365  14.507 -1.5181 -0.4276  2.3632
12425TIP3    H258691   4.064   5.216  14.529  0.8505 -1.1883 -0.8339
12426TIP3   OH258692   3.265   2.754   6.267  0.2972  0.8937  0.3524
12426TIP3    H158693   3.210   2.826   6.238 -0.1886  0.3588 -0.0868
12426TIP3    H258694   3.237   2.736   6.357  0.0512  0.9119  0.2802
12427TIP3   OH258695   6.711   3.047   1.976 -0.6608 -0.0629 -0.4224
12427TIP3    H158696   6.776   3.117   1.974 -0.9126  0.3543  2.0070
12427TIP3    H258697   6.644   3.074   1.914 -0.3899  1.5127 -0.0712
12428TIP3   OH258698   6.523   2.765  12.426 -0.0869 -0.2766 -0.1132
12428TIP3    H158699   6.586   2.781  12.497 -1.1132 -2.5861  1.4460
12428TIP3    H258700   6.562   2.694  12.375  1.0158  1.8722 -2.5018
12429TIP3   OH258701   0.687   5.160  14.125  0.6145 -0.6156 -0.5183
12429TIP3    H158702   0.762   5.220  14.123 -1.8412  2.8108 -0.3962
12429TIP3    H258703   0.662   5.148  14.034 -1.4779  2.4222 -0.4973
12430TIP3   OH258704   3.244   6.050  12.606  0.2263  0.0491 -0.6329
12430TIP3    H158705   3.216   6.128  12.559 -1.8085  0.3287  0.9021
12430TIP3    H258706   3.168   5.991  12.602  0.9931 -1.0138 -0.0403
12431TIP3   OH258707   2.033   1.293   5.640  0.4009 -0.2560 -0.4376
12431TIP3    H158708   2.126   1.303   5.661  0.2551 -0.2726  0.2580
12431TIP3    H258709   2.001   1.383   5.633  0.4239 -0.2487 -0.4512
12432TIP3   OH258710   0.785   3.492   5.241 -0.1311  0.5291 -0.3391
12432TIP3    H158711   0.723   3.546   5.193  0.8562  0.5991 -1.6009
12432TIP3    H258712   0.806   3.542   5.319  0.1328  1.5933 -1.0795
12433TIP3   OH258713   3.456   4.010  12.492  0.0953 -0.3386 -0.5157
12433TIP3    H158714   3.381   4.058  12.457  0.4617  0.9937  0.4708
12433TIP3    H258715   3.528   4.031  12.432 -0.2135 -1.4392 -1.3316
12434TIP3   OH258716   3.766   0.905   0.830 -0.4637 -0.0490 -0.5534
12434TIP3    H158717   3.743   0.998   0.831 -0.8197 -0.1399 -0.1941
12434TIP3    H258718   3.683   0.860   0.842 -0.1064 -0.3797  0.8255
12435TIP3   OH258719   1.233   4.338   5.391  0.4725  0.1963 -0.3390
12435TIP3    H158720   1.309   4.320   5.447  0.3149 -0.4789 -0.3436
12435TIP3    H258721   1.195   4.417   5.429  1.3776  0.7617 -0.5504
12436TIP3   OH258722   3.610   1.025  11.332 -0.6386  0.2786  0.2104
12436TIP3    H158723   3.547   0.992  11.396  0.7945  0.0750  1.5649
12436TIP3    H258724   3.623   1.117  11.355  0.1948  0.0987  0.4840
12437TIP3   OH258725   4.021   5.397  16.360 -0.3199  1.0681  0.1900
12437TIP3    H158726   3.968   5.473  16.335 -0.4482  1.5665  1.8769
12437TIP3    H258727   4.017   5.395  16.455 -0.6798 -1.3206  0.2041
12438TIP3   OH258728   2.913   2.680   0.718 -0.4510 -0.2420  0.5269
12438TIP3    H158729   3.007   2.670   0.731 -0.3948  1.3411  1.6997
12438TIP3    H258730   2.875   2.596   0.742  0.7385 -1.2834 -1.1021
12439TIP3   OH258731   2.484   4.822  12.609 -0.6119  0.3765  0.2597
12439TIP3    H158732   2.510   4.736  12.641 -0.4381  0.2045 -0.3352
12439TIP3    H258733   2.397   4.809  12.572 -0.8627  0.6021  0.7491
12440TIP3   OH258734   4.415   0.458   0.888 -0.4458 -0.1486 -0.0592
12440TIP3    H158735   4.372   0.471   0.973 -0.3719 -0.3557  0.0115
12440TIP3    H258736   4.345   0.469   0.824 -0.6466 -0.6607  0.0640
12441TIP3   OH258737   0.482   6.411   2.881 -0.2964 -0.5574 -0.2983
12441TIP3    H158738   0.532   6.402   2.963  1.5677 -1.5272 -1.4793
12441TIP3    H258739   0.472   6.506   2.870 -1.1127 -0.4078  1.3244
12442TIP3   OH258740   3.353   6.014  12.845  0.8684 -0.0743 -0.5311
12442TIP3    H158741   3.308   6.037  12.763 -2.6953 -0.8915  0.9871
12442TIP3    H258742   3.347   5.918  12.848  1.7947 -0.1187  0.3005
12443TIP3   OH258743   0.131   0.374   0.587 -0.2856 -0.1215 -0.7140
12443TIP3    H158744   0.090   0.289   0.604  2.2995 -1.1146  1.3517
12443TIP3    H258745   0.120   0.422   0.669  1.1161  0.2303 -0.7128
12444TIP3   OH258746   4.735   6.775   0.049 -0.2559 -0.1279  0.3042
12444TIP3    H158747   4.774   6.752  -0.035 -0.5374 -1.8372  0.5987
12444TIP3    H258748   4.805   6.757   0.113  0.5811  2.8234  0.3662
12445TIP3   OH258749   6.048   3.412  15.101 -0.9044  0.1503  0.1694
12445TIP3    H158750   6.086   3.419  15.188 -0.4038  0.4295 -0.0710
12445TIP3    H258751   6.098   3.474  15.048 -1.0904 -0.1514 -0.3573
12446TIP3   OH258752   4.243   4.816   3.910  0.1249  0.4593 -0.0174
12446TIP3    H158753   4.162   4.838   3.955 -0.0632 -0.3986  0.0890
12446TIP3    H258754   4.295   4.896   3.912 -0.3514  0.7579  0.7115
12447TIP3   OH258755   1.778   0.212   5.939 -0.3721  0.4987  0.6869
12447TIP3    H158756   1.736   0.274   6.000 -1.4148 -0.5695  1.1091
12447TIP3    H258757   1.722   0.213   5.862 -1.4660 -1.2014  1.3887
12448TIP3   OH258758   1.383   5.763  15.920 -0.0315 -0.4353  0.2303
12448TIP3    H158759   1.296   5.803  15.927  0.7056  1.2587  0.3204
12448TIP3    H258760   1.385   5.698  15.990 -0.4021  1.2012  1.8332
12449TIP3   OH258761   4.570   2.004   3.155 -0.0399 -0.3985  0.1656
12449TIP3    H158762   4.565   2.099   3.157  0.4353 -0.3551 -0.3126
12449TIP3    H258763   4.497   1.974   3.208  1.5370  0.2546  2.9126
12450TIP3   OH258764   6.362   6.534  15.732  0.1587 -0.1014  0.3566
12450TIP3    H158765   6.310   6.609  15.701 -1.0428 -1.2057 -0.4372
12450TIP3    H258766   6.446   6.543  15.687 -0.5081 -0.0320 -0.9231
12451TIP3   OH258767   4.494   2.516  11.541  0.2001  0.0047  0.0229
12451TIP3    H158768   4.458   2.561  11.618  1.2994  1.3417 -0.2080
12451TIP3    H258769   4.526   2.587  11.485 -0.7475 -0.9298 -1.7743
12452TIP3   OH258770   6.604   6.465  16.799  0.1896 -0.4538  0.4542
12452TIP3    H158771   6.615   6.502  16.711  1.3064 -1.5505  0.1075
12452TIP3    H258772   6.623   6.537  16.858  0.4382  0.0273 -0.2013
12453TIP3   OH258773   4.828   1.812  12.020 -0.3853  0.4548  0.1969
12453TIP3    H158774   4.746   1.857  12.000 -1.5008 -0.5590  2.2041
12453TIP3    H258775   4.803   1.741  12.078  1.5508 -1.7214 -1.4473
12454TIP3   OH258776   1.104   4.688  16.639 -0.1333  0.4222 -0.4012
12454TIP3    H158777   1.160   4.710  16.713  0.3997 -0.3407 -0.5588
12454TIP3    H258778   1.158   4.706  16.562  0.1226 -0.8260 -0.5452
12455TIP3   OH258779   0.395   3.982   5.426 -0.2094 -0.3116  0.3131
12455TIP3    H158780   0.406   3.921   5.499 -1.2882 -1.4433 -0.4279
12455TIP3    H258781   0.319   4.035   5.449  0.1900  0.1668  0.5519
12456TIP3   OH258782   3.714   3.210   2.126  0.4225 -0.3930  0.0395
12456TIP3    H158783   3.661   3.238   2.052  1.2561 -0.8726 -0.7590
12456TIP3    H258784   3.652   3.166   2.184 -0.3532  0.5357 -0.0605
12457TIP3   OH258785   3.904   4.764  16.226  0.0260  0.2218  0.3437
12457TIP3    H158786   3.974   4.820  16.259  0.6838 -0.4531  0.1203
12457TIP3    H258787   3.902   4.690  16.286 -0.3301  0.1142  0.2009
12458TIP3   OH258788   1.993   3.264  11.031 -0.1092 -0.4077  0.4895
12458TIP3    H158789   2.042   3.245  11.111 -0.0359  1.3396  0.9175
12458TIP3    H258790   1.921   3.201  11.031  1.5725 -2.4101  0.3244
12459TIP3   OH258791   6.296   4.294  17.150  0.3292  0.1002 -0.1235
12459TIP3    H158792   6.320   4.202  17.141  0.0826 -0.0212  0.3927
12459TIP3    H258793   6.294   4.309  17.245 -0.1222  0.5101 -0.1932
12460TIP3   OH258794   3.067   2.228  13.993  0.0474 -0.0701 -0.3121
12460TIP3    H158795   3.091   2.308  14.041 -0.1777  0.9984 -1.8819
12460TIP3    H258796   3.082   2.157  14.055  0.0333  1.2101  1.2237
12461TIP3   OH258797   0.161   5.988  11.590  0.0173  0.3082 -0.2498
12461TIP3    H158798   0.083   6.039  11.569  0.1025  1.0339  1.0579
12461TIP3    H258799   0.151   5.968  11.683  1.6522  0.9322  0.0949
12462TIP3   OH258800   2.739   4.695   5.476 -0.3511 -0.4457  0.3430
12462TIP3    H158801   2.664   4.666   5.528 -0.9062 -0.3428 -0.3713
12462TIP3    H258802   2.706   4.695   5.386 -0.0840  1.4485  0.2080
12463TIP3   OH258803   5.048   6.403  15.027  0.5353  0.0093 -0.1352
12463TIP3    H158804   4.997   6.341  15.079  1.0003  0.7303  1.2512
12463TIP3    H258805   5.026   6.489  15.064 -0.1867  0.7235 -2.0767
12464TIP3   OH258806   0.500   3.250  14.531  1.1174  0.0569 -0.3941
12464TIP3    H158807   0.432   3.317  14.531  1.2341  0.2013  1.1441
12464TIP3    H258808   0.580   3.297  14.507  1.3072  0.6278  1.2378
12465TIP3   OH258809   4.297   1.952  12.565  0.2042  0.5021  0.0730
12465TIP3    H158810   4.268   1.953  12.657 -1.7365  1.7397 -0.4819
12465TIP3    H258811   4.247   1.881  12.525 -2.4379  2.7147 -0.9165
12466TIP3   OH258812   2.173   6.046  13.953 -0.5020 -0.0717  0.3627
12466TIP3    H158813   2.225   5.995  14.014 -1.1369 -0.8167  0.2944
12466TIP3    H258814   2.237   6.083  13.892  0.2438  1.4251  1.9633
12467TIP3   OH258815   4.314   2.226  11.501  0.5886 -0.2455  0.7683
12467TIP3    H158816   4.260   2.226  11.581  0.3767  0.8027  0.6478
12467TIP3    H258817   4.255   2.197  11.432 -0.7566  3.4662  0.1163
12468TIP3   OH258818   4.514   0.828   6.129 -0.1325 -0.1067 -0.5980
12468TIP3    H158819   4.565   0.877   6.193 -0.0425  0.4196 -1.0619
12468TIP3    H258820   4.467   0.762   6.180  1.6915 -1.2021 -0.2733
12469TIP3   OH258821   0.770   4.320   2.009 -0.9633  0.1635  0.0797
12469TIP3    H158822   0.846   4.351   1.959 -1.5175 -0.7254 -1.3945
12469TIP3    H258823   0.699   4.317   1.945 -2.6942  2.3925  1.7384
12470TIP3   OH258824   5.764   5.905  13.430  0.3169  0.2661  0.7502
12470TIP3    H158825   5.701   5.906  13.358 -0.3962 -0.8519  1.3328
12470TIP3    H258826   5.761   5.994  13.465 -0.4693  0.3955  0.3732
12471TIP3   OH258827   6.060   3.203   0.438 -0.4191 -0.0828  0.1516
12471TIP3    H158828   5.983   3.146   0.437 -0.2014 -0.4247  1.1776
12471TIP3    H258829   6.130   3.147   0.473  0.2249  0.3090 -0.4994
12472TIP3   OH258830   3.780   2.788  14.032 -0.3365 -0.0565  0.5773
12472TIP3    H158831   3.860   2.739  14.049  0.2223  0.7480  0.3249
12472TIP3    H258832   3.709   2.724  14.045  0.2734 -0.4925  1.8825
12473TIP3   OH258833   1.782   5.248   4.171 -0.4873  0.6130 -0.0954
12473TIP3    H158834   1.794   5.196   4.251 -0.7901  1.3670  0.4489
12473TIP3    H258835   1.743   5.188   4.109 -1.0426  0.2406  0.5988
12474TIP3   OH258836   5.062   3.745   4.690  0.1152 -0.2811 -0.1368
12474TIP3    H158837   5.076   3.767   4.782 -3.1923  0.7196  0.2761
12474TIP3    H258838   5.089   3.823   4.642 -0.9083  0.3821  0.3169
12475TIP3   OH258839   4.334   3.972   2.752 -0.1906 -0.6943 -0.1110
12475TIP3    H158840   4.275   4.007   2.685  1.1062  0.0738 -0.8913
12475TIP3    H258841   4.339   3.878   2.733 -0.0388 -0.5253 -0.9416
12476TIP3   OH258842   5.433   4.832   1.517 -0.5418  0.0221  0.2484
12476TIP3    H158843   5.360   4.797   1.568  0.9448  0.2862  2.7178
12476TIP3    H258844   5.442   4.772   1.443 -0.8682 -2.2456  1.9501
12477TIP3   OH258845   1.480   2.010  13.340  0.5012  0.1101  0.7063
12477TIP3    H158846   1.452   2.098  13.366 -0.3296  0.0932 -0.0755
12477TIP3    H258847   1.499   1.966  13.422  1.3010  1.1361  1.0888
12478TIP3   OH258848   4.958   3.951   6.300  0.1461  0.6131  0.0517
12478TIP3    H158849   4.935   4.040   6.325 -0.5886  1.3937 -3.0429
12478TIP3    H258850   4.911   3.896   6.362  1.6068  2.2759  2.8377
12479TIP3   OH258851   1.928   0.544  11.155  0.2081 -0.1719 -0.3078
12479TIP3    H158852   1.878   0.539  11.074 -1.4974 -2.3914  0.7531
12479TIP3    H258853   1.998   0.479  11.144 -0.1730 -0.6545  0.0479
12480TIP3   OH258854   2.638   0.127  13.236  0.0234 -0.3781 -0.0445
12480TIP3    H158855   2.557   0.178  13.245  0.4307  0.3713 -0.5474
12480TIP3    H258856   2.699   0.186  13.192  0.3580 -1.4715 -1.0917
12481TIP3   OH258857   2.282   5.765   4.897 -0.0952  0.1120 -0.6627
12481TIP3    H158858   2.278   5.679   4.854 -0.5750 -0.7018  0.9344
12481TIP3    H258859   2.350   5.756   4.963 -1.1896  0.4268  0.5639
12482TIP3   OH258860   1.743   4.632   4.027  0.0569 -0.6298 -0.6376
12482TIP3    H158861   1.722   4.577   4.103 -0.7465  0.9488  0.3260
12482TIP3    H258862   1.791   4.706   4.063 -2.0976  1.1958 -1.3316
12483TIP3   OH258863   4.345   2.924  11.443 -0.7437 -0.7988  0.1350
12483TIP3    H158864   4.402   2.984  11.395 -0.4427 -1.5832 -0.5100
12483TIP3    H258865   4.323   2.856  11.380 -2.2387 -0.6369  0.4345
12484TIP3   OH258866   2.104   0.513  12.188  0.0410  0.5536  0.5144
12484TIP3    H158867   2.056   0.433  12.211 -0.5749 -0.1099 -2.6153
12484TIP3    H258868   2.036   0.581  12.183  0.2390  0.7972  1.1342
12485TIP3   OH258869   5.454   5.457  13.326  0.1885 -0.1836  0.0244
12485TIP3    H158870   5.397   5.381  13.315  1.4321 -0.9343 -1.7412
12485TIP3    H258871   5.396   5.527  13.356 -1.0464 -1.7142  1.3772
12486TIP3   OH258872   5.925   6.311   2.673  0.4933  0.3101 -0.8694
12486TIP3    H158873   5.872   6.251   2.725  1.8516  0.0605  0.2748
12486TIP3    H258874   5.987   6.349   2.735 -0.8521  3.6152 -1.3269
12487TIP3   OH258875   1.558   4.769  12.913  0.4931 -0.6396  0.0619
12487TIP3    H158876   1.483   4.716  12.941 -0.1996  0.6429  0.7075
12487TIP3    H258877   1.606   4.712  12.853  0.0683 -2.1771  1.1307
12488TIP3   OH258878   0.158   2.126  15.430  0.4683 -0.0058 -0.6172
12488TIP3    H158879   0.186   2.153  15.342  1.3641 -0.7563 -0.5669
12488TIP3    H258880   0.118   2.040  15.417 -2.1593  1.1233 -0.7377
12489TIP3   OH258881   4.623   2.348  11.706 -0.5022 -0.2450 -0.2907
12489TIP3    H158882   4.697   2.331  11.649  0.9965 -0.0012  1.4873
12489TIP3    H258883   4.583   2.428  11.672  2.2017  1.6750  0.6808
12490TIP3   OH258884   1.187   0.718  11.363 -0.5351  0.3760 -0.3040
12490TIP3    H158885   1.276   0.753  11.364 -0.4939  0.3250 -1.5101
12490TIP3    H258886   1.144   0.763  11.290 -0.4521 -2.1253 -1.9939
12491TIP3   OH258887   3.073   5.296   5.723 -0.3485  0.1877 -0.2277
12491TIP3    H158888   2.999   5.291   5.784 -0.2588 -0.3482 -0.1598
12491TIP3    H258889   3.037   5.264   5.640 -0.0479 -0.6553 -0.0504
12492TIP3   OH258890   0.346   5.354  16.042  0.1640 -0.0106 -0.3305
12492TIP3    H158891   0.356   5.383  16.133 -1.1674  1.8678 -0.7240
12492TIP3    H258892   0.343   5.436  15.992 -3.5845 -0.7470 -1.5674
12493TIP3   OH258893   0.663   6.500  14.481  0.7484 -0.3075 -0.1194
12493TIP3    H158894   0.661   6.532  14.571 -0.6627 -0.1583 -0.1736
12493TIP3    H258895   0.612   6.419  14.483 -0.4929  0.4193 -1.0242
12494TIP3   OH258896   3.252   5.887   2.695 -0.1759 -0.3061 -0.0899
12494TIP3    H158897   3.329   5.833   2.676 -0.1833 -0.3373 -0.0330
12494TIP3    H258898   3.286   5.958   2.748 -0.1050 -0.0575 -0.4669
12495TIP3   OH258899   1.869   3.654   0.842  0.4595  0.5502 -0.3089
12495TIP3    H158900   1.890   3.729   0.897  0.3275  0.7899 -0.5830
12495TIP3    H258901   1.868   3.579   0.903  1.6234  0.5959 -0.2072
12496TIP3   OH258902   5.582   0.167  16.848 -0.6364  0.3820  0.4557
12496TIP3    H158903   5.492   0.199  16.849 -0.5396  0.7558  2.4087
12496TIP3    H258904   5.626   0.218  16.916  0.2945 -1.8646  1.6461
12497TIP3   OH258905   1.035   1.198   2.860  0.6706  0.2804  0.5016
12497TIP3    H158906   0.969   1.133   2.837  1.2752 -0.2751  0.2953
12497TIP3    H258907   1.013   1.225   2.949  0.2099  0.0503  0.4575
12498TIP3   OH258908   3.391   5.066  16.757  0.0274  0.0920  0.3144
12498TIP3    H158909   3.395   4.997  16.690 -1.0794 -0.5278  0.8636
12498TIP3    H258910   3.354   5.141  16.710  0.0954 -0.0640  0.0027
12499TIP3   OH258911   5.944   5.455  17.088 -0.1289 -0.2411 -0.5026
12499TIP3    H158912   5.968   5.448  17.180 -0.2668 -1.5338 -0.5397
12499TIP3    H258913   6.024   5.482  17.044 -0.4904  2.1865  0.1799
12500TIP3   OH258914   1.426   5.093   4.542 -0.1039  0.2140 -0.2638
12500TIP3    H158915   1.465   5.063   4.624 -0.0774 -0.3844 -0.4923
12500TIP3    H258916   1.338   5.122   4.567  0.4635  1.5887  0.2583
12501TIP3   OH258917   3.361   4.082  12.735 -0.1316  0.4937  0.5651
12501TIP3    H158918   3.418   4.064  12.660 -0.5439  2.0183 -0.1698
12501TIP3    H258919   3.289   4.020  12.725  0.0202  0.4090 -0.0979
12502TIP3   OH258920   2.243   5.873  14.930  0.6721  0.5050 -0.2449
12502TIP3    H158921   2.302   5.804  14.958  1.5658  1.4792  0.3448
12502TIP3    H258922   2.289   5.918  14.859 -0.5565 -0.4339 -1.7016
12503TIP3   OH258923   1.344   2.979   4.991 -0.1715 -0.1673 -0.6605
12503TIP3    H158924   1.260   3.025   4.997 -0.2755 -0.4979  0.7297
12503TIP3    H258925   1.376   2.976   5.082  1.6437  0.5036 -1.2400
12504TIP3   OH258926   4.908   1.059  13.298  0.3225  0.7380  0.0376
12504TIP3    H158927   4.951   0.981  13.333  0.1967 -0.8516 -3.0405
12504TIP3    H258928   4.816   1.048  13.321  0.4180  0.3656  0.2591
12505TIP3   OH258929   1.856   6.075   2.595  0.2858 -0.3359  0.0078
12505TIP3    H158930   1.765   6.065   2.621  0.1861  1.4601  0.4702
12505TIP3    H258931   1.856   6.062   2.500 -0.2877 -1.2269  0.1197
12506TIP3   OH258932   0.901   5.891   4.996 -0.2567  0.6004  0.1800
12506TIP3    H158933   0.861   5.909   4.910  0.7474  3.9682  0.2737
12506TIP3    H258934   0.849   5.943   5.057  0.4680  0.0848  1.2563
12507TIP3   OH258935   2.451   3.279  13.874 -0.8110  0.0025  0.5022
12507TIP3    H158936   2.493   3.318  13.951  1.0647  0.0435 -0.4765
12507TIP3    H258937   2.475   3.337  13.802 -2.2294 -0.2376 -0.2054
12508TIP3   OH258938   5.790   2.048  16.857  0.3727  0.3771  0.1548
12508TIP3    H158939   5.871   2.023  16.903 -0.8084  2.4878  3.8133
12508TIP3    H258940   5.820   2.102  16.784  2.3297  0.5959  1.0329
12509TIP3   OH258941   5.646   4.445   2.315  0.7742 -0.2853 -0.6188
12509TIP3    H158942   5.569   4.419   2.264 -0.3764  0.8932  0.4498
12509TIP3    H258943   5.701   4.491   2.252 -0.6116  1.1274 -0.8715
12510TIP3   OH258944   6.466   3.302  12.393 -0.8830  0.2104 -0.6943
12510TIP3    H158945   6.489   3.329  12.304  0.1067 -0.8249 -0.7754
12510TIP3    H258946   6.478   3.207  12.393  0.1435  0.3126  0.8262
12511TIP3   OH258947   4.867   0.689   1.081 -0.2784 -0.2988 -0.2034
12511TIP3    H158948   4.801   0.620   1.083 -0.3090 -0.3400  3.5634
12511TIP3    H258949   4.818   0.770   1.094  0.1311  0.0469 -0.7417
12512TIP3   OH258950   2.582   3.349  16.886 -0.0004  0.1749  0.2435
12512TIP3    H158951   2.546   3.262  16.868  2.1770 -0.3690 -2.1170
12512TIP3    H258952   2.561   3.400  16.808  0.0271  1.3423  0.9754
12513TIP3   OH258953   1.970   6.206   6.300  0.7517 -0.2023  0.4371
12513TIP3    H158954   1.967   6.267   6.374  1.7340 -0.0421  0.3618
12513TIP3    H258955   1.982   6.120   6.339  0.6426 -0.1964  0.4848
12514TIP3   OH258956   5.796   2.937   5.881  0.2008 -0.5742 -0.0429
12514TIP3    H158957   5.851   3.015   5.872  2.3512 -1.4721  3.3946
12514TIP3    H258958   5.715   2.969   5.920  0.0904  0.1934 -0.8742
12515TIP3   OH258959   6.044   5.243  13.177  0.0614  0.1395  0.0727
12515TIP3    H158960   6.039   5.336  13.157 -0.4557 -0.0417 -0.6687
12515TIP3    H258961   6.137   5.221  13.165  0.0119  0.3494 -0.7485
12516TIP3   OH258962   1.528   0.766  15.414  0.4718 -0.8317 -0.3389
12516TIP3    H158963   1.568   0.852  15.402  1.1958 -1.1013  0.0321
12516TIP3    H258964   1.495   0.767  15.504  0.3967 -0.9027 -0.3662
12517TIP3   OH258965   2.415   2.693   0.685 -0.5940 -0.3104 -0.4318
12517TIP3    H158966   2.499   2.698   0.640 -1.1616  0.2211 -1.4708
12517TIP3    H258967   2.420   2.614   0.738  0.5746 -0.2538 -0.4504
12518TIP3   OH258968   4.816   6.305   0.959 -0.1427  0.0206  0.5026
12518TIP3    H158969   4.791   6.253   0.882 -1.0607  1.5774 -0.3024
12518TIP3    H258970   4.738   6.302   1.015  0.0952 -0.1191  0.8289
12519TIP3   OH258971   5.692   4.772  15.058  0.1692 -0.3826 -0.1539
12519TIP3    H158972   5.653   4.839  15.114  2.0307 -0.1067  0.8944
12519TIP3    H258973   5.768   4.814  15.018  0.9347 -1.6285 -0.0757
12520TIP3   OH258974   1.937   2.735   2.956 -0.3236 -0.0938 -0.4374
12520TIP3    H158975   1.911   2.682   2.880  0.7047 -1.5201  0.1604
12520TIP3    H258976   1.991   2.805   2.918 -1.7157  0.5996 -1.2394
12521TIP3   OH258977   6.236   3.298   2.983 -0.0017  0.2779  0.0981
12521TIP3    H158978   6.201   3.385   3.000 -0.1370  0.0818  0.8649
12521TIP3    H258979   6.172   3.257   2.925 -0.4186  0.3569  0.4949
12522TIP3   OH258980   4.058   0.549  13.837  0.2691  0.3718 -0.2353
12522TIP3    H158981   4.079   0.460  13.865 -0.8495  0.3408  0.5813
12522TIP3    H258982   4.015   0.589  13.912 -0.7800  1.0386 -1.1530
12523TIP3   OH258983   0.204   2.814   3.935  0.4352 -0.5456  0.7411
12523TIP3    H158984   0.273   2.776   3.881  1.4392  0.3021  1.3847
12523TIP3    H258985   0.151   2.740   3.963 -0.2372 -1.0110 -1.5116
12524TIP3   OH258986   1.977   5.849   3.773  0.1309  0.4613 -0.1815
12524TIP3    H158987   2.026   5.931   3.771 -0.0634  0.5635 -0.7639
12524TIP3    H258988   1.898   5.869   3.824 -0.3845  0.9040 -1.1320
12525TIP3   OH258989   1.619   3.019  14.419 -0.2710 -0.0890  0.2976
12525TIP3    H158990   1.563   3.065  14.482 -0.7927 -0.3010 -0.0091
12525TIP3    H258991   1.679   2.968  14.473  0.6478  1.3082  0.6626
12526TIP3   OH258992   6.577   2.023   6.180 -0.0147  0.5576 -0.0427
12526TIP3    H158993   6.542   2.098   6.132 -0.4583  0.3866  0.0079
12526TIP3    H258994   6.637   1.981   6.118 -1.3243 -0.2349 -0.8301
12527TIP3   OH258995   5.362   6.167   4.462 -0.5405 -0.2261 -0.6354
12527TIP3    H158996   5.386   6.258   4.449 -3.9612  0.7767 -0.9103
12527TIP3    H258997   5.309   6.167   4.542  0.5917 -2.2968  0.2260
12528TIP3   OH258998   3.376   0.917   4.211 -0.3365  0.8763 -0.7626
12528TIP3    H158999   3.357   0.844   4.153  1.5737  0.4340 -0.9021
12528TIP3    H259000   3.468   0.939   4.193  0.2455  0.9123  1.8376
12529TIP3   OH259001   0.120   5.104   0.979 -0.3166  0.1286  0.2105
12529TIP3    H159002   0.159   5.048   1.046 -1.1615 -0.4090  0.2802
12529TIP3    H259003   0.138   5.059   0.896 -0.2756  0.1856  0.1884
12530TIP3   OH259004   6.266   3.945  14.452 -0.4989 -0.3219  0.0596
12530TIP3    H159005   6.226   4.029  14.473 -0.0374 -0.1998  0.4669
12530TIP3    H259006   6.317   3.922  14.529  1.7596  0.4476 -1.1206
12531TIP3   OH259007   1.211   0.239  15.036  0.1349  0.2254  0.4359
12531TIP3    H159008   1.153   0.176  15.078  1.5684 -0.9941  0.6650
12531TIP3    H259009   1.236   0.299  15.107 -1.6905  1.4733  0.0923
12532TIP3   OH259010   4.382   5.998   0.104  0.4148 -0.3807  0.0205
12532TIP3    H159011   4.391   6.077   0.050  0.7060  0.0690  0.7072
12532TIP3    H259012   4.469   5.960   0.106  1.0215  0.9172  2.0955
12533TIP3   OH259013   4.845   5.921  14.092 -0.0643 -0.1172  0.2258
12533TIP3    H159014   4.876   6.002  14.051  0.8310 -0.8586 -0.5945
12533TIP3    H259015   4.770   5.949  14.145  0.0084  1.1898 -0.3177
12534TIP3   OH259016   3.092   2.083  12.174 -0.5152 -0.4237 -0.0129
12534TIP3    H159017   3.042   2.143  12.230 -1.1948 -1.4076  0.4907
12534TIP3    H259018   3.088   2.122  12.087 -0.7598  0.3574  0.3353
12535TIP3   OH259019   1.292   2.514  12.606 -0.2532  0.2152 -0.3339
12535TIP3    H159020   1.330   2.601  12.617  1.4021 -0.3170 -1.4246
12535TIP3    H259021   1.356   2.467  12.553 -0.8763 -1.8390  0.6517
12536TIP3   OH259022   6.592   5.539  11.428 -0.9805  0.0762  0.4679
12536TIP3    H159023   6.528   5.488  11.477 -0.6312  0.1179  0.9636
12536TIP3    H259024   6.574   5.518  11.336 -1.3918 -0.2810  0.6297
12537TIP3   OH259025   2.456   3.149   1.188  0.1942 -0.1853  0.1661
12537TIP3    H159026   2.541   3.147   1.233  0.7451 -1.2472 -0.8819
12537TIP3    H259027   2.470   3.206   1.112 -0.3203  0.4139  0.5085
12538TIP3   OH259028   5.995   3.127   5.804 -0.6586 -0.7438  0.5338
12538TIP3    H159029   5.999   3.206   5.750  2.2053 -0.5210  0.9420
12538TIP3    H259030   6.040   3.060   5.752  0.5732 -0.9910  1.8701
12539TIP3   OH259031   1.292   2.535  15.643 -0.0139 -0.2156  0.2323
12539TIP3    H159032   1.366   2.564  15.589 -0.2049 -1.0826 -0.5301
12539TIP3    H259033   1.314   2.444  15.666 -1.9458 -1.4060 -2.1407
12540TIP3   OH259034   0.376   2.177  12.700 -0.1191 -0.2112  0.7783
12540TIP3    H159035   0.287   2.199  12.671 -0.3296 -1.8524  0.0859
12540TIP3    H259036   0.383   2.083  12.685  1.8819 -0.0413  0.4670
12541TIP3   OH259037   0.319   1.654   2.380 -0.0871 -0.3094  0.2171
12541TIP3    H159038   0.370   1.598   2.439  0.3864  0.3928  0.4894
12541TIP3    H259039   0.257   1.698   2.438 -0.6031 -0.6973 -0.0279
12542TIP3   OH259040   4.878   2.912   1.381 -0.0748  0.1725  0.2675
12542TIP3    H159041   4.789   2.936   1.407  0.0324  1.1515 -0.1972
12542TIP3    H259042   4.934   2.949   1.449 -0.0713 -1.7705  1.4067
12543TIP3   OH259043   6.079   1.614   1.426  0.1672  0.0691  0.0989
12543TIP3    H159044   6.149   1.680   1.421  0.3059 -0.0796  0.0603
12543TIP3    H259045   6.126   1.531   1.437 -0.0223  0.0413  0.7413
12544TIP3   OH259046   5.475   3.029   5.265 -0.3074 -0.2764  0.4806
12544TIP3    H159047   5.531   3.000   5.192 -0.4845 -0.4737  0.4218
12544TIP3    H259048   5.386   3.014   5.234 -0.4603  1.3991 -0.0136
12545TIP3   OH259049   5.096   1.194   4.793  0.1510 -0.3538 -0.1431
12545TIP3    H159050   5.021   1.245   4.824  1.2508  1.2498  0.0089
12545TIP3    H259051   5.162   1.260   4.772  1.9626 -1.7448  0.8802
12546TIP3   OH259052   3.788   0.023  11.822  0.3010  0.0142  0.0786
12546TIP3    H159053   3.767  -0.026  11.742  0.9129  0.2784 -0.2506
12546TIP3    H259054   3.769  -0.038  11.893  2.0345 -1.0983 -0.3565
12547TIP3   OH259055   1.977   4.324   5.221  0.3549  0.1729 -0.9094
12547TIP3    H159056   2.021   4.311   5.137  1.4737 -1.3744 -0.1318
12547TIP3    H259057   2.030   4.274   5.283 -1.6114 -0.4094  0.3635
12548TIP3   OH259058   5.692   6.711  11.564 -0.7646  0.2354 -0.6653
12548TIP3    H159059   5.716   6.762  11.487 -0.6691 -0.4486 -1.1012
12548TIP3    H259060   5.703   6.771  11.637  1.6255  0.1798 -0.8918
12549TIP3   OH259061   0.840   1.058   0.110  0.5158  0.4781 -0.0677
12549TIP3    H159062   0.871   1.147   0.125  0.4212  0.6302 -0.7473
12549TIP3    H259063   0.748   1.068   0.086  0.9113  0.3422 -1.7316
12550TIP3   OH259064   1.105   4.070  12.530 -0.1295  0.4603  0.1051
12550TIP3    H159065   1.079   4.143  12.474  0.7943 -0.9257 -2.2858
12550TIP3    H259066   1.197   4.055  12.510 -0.3905 -1.6015  0.2054
12551TIP3   OH259067   3.867   0.137   5.858  0.0812 -0.2315 -0.6109
12551TIP3    H159068   3.891   0.112   5.769 -2.6194  0.1674 -1.5271
12551TIP3    H259069   3.841   0.229   5.852 -1.1954 -0.4996  0.3290
12552TIP3   OH259070   3.649   4.329  12.567 -0.0148  0.5856 -1.0096
12552TIP3    H159071   3.731   4.378  12.557  2.3041 -2.1137  2.4833
12552TIP3    H259072   3.656   4.258  12.503  0.2192  0.5449 -0.9392
12553TIP3   OH259073   3.069   5.747  10.922  0.0128 -0.0847 -0.2037
12553TIP3    H159074   3.010   5.822  10.919 -1.9444 -1.4849  0.4262
12553TIP3    H259075   3.025   5.680  10.869 -0.6141 -2.1836  2.6534
12554TIP3   OH259076   1.090   1.866  12.829  0.6206 -0.0455  0.1921
12554TIP3    H159077   1.013   1.906  12.871  0.4877 -0.8074  0.6848
12554TIP3    H259078   1.090   1.901  12.740 -0.1609  0.1458  0.2646
12555TIP3   OH259079   1.079   6.279  11.977  0.2248 -0.0423  0.2569
12555TIP3    H159080   1.156   6.270  12.034  0.0875  0.2477  0.4953
12555TIP3    H259081   1.094   6.361  11.930 -0.0485  0.1353  0.4781
12556TIP3   OH259082   3.375   1.570   4.345  0.2884 -0.1160 -0.2765
12556TIP3    H159083   3.316   1.534   4.280  0.6040  1.0314 -1.2290
12556TIP3    H259084   3.461   1.570   4.303  0.4303  1.0143 -0.0301
12557TIP3   OH259085   0.352   2.992   5.555  0.2799 -0.2985 -0.2020
12557TIP3    H159086   0.331   3.014   5.464 -1.3508 -3.0575 -0.6197
12557TIP3    H259087   0.408   2.915   5.549 -1.9461 -2.1501  1.0250
12558TIP3   OH259088   6.292   5.297  15.675  0.8420 -0.3632 -0.4791
12558TIP3    H159089   6.322   5.359  15.742 -0.1427 -0.2904 -0.0881
12558TIP3    H259090   6.345   5.318  15.598  3.1737 -1.5559  0.7058
12559TIP3   OH259091   4.904   4.467  16.404 -0.3077 -0.1642  0.0495
12559TIP3    H159092   4.825   4.484  16.354  1.2443 -0.9248 -2.9225
12559TIP3    H259093   4.929   4.378  16.380  0.1119 -0.9085  2.9360
12560TIP3   OH259094   0.165   5.521   5.598 -0.1885  0.1583  0.4325
12560TIP3    H159095   0.204   5.599   5.558 -0.0947 -0.2301 -0.2474
12560TIP3    H259096   0.080   5.512   5.554 -1.3232  1.2789  2.2361
12561TIP3   OH259097   3.293   3.865  16.601  0.1707 -0.7034 -0.1679
12561TIP3    H159098   3.310   3.958  16.584 -0.7430 -0.7396 -1.3895
12561TIP3    H259099   3.222   3.864  16.665  0.5583 -0.5633  0.2665
12562TIP3   OH259100   0.648   4.879  16.240  0.8582 -0.1031 -0.1278
12562TIP3    H159101   0.595   4.819  16.292  1.5995 -1.5934 -1.0272
12562TIP3    H259102   0.663   4.954  16.298 -0.0585 -0.7969  1.0462
12563TIP3   OH259103   0.744   2.048   6.248 -0.6927 -0.3675  0.6059
12563TIP3    H159104   0.660   2.027   6.290 -0.8822  0.6614  0.7531
12563TIP3    H259105   0.731   2.134   6.208  0.3134 -0.1608  0.6912
12564TIP3   OH259106   5.602   6.441  14.997  0.1927  0.0684 -0.3405
12564TIP3    H159107   5.521   6.398  14.971 -0.1809 -0.3974  1.4478
12564TIP3    H259108   5.671   6.394  14.950 -0.5675  0.8893 -2.3975
12565TIP3   OH259109   6.755   1.146   1.109 -0.7120 -0.1028 -0.2421
12565TIP3    H159110   6.741   1.167   1.016 -1.3216 -0.4707 -0.2416
12565TIP3    H259111   6.760   1.231   1.152 -0.0966  0.0768 -0.6545
12566TIP3   OH259112   2.893   6.114  11.493  0.7379  0.5263  0.0310
12566TIP3    H159113   2.873   6.127  11.586  1.8525  0.8181  0.2409
12566TIP3    H259114   2.915   6.021  11.486  0.9314  0.5662  0.1108
12567TIP3   OH259115   5.880   6.597  14.318  0.0799 -0.0953  0.4348
12567TIP3    H159116   5.846   6.548  14.393  0.9976 -0.2142  0.7787
12567TIP3    H259117   5.974   6.604  14.335  0.3227 -0.2572 -0.7790
12568TIP3   OH259118   1.278   4.900   0.403  0.1168 -0.6065 -0.1968
12568TIP3    H159119   1.239   4.816   0.430  0.7893 -1.3619 -1.4622
12568TIP3    H259120   1.204   4.958   0.387 -0.4324 -1.4650 -0.8425
12569TIP3   OH259121   0.452   3.326  16.332 -0.2707 -0.1856  0.7230
12569TIP3    H159122   0.489   3.276  16.259 -1.3444  0.1545 -0.0902
12569TIP3    H259123   0.525   3.376  16.368  0.0232  0.6955 -1.0102
12570TIP3   OH259124   2.326   4.486  12.361  0.6816  0.6683 -0.1450
12570TIP3    H159125   2.406   4.481  12.308  0.1161 -2.5288 -0.9205
12570TIP3    H259126   2.335   4.414  12.423 -1.4027  0.4969  0.0161
12571TIP3   OH259127   0.129   1.028  16.426  0.6903 -0.2566  0.2723
12571TIP3    H159128   0.162   0.989  16.345  1.6396 -1.3886  1.1759
12571TIP3    H259129   0.053   0.973  16.450  1.3531 -0.8996  0.9543
12572TIP3   OH259130   5.639   3.044  12.298 -0.2725 -0.5303 -0.4721
12572TIP3    H159131   5.588   3.126  12.292  2.3387  1.1156 -2.1944
12572TIP3    H259132   5.670   3.041  12.388 -0.8926  0.0294 -0.2290
12573TIP3   OH259133   5.999   5.334   0.226  0.1946 -0.1524  0.1077
12573TIP3    H159134   6.077   5.345   0.280 -1.2581 -0.6434  2.4120
12573TIP3    H259135   5.975   5.423   0.200  0.8760  0.1005  0.3157
12574TIP3   OH259136   5.640   4.211   3.508 -0.3535  0.4558  0.5158
12574TIP3    H159137   5.717   4.191   3.562 -1.2431  0.0370  1.6887
12574TIP3    H259138   5.674   4.265   3.437  1.1918 -0.5714  0.4109
12575TIP3   OH259139   6.103   5.763   0.289 -0.0481 -0.3409 -0.3150
12575TIP3    H159140   6.109   5.856   0.265  0.9410 -0.1470  0.6420
12575TIP3    H259141   6.130   5.760   0.380  1.0403 -1.7370 -0.6655
12576TIP3   OH259142   2.575   2.216   4.713 -0.1443  0.2078 -0.0245
12576TIP3    H159143   2.634   2.246   4.783 -1.0228  0.1106  0.7844
12576TIP3    H259144   2.630   2.161   4.657  1.3957  2.8651 -1.2993
12577TIP3   OH259145   6.594   6.548   4.987 -0.2679 -0.3657 -0.2086
12577TIP3    H159146   6.604   6.460   5.024 -1.4524  0.2722  1.8061
12577TIP3    H259147   6.508   6.577   5.018  0.0270  1.4531 -0.9664
12578TIP3   OH259148   3.506   4.751  14.255 -0.2896 -0.1026 -0.4933
12578TIP3    H159149   3.453   4.773  14.332 -1.8916 -1.2668 -1.1955
12578TIP3    H259150   3.519   4.834  14.210  0.0544  0.4854  0.6532
12579TIP3   OH259151   4.709   0.994   0.997 -0.2507  0.1201  0.4677
12579TIP3    H159152   4.619   0.962   1.006 -0.1733 -0.0859  0.5211
12579TIP3    H259153   4.711   1.075   1.049 -1.6220  2.6686 -3.0639
12580TIP3   OH259154   2.884   4.338  14.430  0.3167  0.6455  0.1475
12580TIP3    H159155   2.803   4.355  14.479  1.0057  1.3998  1.0485
12580TIP3    H259156   2.856   4.340  14.338 -0.6363  1.2245  0.4253
12581TIP3   OH259157   3.764   4.211  14.461 -0.2179 -0.0964  0.0628
12581TIP3    H159158   3.727   4.192  14.374  0.7009  1.9379 -0.8543
12581TIP3    H259159   3.715   4.287  14.492 -0.0087 -0.3225  0.9762
12582TIP3   OH259160   5.461   1.567  15.882 -0.9516 -0.3773  0.2758
12582TIP3    H159161   5.541   1.558  15.934  1.1438  2.8028 -2.0412
12582TIP3    H259162   5.489   1.551  15.792 -3.7374 -2.3726 -0.3660
12583TIP3   OH259163   4.270   2.299  16.183 -0.0646 -0.1513 -0.0305
12583TIP3    H159164   4.230   2.366  16.240  0.3418  0.1979 -0.1508
12583TIP3    H259165   4.339   2.260  16.236 -0.6369 -0.8453  0.2228
12584TIP3   OH259166   4.224   2.451  12.504 -0.9428  0.0719  0.0827
12584TIP3    H159167   4.134   2.479  12.515 -1.2220 -1.0553  0.7982
12584TIP3    H259168   4.218   2.363  12.466 -0.1041  0.6578 -1.5033
12585TIP3   OH259169   4.014   5.292   2.926 -0.0100 -0.5244  0.0852
12585TIP3    H159170   3.995   5.200   2.944 -2.2543 -0.1047  0.1854
12585TIP3    H259171   3.992   5.337   3.008  0.5103  0.1688 -0.1480
12586TIP3   OH259172   5.948   2.584  16.640  0.1098  0.9714  0.0060
12586TIP3    H159173   5.858   2.594  16.609  0.4085  2.2672 -0.4942
12586TIP3    H259174   6.001   2.583  16.560  0.4350 -1.6792  0.1648
12587TIP3   OH259175   6.145   5.630   4.844  0.0952  0.3600  0.3287
12587TIP3    H159176   6.066   5.685   4.851  0.9844  1.7625 -0.1246
12587TIP3    H259177   6.155   5.615   4.750  0.3280  0.1532  0.3869
12588TIP3   OH259178   5.506   3.089  16.259 -0.6166 -0.0671 -0.1522
12588TIP3    H159179   5.491   3.106  16.352 -0.4261  1.1656 -0.3228
12588TIP3    H259180   5.595   3.052  16.256 -0.2609  0.7356  0.0916
12589TIP3   OH259181   3.741   4.989   4.367 -0.1784  0.1051 -0.2658
12589TIP3    H159182   3.832   4.995   4.396 -0.4559  0.8545  0.5055
12589TIP3    H259183   3.693   5.046   4.427 -1.0763  0.1669 -1.0192
12590TIP3   OH259184   6.455   6.585   2.422 -0.4765 -0.2802 -0.2361
12590TIP3    H159185   6.438   6.557   2.332  1.2329  1.1359 -1.0371
12590TIP3    H259186   6.401   6.664   2.434  0.5628  0.4995 -0.6053
12591TIP3   OH259187   2.827   2.319  12.226 -0.1049  0.0443  0.1157
12591TIP3    H159188   2.856   2.269  12.303  0.2355  0.8249  0.4986
12591TIP3    H259189   2.795   2.252  12.166  1.5505 -0.7832  0.0820
12592TIP3   OH259190   0.772   5.824  15.028 -0.0279 -0.4786 -0.0970
12592TIP3    H159191   0.775   5.730  15.050 -0.8644 -0.1154  1.7249
12592TIP3    H259192   0.729   5.865  15.103 -0.5310  1.2669 -1.2850
12593TIP3   OH259193   0.752   6.714  13.635 -0.1724 -0.3980 -0.3251
12593TIP3    H159194   0.673   6.729  13.687  1.1340 -0.5475  1.7988
12593TIP3    H259195   0.719   6.686  13.549 -2.4205  0.7475  0.0836
12594TIP3   OH259196   6.191   5.136  17.131  0.5192 -0.5383  0.0653
12594TIP3    H159197   6.204   5.056  17.182 -1.4099 -0.8699  0.1208
12594TIP3    H259198   6.235   5.205  17.182 -0.3267 -1.0771  1.5643
12595TIP3   OH259199   0.247   1.584   4.681  0.2235  0.4668 -0.7379
12595TIP3    H159200   0.237   1.612   4.590 -1.1050  1.3419 -0.3448
12595TIP3    H259201   0.325   1.528   4.680  0.1511  0.3376 -2.4339
12596TIP3   OH259202   0.157   3.486  10.840 -0.7162  0.2386  0.2092
12596TIP3    H159203   0.221   3.527  10.897 -0.4853  0.0024  0.1242
12596TIP3    H259204   0.186   3.509  10.751 -2.3372  2.5346  0.1770
12597TIP3   OH259205   6.579   4.777   3.383  0.4190 -0.0084 -0.3202
12597TIP3    H159206   6.594   4.864   3.346 -1.2864  0.6955  0.5226
12597TIP3    H259207   6.626   4.778   3.466  1.9042 -0.5783 -1.1179
12598TIP3   OH259208   3.737   0.600   0.945  0.1130  0.1558 -0.6434
12598TIP3    H159209   3.643   0.616   0.931  0.2425  0.8377 -0.7550
12598TIP3    H259210   3.750   0.510   0.917 -0.8288 -0.4888  0.8791
12599TIP3   OH259211   1.599   0.947  14.270  0.2046 -0.0657  0.5586
12599TIP3    H159212   1.593   0.871  14.328  0.1586 -1.7908 -1.5660
12599TIP3    H259213   1.683   0.938  14.226  0.8302  1.9276  1.2343
12600TIP3   OH259214   1.311   3.180   1.123  0.0624 -0.0657  0.0767
12600TIP3    H159215   1.329   3.226   1.206 -0.7185  0.1312  0.1379
12600TIP3    H259216   1.398   3.162   1.087  0.4079  0.0634  0.8216
12601TIP3   OH259217   1.062   5.257   4.195  0.2347 -0.2793 -0.1482
12601TIP3    H159218   1.025   5.316   4.261  1.7865 -1.0109  1.4445
12601TIP3    H259219   1.131   5.309   4.153  0.3181 -0.3419 -0.0875
12602TIP3   OH259220   5.861   3.655  10.441  0.6874 -0.1331 -0.4924
12602TIP3    H159221   5.920   3.581  10.428  2.2038  0.2957  2.8774
12602TIP3    H259222   5.919   3.728  10.463 -0.9551  0.5660  1.9611
12603TIP3   OH259223   0.957   6.765  12.604  0.2645  0.2377  0.1443
12603TIP3    H159224   0.965   6.856  12.578 -1.4669  0.3503 -0.1238
12603TIP3    H259225   0.969   6.766  12.699 -1.7164  1.0690  0.4257
12604TIP3   OH259226   5.440   5.162   3.002  0.0557 -0.2407  0.1299
12604TIP3    H159227   5.437   5.194   3.092 -1.1208  1.1655 -0.3628
12604TIP3    H259228   5.350   5.169   2.971  0.1617 -2.1104 -0.7088
12605TIP3   OH259229   2.109   1.147   5.019 -0.3045 -0.4460 -0.0057
12605TIP3    H159230   2.038   1.169   5.080 -1.3692 -0.1228 -1.3103
12605TIP3    H259231   2.162   1.227   5.015 -0.4616 -0.3297  0.1845
12606TIP3   OH259232   1.082   6.000  14.608 -0.2226  0.0022  0.5019
12606TIP3    H159233   1.080   5.976  14.700  1.3778 -1.0393  0.2979
12606TIP3    H259234   1.175   5.999  14.584 -0.6535 -0.6714 -1.3442
12607TIP3   OH259235   1.459   3.507  11.236  0.6628  0.4795 -0.5203
12607TIP3    H159236   1.386   3.497  11.297 -0.4612  0.8378 -1.7691
12607TIP3    H259237   1.512   3.428  11.249 -0.9388 -0.6963 -0.8769
12608TIP3   OH259238   1.857   1.746   3.089  0.2280 -0.4610 -0.0311
12608TIP3    H159239   1.825   1.831   3.118  0.5507 -1.0523  2.2166
12608TIP3    H259240   1.778   1.691   3.085  0.2470 -0.5006  0.1563
12609TIP3   OH259241   3.357   4.982  12.755  0.1235 -0.5481  0.7214
12609TIP3    H159242   3.443   4.947  12.775  0.3671 -0.0573  0.5365
12609TIP3    H259243   3.299   4.905  12.753  0.3116 -0.7473  2.1178
12610TIP3   OH259244   2.502   2.242  12.261 -0.2194  0.0712  0.5143
12610TIP3    H159245   2.527   2.259  12.352 -2.6520  0.5755  1.1737
12610TIP3    H259246   2.496   2.147  12.255  1.2399 -0.0385  0.4664
12611TIP3   OH259247   4.995   2.018  12.057  0.5114 -0.1057 -0.4879
12611TIP3    H159248   4.910   1.975  12.058 -0.1814  1.2149  0.4241
12611TIP3    H259249   5.049   1.965  12.116  0.2219 -0.7323 -0.7721
12612TIP3   OH259250   2.559   2.761  12.974 -0.0462  0.2418 -0.3014
12612TIP3    H159251   2.502   2.801  13.039  1.3650  1.5965  0.1617
12612TIP3    H259252   2.636   2.732  13.023 -1.3664 -4.1993 -0.3817
12613TIP3   OH259253   5.696   2.526   0.766 -0.3160 -0.0548  0.0027
12613TIP3    H159254   5.656   2.613   0.758 -2.2956 -1.0060 -1.0204
12613TIP3    H259255   5.626   2.469   0.796  0.6489 -1.5218 -0.4073
12614TIP3   OH259256   3.789   0.093   0.226  0.6776 -0.1745 -0.6881
12614TIP3    H159257   3.792  -0.001   0.242 -0.2622 -0.1547 -0.3036
12614TIP3    H259258   3.696   0.116   0.236  1.0956  1.0589  0.8056
12615TIP3   OH259259   4.848   2.099   2.004  0.6822  0.0096 -0.1798
12615TIP3    H159260   4.825   2.006   2.003  1.6388 -0.2389 -1.1668
12615TIP3    H259261   4.864   2.118   2.096 -1.8667 -0.1582  0.3875
12616TIP3   OH259262   2.900   0.341   2.439  0.2516  0.3479  0.2232
12616TIP3    H159263   2.817   0.296   2.426 -0.0442  1.1307 -0.6931
12616TIP3    H259264   2.884   0.399   2.514 -0.0116  0.4304  0.1060
12617TIP3   OH259265   3.457   1.098  13.426 -0.1961  0.1262 -0.4075
12617TIP3    H159266   3.440   1.004  13.418 -0.9794  0.1443  0.8597
12617TIP3    H259267   3.537   1.103  13.477  0.3372  0.1507 -1.2233
12618TIP3   OH259268   2.568   2.750   4.442  0.2829 -0.0791 -0.1588
12618TIP3    H159269   2.584   2.749   4.536  0.3071 -2.1284 -0.1306
12618TIP3    H259270   2.655   2.760   4.402  0.4773 -0.9248  0.0406
12619TIP3   OH259271   5.725   5.132   3.073  0.2412 -0.0118 -0.7645
12619TIP3    H159272   5.661   5.127   3.002  0.8379  1.9643 -1.5284
12619TIP3    H259273   5.681   5.182   3.141  1.1623  2.0938 -1.6272
12620TIP3   OH259274   1.969   4.548  13.696  0.0866  0.3467 -0.0997
12620TIP3    H159275   1.990   4.506  13.780  0.2042  1.7161  0.5801
12620TIP3    H259276   2.039   4.612  13.683  1.0982 -1.0595 -2.1682
12621TIP3   OH259277   0.938   1.613   6.683  0.0043  0.0853 -0.3616
12621TIP3    H159278   0.905   1.557   6.753 -0.4142 -0.1003 -0.7004
12621TIP3    H259279   1.030   1.589   6.673 -0.4945 -1.5845 -1.4707
12622TIP3   OH259280   5.272   1.687  14.347 -0.0474 -0.5757 -0.3962
12622TIP3    H159281   5.314   1.602  14.334 -0.5972 -0.8176 -0.6588
12622TIP3    H259282   5.324   1.748  14.296  0.1778 -0.8108 -0.4481
12623TIP3   OH259283   3.619   0.218   1.453 -0.2004  0.2882  0.3718
12623TIP3    H159284   3.668   0.149   1.497 -1.2120 -0.4886  0.3085
12623TIP3    H259285   3.634   0.203   1.360  0.9812  1.2198  0.3900
12624TIP3   OH259286   6.483   1.022  16.863  0.1544 -0.1600 -0.0332
12624TIP3    H159287   6.569   0.985  16.842 -0.2674 -0.6915 -0.9173
12624TIP3    H259288   6.451   1.057  16.780 -0.7820 -0.6158  0.1148
12625TIP3   OH259289   0.058   4.098   0.211 -0.0008 -0.3696  0.0326
12625TIP3    H159290   0.151   4.093   0.234 -0.0843 -0.9290  0.2510
12625TIP3    H259291   0.022   4.013   0.236 -0.6253 -0.0684  0.1818
12626TIP3   OH259292   6.131   1.124   1.501  0.9092  0.2119  1.1614
12626TIP3    H159293   6.189   1.050   1.517 -0.6740 -0.9448  1.8928
12626TIP3    H259294   6.067   1.120   1.572 -0.1538  1.3190  0.3221
12627TIP3   OH259295   3.553   4.022  11.611 -0.3824 -0.1134 -0.3994
12627TIP3    H159296   3.649   4.014  11.610  0.1350  4.0427  0.4287
12627TIP3    H259297   3.528   4.034  11.520  0.0898  0.2672 -0.4822
12628TIP3   OH259298   0.263   1.619  16.042 -0.7697  0.5302  0.2447
12628TIP3    H159299   0.214   1.646  16.120  0.5916  0.5793  1.0957
12628TIP3    H259300   0.206   1.555  16.000 -0.9444 -0.5316  2.0073
12629TIP3   OH259301   1.826   5.157   2.096  0.0033 -0.1374  0.0422
12629TIP3    H159302   1.781   5.181   2.015 -0.5303 -1.7096 -0.1486
12629TIP3    H259303   1.821   5.062   2.100  0.9578 -0.1665  1.3964
12630TIP3   OH259304   2.533   0.761  16.722  0.1623 -0.3680 -0.0401
12630TIP3    H159305   2.602   0.827  16.711 -1.9414  2.0791  0.3916
12630TIP3    H259306   2.457   0.811  16.752 -1.4519 -3.1203  0.8204
12631TIP3   OH259307   2.854   4.111   1.747 -0.2437 -0.0668  0.3043
12631TIP3    H159308   2.792   4.179   1.771 -0.8410 -0.7485  0.7274
12631TIP3    H259309   2.807   4.029   1.761  1.1238 -0.6530  1.7348
12632TIP3   OH259310   2.066   5.689  14.125  0.1434 -0.4943  0.1705
12632TIP3    H159311   2.035   5.618  14.181  1.2176 -0.7138  0.5140
12632TIP3    H259312   1.995   5.753  14.125 -0.0647 -0.7065  1.3931
12633TIP3   OH259313   3.741   1.020  16.876 -0.2660 -0.7474  0.4464
12633TIP3    H159314   3.820   1.074  16.869  0.6104 -1.7894  1.7611
12633TIP3    H259315   3.727   1.010  16.970 -2.2038 -0.2940  0.2438
12634TIP3   OH259316   3.672   3.712   5.089  0.3206  0.0187  0.3944
12634TIP3    H159317   3.738   3.746   5.029 -0.3736 -0.9966 -1.0053
12634TIP3    H259318   3.721   3.687   5.167  1.1194  2.2802  0.6816
12635TIP3   OH259319   2.445   4.865  17.048  0.2631  0.3369 -0.2443
12635TIP3    H159320   2.363   4.894  17.090 -0.4426  0.6080 -1.7251
12635TIP3    H259321   2.489   4.947  17.025  0.2297  0.2136 -0.7650
12636TIP3   OH259322   0.108   0.310  16.002 -0.3572  0.5053 -0.2611
12636TIP3    H159323   0.199   0.288  16.022 -0.4938 -0.8358 -1.0066
12636TIP3    H259324   0.111   0.351  15.916 -0.3854  1.1760  0.0507
12637TIP3   OH259325   3.672   2.953  16.543  0.3362  0.1698 -0.5066
12637TIP3    H159326   3.722   3.034  16.537 -0.9757  0.9969 -0.7083
12637TIP3    H259327   3.624   2.961  16.626 -0.2477 -0.1221 -0.8103
12638TIP3   OH259328   5.232   1.708   4.960 -0.0074  0.9331 -0.1000
12638TIP3    H159329   5.182   1.666   4.890 -1.3770  0.5177  1.0847
12638TIP3    H259330   5.323   1.694   4.936 -0.4005 -1.9689 -0.2065
12639TIP3   OH259331   6.558   6.375  13.789 -0.6769  0.1327 -0.2611
12639TIP3    H159332   6.537   6.424  13.869  0.0134  1.2520 -0.7421
12639TIP3    H259333   6.506   6.418  13.721 -1.3886 -0.9201 -0.4070
12640TIP3   OH259334   2.798   1.009   3.001  0.0830  0.4340 -0.2714
12640TIP3    H159335   2.866   1.068   2.968  0.6362 -1.1067 -2.1190
12640TIP3    H259336   2.845   0.944   3.052 -0.5005  1.4276  1.6064
12641TIP3   OH259337   5.216   2.194  15.037 -0.3606  0.4667 -0.8353
12641TIP3    H159338   5.178   2.282  15.033  2.1897  1.6874 -0.2402
12641TIP3    H259339   5.195   2.164  15.126  0.7342  1.4781 -0.2112
12642TIP3   OH259340   2.496   2.180  13.203 -0.7413 -0.2439  0.3181
12642TIP3    H159341   2.496   2.093  13.165 -2.5338 -0.0160 -0.3228
12642TIP3    H259342   2.545   2.171  13.285 -1.7693 -2.1180  0.7989
12643TIP3   OH259343   3.655   0.928  13.032 -0.3305 -0.0315  0.0393
12643TIP3    H159344   3.716   0.998  13.010  0.4378 -1.0728 -1.2799
12643TIP3    H259345   3.569   0.964  13.013 -0.2106  1.5563  2.1802
12644TIP3   OH259346   6.294   6.048  16.445 -0.3508 -0.4035  0.2908
12644TIP3    H159347   6.235   6.100  16.392  0.0074  0.8775  1.0970
12644TIP3    H259348   6.372   6.103  16.456 -0.4138 -0.6078  2.1059
12645TIP3   OH259349   2.887   6.421   2.073  0.4202  0.5386 -0.4953
12645TIP3    H159350   2.893   6.353   2.005 -2.1363  1.1448 -1.4449
12645TIP3    H259351   2.910   6.502   2.028  1.0232  0.6362 -0.0154
12646TIP3   OH259352   3.639   4.260   0.296 -0.1178  0.1181 -0.0823
12646TIP3    H159353   3.612   4.346   0.328  2.2537  0.3116  1.7456
12646TIP3    H259354   3.589   4.247   0.216 -2.4028  2.0669  0.9144
12647TIP3   OH259355   4.724   2.823   5.475 -0.1539 -0.5417 -0.1812
12647TIP3    H159356   4.775   2.904   5.481 -2.1723  0.8646 -1.0892
12647TIP3    H259357   4.747   2.788   5.388 -0.5330 -0.0529 -0.4807
12648TIP3   OH259358   0.783   0.885  16.853 -0.2597  0.1036 -0.1082
12648TIP3    H159359   0.822   0.851  16.772 -1.9003  1.9014 -1.7225
12648TIP3    H259360   0.844   0.953  16.883  0.0796 -0.2019 -0.0931
12649TIP3   OH259361   6.397   4.581   3.538 -0.0270  0.0891  0.3083
12649TIP3    H159362   6.424   4.657   3.588  0.1939 -0.6958  1.4148
12649TIP3    H259363   6.451   4.509   3.571 -0.1379 -0.5361 -0.7943
12650TIP3   OH259364   1.942   1.373   0.455  0.0570  0.3248  0.3390
12650TIP3    H159365   1.889   1.371   0.534  0.7766 -2.4421  0.8434
12650TIP3    H259366   1.886   1.333   0.388  0.0522  1.1715 -0.1847
12651TIP3   OH259367   1.989   6.653   1.587  0.8809  0.6284  0.7305
12651TIP3    H159368   1.967   6.630   1.497 -1.4039 -0.3656  1.4761
12651TIP3    H259369   1.956   6.743   1.597 -0.9516 -0.0516  1.1752
12652TIP3   OH259370   3.462   5.976   5.423 -0.3872 -0.3283  0.2518
12652TIP3    H159371   3.493   5.973   5.513  0.8617 -1.2735 -0.1669
12652TIP3    H259372   3.540   6.001   5.372 -1.2464  0.9271 -0.5031
12653TIP3   OH259373   1.630   4.295   3.922 -0.1608  0.0973 -0.0628
12653TIP3    H159374   1.682   4.215   3.934 -1.3775 -1.0595 -1.9701
12653TIP3    H259375   1.633   4.338   4.007  1.9061 -1.1218  0.5679
12654TIP3   OH259376   3.352   0.657   2.501  0.4843  0.0608  0.4872
12654TIP3    H159377   3.384   0.747   2.495  1.5036 -0.3055  0.3694
12654TIP3    H259378   3.429   0.604   2.522 -0.4124 -0.5658  2.4743
12655TIP3   OH259379   4.794   2.625   5.282  0.5504  0.1178  0.1911
12655TIP3    H159380   4.700   2.645   5.274  0.9859  3.4003  1.6203
12655TIP3    H259381   4.829   2.643   5.194  0.0713  0.6407  0.0961
12656TIP3   OH259382   0.771   0.005  12.024  0.0574  0.6403  0.3050
12656TIP3    H159383   0.766   0.098  12.049  0.9427  0.6099  0.6278
12656TIP3    H259384   0.842   0.001  11.961 -0.9189  0.3984 -0.8134
12657TIP3   OH259385   2.022   5.440   3.998  0.1934  0.3113 -0.3287
12657TIP3    H159386   1.963   5.406   3.930  0.2283  0.8810 -0.6511
12657TIP3    H259387   2.043   5.364   4.052 -1.5083  0.2424  0.3039
12658TIP3   OH259388   2.438   5.632   1.801 -0.4726 -0.5000  0.7101
12658TIP3    H159389   2.532   5.623   1.787 -0.5709 -1.1724  0.4014
12658TIP3    H259390   2.424   5.725   1.817 -0.2273  0.3476 -3.0929
12659TIP3   OH259391   0.278   3.849  11.002  0.5752  0.4213 -0.0142
12659TIP3    H159392   0.264   3.754  11.000  0.4875  0.4279  0.2184
12659TIP3    H259393   0.300   3.872  10.912 -2.2168  0.6220 -0.7216
12660TIP3   OH259394   5.775   6.412   2.156 -0.1197 -0.5756 -0.5142
12660TIP3    H159395   5.847   6.352   2.173  0.2546 -0.2631 -1.0036
12660TIP3    H259396   5.811   6.499   2.173 -0.0600 -0.3343 -1.7818
12661TIP3   OH259397   5.594   5.047   4.185  0.4339  0.0270  0.2719
12661TIP3    H159398   5.611   5.023   4.094 -1.1472 -0.3948  0.0652
12661TIP3    H259399   5.617   5.140   4.190  2.8092 -0.4697  0.0858
12662TIP3   OH259400   4.617   5.524   4.426 -0.5997  0.1341 -0.5546
12662TIP3    H159401   4.537   5.573   4.445  1.4510  2.4873  3.3644
12662TIP3    H259402   4.675   5.586   4.383  1.5239  1.1021  3.1924
12663TIP3   OH259403   1.537   4.539  15.252 -0.3626 -0.0895  0.3771
12663TIP3    H159404   1.454   4.508  15.290 -0.6517  0.7273  0.4196
12663TIP3    H259405   1.532   4.634  15.258 -0.2047  0.0435 -1.2529
12664TIP3   OH259406   0.762   4.369  10.479 -0.3639 -0.2355  0.2123
12664TIP3    H159407   0.845   4.405  10.447 -0.8800  0.1213 -0.7595
12664TIP3    H259408   0.724   4.439  10.531 -0.6840  0.1091 -0.4725
12665TIP3   OH259409   5.635   6.662   4.795  0.9783  0.1825 -0.2531
12665TIP3    H159410   5.594   6.706   4.720  1.6899  0.8008 -0.3035
12665TIP3    H259411   5.583   6.583   4.808  0.7671  0.1167 -1.3363
12666TIP3   OH259412   6.478   2.799  14.718 -0.1899  0.1024 -0.3223
12666TIP3    H159413   6.386   2.818  14.701 -0.1587  0.0919 -0.4968
12666TIP3    H259414   6.494   2.716  14.674 -0.5777 -0.8404  1.2240
12667TIP3   OH259415   0.938   4.195  15.583 -0.5464 -0.1752  0.3322
12667TIP3    H159416   0.913   4.286  15.597 -0.2339  0.1150 -0.9517
12667TIP3    H259417   0.960   4.189  15.490  1.1123 -1.1412  0.7400
12668TIP3   OH259418   3.184   6.466   4.328  0.1360  0.1170  0.4905
12668TIP3    H159419   3.118   6.483   4.261  2.2707 -3.7707 -3.1171
12668TIP3    H259420   3.257   6.525   4.305  0.0818  0.2966  0.7755
12669TIP3   OH259421   4.219   2.642  16.059  0.1636  0.1545 -0.0254
12669TIP3    H159422   4.180   2.670  15.976  0.9103 -0.0397 -0.4452
12669TIP3    H259423   4.308   2.617  16.037  0.4219  0.2510  0.8737
12670TIP3   OH259424   2.643   5.774  11.507 -0.4796  1.0360 -0.3990
12670TIP3    H159425   2.637   5.700  11.568 -0.7276  2.6832  1.7193
12670TIP3    H259426   2.719   5.824  11.538  0.4315  1.0623 -2.5397
12671TIP3   OH259427   1.913   3.173  13.722 -0.6203 -0.3745 -0.0288
12671TIP3    H159428   1.886   3.247  13.668  0.0030 -1.3693 -1.7633
12671TIP3    H259429   1.861   3.182  13.802 -1.1622  1.4549 -0.5360
12672TIP3   OH259430   6.207   2.580   1.010  0.1570 -0.1629  0.3577
12672TIP3    H159431   6.261   2.522   0.957  1.2014  0.0936  1.1220
12672TIP3    H259432   6.121   2.579   0.966  1.0338  0.2150 -1.4514
12673TIP3   OH259433   2.190   4.671   2.364  0.0175 -0.4538 -0.2056
12673TIP3    H159434   2.209   4.598   2.424 -0.3439 -1.4979 -1.3166
12673TIP3    H259435   2.205   4.634   2.277 -0.7976  0.6283 -0.8211
12674TIP3   OH259436   0.667   4.220   3.626  0.0336 -0.2850 -0.2164
12674TIP3    H159437   0.712   4.298   3.659 -1.7706  1.0106 -0.6656
12674TIP3    H259438   0.599   4.202   3.691  0.1315 -1.1959 -0.3565
12675TIP3   OH259439   0.779   5.209   4.405  0.6153 -0.6736 -0.6920
12675TIP3    H159440   0.862   5.228   4.448  1.3835 -2.0273 -1.5199
12675TIP3    H259441   0.714   5.255   4.458  1.5595 -1.8959  1.6920
12676TIP3   OH259442   2.423   0.675  11.696 -0.3911  0.3804  0.2986
12676TIP3    H159443   2.421   0.749  11.635  1.8577  0.6374  0.4511
12676TIP3    H259444   2.334   0.640  11.694 -1.2325  2.4158 -0.5969
12677TIP3   OH259445   1.107   3.060  14.725  0.5564 -0.3098  0.1831
12677TIP3    H159446   1.042   3.063  14.795  0.1740  0.5392 -0.1964
12677TIP3    H259447   1.150   2.975  14.736 -1.7062 -1.6413 -0.5367
12678TIP3   OH259448   5.827   1.452   1.430 -0.1851  0.0458  0.0195
12678TIP3    H159449   5.767   1.525   1.414  0.7924  0.4762 -2.0737
12678TIP3    H259450   5.913   1.493   1.443  0.4152 -0.6912 -1.3875
12679TIP3   OH259451   4.104   6.433  16.583 -0.0700 -0.1070  0.0644
12679TIP3    H159452   4.192   6.456  16.613  0.5131  0.1464 -1.7212
12679TIP3    H259453   4.050   6.507  16.612  0.4777  0.1910  0.3583
12680TIP3   OH259454   2.538   2.477   1.912  1.1627 -0.0338 -0.2624
12680TIP3    H159455   2.496   2.544   1.967  0.4512  0.0022 -0.8281
12680TIP3    H259456   2.630   2.503   1.909  0.9908  0.6334 -0.0616
12681TIP3   OH259457   4.564   4.791   4.161 -0.2108  0.4793  0.3275
12681TIP3    H159458   4.527   4.719   4.111 -2.0057 -0.0276  2.2466
12681TIP3    H259459   4.564   4.865   4.100 -0.7695 -0.4936 -0.8968
12682TIP3   OH259460   5.996   3.112   3.241 -0.3224  0.2963  0.0987
12682TIP3    H159461   6.041   3.174   3.298 -0.4316  1.4758 -1.0507
12682TIP3    H259462   5.958   3.166   3.171 -3.7065 -0.5722  1.0547
12683TIP3   OH259463   2.658   5.181   2.003 -0.0054 -0.3461  0.9070
12683TIP3    H159464   2.716   5.209   2.073  1.1359 -2.1122  0.7223
12683TIP3    H259465   2.600   5.118   2.044 -1.1216  0.5962  0.8323
12684TIP3   OH259466   3.099   2.953   6.180 -0.3435  0.1308 -0.1741
12684TIP3    H159467   3.107   3.013   6.254  0.2950  1.0934 -1.0053
12684TIP3    H259468   3.103   3.009   6.102 -2.5209 -0.6885 -0.9473
12685TIP3   OH259469   0.670   1.068   3.059 -0.1935  0.1158 -0.5296
12685TIP3    H159470   0.616   1.017   2.999  0.8579 -0.6236 -0.8808
12685TIP3    H259471   0.691   1.147   3.010 -0.4203  0.1118 -0.6355
12686TIP3   OH259472   5.067   0.869  15.706  0.4824 -0.2320  0.0146
12686TIP3    H159473   5.006   0.930  15.666 -0.3649  0.2629  1.9720
12686TIP3    H259474   5.154   0.901  15.679  0.0218  1.2609  0.2225
12687TIP3   OH259475   3.345   0.686  13.680  0.0248 -0.2929  0.0911
12687TIP3    H159476   3.439   0.673  13.665 -0.1675 -0.6551 -0.8380
12687TIP3    H259477   3.341   0.749  13.752  0.9797 -0.4991  0.3403
12688TIP3   OH259478   5.061   4.541  15.416  0.2677 -0.1445  0.0559
12688TIP3    H159479   5.115   4.615  15.443  1.9322 -0.3516 -2.4344
12688TIP3    H259480   5.118   4.465  15.423 -0.5750 -0.7994 -0.0020
12689TIP3   OH259481   3.763   6.588   1.857  0.0351  0.1032 -0.4518
12689TIP3    H159482   3.747   6.516   1.918  0.6336  0.1960 -0.1777
12689TIP3    H259483   3.689   6.646   1.867  0.9680  1.0283  1.4997
12690TIP3   OH259484   2.090   2.173   0.055  0.2832  0.3503 -0.3674
12690TIP3    H159485   2.019   2.139   0.110 -2.5405  0.0112 -3.8882
12690TIP3    H259486   2.141   2.095   0.031  0.2432  0.1914  0.0534
12691TIP3   OH259487   5.533   2.969   1.045  0.1591  0.4562 -0.3569
12691TIP3    H159488   5.475   3.045   1.033  0.9206  1.2958  0.9814
12691TIP3    H259489   5.619   3.002   1.021  0.3267 -0.3634 -0.9234
12692TIP3   OH259490   0.157   1.336  13.762  0.2904  0.3240  0.4052
12692TIP3    H159491   0.072   1.381  13.764 -0.2837 -0.7478  1.0044
12692TIP3    H259492   0.204   1.370  13.838  0.0669  0.3010  0.5540
12693TIP3   OH259493   5.647   6.392   5.817 -0.0071  0.6708  0.9627
12693TIP3    H159494   5.690   6.475   5.836 -1.2570  1.4711  0.4565
12693TIP3    H259495   5.558   6.417   5.789  0.1554 -0.7076 -0.9825
12694TIP3   OH259496   4.306   4.963  14.506  0.1287 -0.0359  0.2878
12694TIP3    H159497   4.242   5.010  14.452  0.9604 -0.9835 -1.6419
12694TIP3    H259498   4.390   4.983  14.464  0.8572 -0.5188  1.4881
12695TIP3   OH259499   0.598   2.887   4.597  0.2063 -0.3399 -0.2089
12695TIP3    H159500   0.556   2.954   4.652  0.5404  1.1311 -1.6420
12695TIP3    H259501   0.650   2.835   4.658  0.0007  0.7710  0.9657
12696TIP3   OH259502   2.109   1.756  10.522 -0.6352  0.4495  0.2307
12696TIP3    H159503   2.202   1.775  10.530 -0.3292  0.2898 -2.1892
12696TIP3    H259504   2.066   1.841  10.534 -0.0885  0.7480  0.1062
12697TIP3   OH259505   6.678   2.453  13.539 -0.3484 -0.2785  0.1128
12697TIP3    H159506   6.615   2.479  13.472 -0.1375  0.9103  0.3472
12697TIP3    H259507   6.696   2.361  13.521 -0.9941 -0.2259 -0.8841
12698TIP3   OH259508   5.683   1.812  15.723  0.1786 -0.6265  0.6562
12698TIP3    H159509   5.608   1.755  15.707  2.2513 -2.9482 -1.6183
12698TIP3    H259510   5.747   1.756  15.767  1.3268  0.7553  0.8359
12699TIP3   OH259511   6.308   1.551   0.745 -0.1319 -0.1256  0.3174
12699TIP3    H159512   6.262   1.471   0.772 -0.2949  0.1631  0.9165
12699TIP3    H259513   6.238   1.612   0.723 -0.0094 -0.1129 -0.0371
12700TIP3   OH259514   1.946   2.056   4.541  0.1983 -0.1193 -0.6973
12700TIP3    H159515   1.909   2.049   4.453 -1.8484  0.2097  0.0826
12700TIP3    H259516   2.003   2.133   4.537 -1.6267  1.2741 -1.2004
12701TIP3   OH259517   4.979   6.409  12.519  0.3809 -1.0982  0.4480
12701TIP3    H159518   4.906   6.349  12.535  0.7518 -2.0200 -1.0886
12701TIP3    H259519   4.938   6.496  12.517 -0.4758 -1.4748  0.7568
12702TIP3   OH259520   3.586   0.249   5.669  0.0456 -0.2846 -0.4238
12702TIP3    H159521   3.615   0.163   5.640  0.5569 -0.1221 -0.3948
12702TIP3    H259522   3.497   0.258   5.634  0.7929  0.0950 -2.3257
12703TIP3   OH259523   4.611   2.051   2.341 -1.2973 -0.1258 -0.0917
12703TIP3    H159524   4.654   2.134   2.363  2.5035 -1.6863 -0.9324
12703TIP3    H259525   4.538   2.077   2.284 -0.9707  2.6865  0.6048
12704TIP3   OH259526   1.537   0.190   6.963  0.4082  0.5999  0.6087
12704TIP3    H159527   1.515   0.201   6.871 -0.8573 -0.0241  0.8210
12704TIP3    H259528   1.455   0.206   7.010  0.9150  0.4058  1.5939
12705TIP3   OH259529   1.180   1.512   6.620  0.5743  0.1132  0.1503
12705TIP3    H159530   1.216   1.593   6.656  2.1737 -0.3604 -0.2587
12705TIP3    H259531   1.165   1.531   6.528  0.2961  0.1447  0.2020
12706TIP3   OH259532   1.394   3.158   3.882  0.3237  0.3856 -0.0238
12706TIP3    H159533   1.369   3.245   3.851  0.0662  0.2272 -0.2640
12706TIP3    H259534   1.311   3.114   3.900  0.4514  0.1647  0.0306
12707TIP3   OH259535   2.613   5.649  13.535 -0.0502  0.3851 -0.8078
12707TIP3    H159536   2.695   5.697  13.545  0.3740 -0.8351  2.8918
12707TIP3    H259537   2.640   5.560  13.513 -0.1338 -0.4496  2.0864
12708TIP3   OH259538   1.633   1.660   0.012  0.0592 -0.2880 -0.2885
12708TIP3    H159539   1.666   1.636   0.099  0.4739  1.2319 -0.0010
12708TIP3    H259540   1.703   1.634  -0.048 -1.0038 -3.1737 -0.4853
12709TIP3   OH259541   2.031   3.945   2.297  0.2910 -0.1555 -0.0875
12709TIP3    H159542   1.961   4.002   2.265 -0.7712 -0.5399  1.4421
12709TIP3    H259543   2.106   4.004   2.309 -0.4799  0.7436  0.4572
12710TIP3   OH259544   6.367   2.075   4.525 -0.1607  0.5764 -0.5938
12710TIP3    H159545   6.341   2.014   4.595  0.5568  0.8671 -0.0522
12710TIP3    H259546   6.439   2.030   4.481 -1.5642 -0.2594 -2.1324
12711TIP3   OH259547   4.058   4.080  14.360 -0.0580  0.0030  0.6650
12711TIP3    H159548   4.112   4.005  14.383  1.4778  1.1718  1.0657
12711TIP3    H259549   3.987   4.044  14.307  2.5959 -1.3421 -2.2952
12712TIP3   OH259550   3.488   2.852  13.143 -0.1711 -0.1434  0.0628
12712TIP3    H159551   3.583   2.856  13.151 -0.1373 -1.9147  1.0888
12712TIP3    H259552   3.456   2.933  13.183  0.9035  0.6324 -0.6189
12713TIP3   OH259553   5.626   3.772   1.444 -0.5318 -0.5436 -0.5253
12713TIP3    H159554   5.675   3.694   1.419 -1.6785 -0.5558 -3.0875
12713TIP3    H259555   5.579   3.747   1.524  1.5441 -1.3444  0.5267
12714TIP3   OH259556   0.545   6.074   2.513 -0.2230  0.2015 -0.0430
12714TIP3    H159557   0.608   6.132   2.554  0.2643 -1.9668  2.6461
12714TIP3    H259558   0.596   5.997   2.487 -1.5615 -1.3926  1.7532
12715TIP3   OH259559   5.204   3.388   1.350  0.3006  0.0694  0.5557
12715TIP3    H159560   5.273   3.448   1.320  0.5451 -0.5476 -0.1227
12715TIP3    H259561   5.220   3.380   1.445 -0.7444  2.3690  0.9954
12716TIP3   OH259562   6.286   0.845   2.168  0.4086  0.2109 -0.1638
12716TIP3    H159563   6.381   0.839   2.177  0.3312  0.3577  0.9546
12716TIP3    H259564   6.265   0.935   2.192  0.1076  0.6243 -1.8562
12717TIP3   OH259565   5.932   6.108   5.065  0.4831 -0.0348 -0.0083
12717TIP3    H159566   5.908   6.193   5.027 -1.0205  0.0241  0.9982
12717TIP3    H259567   5.858   6.050   5.042 -0.0777 -0.2097  2.0522
12718TIP3   OH259568   1.627   6.588  15.573 -0.6372 -0.2220 -0.4413
12718TIP3    H159569   1.685   6.530  15.623 -2.7297 -1.8849  0.2109
12718TIP3    H259570   1.611   6.540  15.492 -0.6023  0.5342 -0.9034
12719TIP3   OH259571   2.122   2.004  14.256  0.2588 -0.4289  0.5619
12719TIP3    H159572   2.141   2.097  14.273 -0.5975 -0.2455  0.6089
12719TIP3    H259573   2.070   2.005  14.176  0.5106 -0.8967  0.3947
12720TIP3   OH259574   5.800   3.717   3.823 -0.2579 -0.0676  0.4915
12720TIP3    H159575   5.893   3.736   3.807 -0.4618  1.7330  1.2912
12720TIP3    H259576   5.754   3.797   3.799 -1.8315 -1.4255 -1.3649
12721TIP3   OH259577   1.635   5.415   5.085 -0.9357  0.0976 -0.6467
12721TIP3    H159578   1.568   5.376   5.028 -0.1798 -0.0440 -1.4668
12721TIP3    H259579   1.599   5.407   5.173 -0.3199 -3.6969 -0.5733
12722TIP3   OH259580   1.663   4.801  11.323  0.6242 -0.2607 -0.6002
12722TIP3    H159581   1.717   4.761  11.391 -0.4259  1.4899  1.3961
12722TIP3    H259582   1.622   4.727  11.278  0.5498 -1.5121  1.3833
12723TIP3   OH259583   5.696   0.338  11.531 -0.2118  0.0849 -0.1025
12723TIP3    H159584   5.617   0.335  11.585 -0.6862 -1.9133 -0.8194
12723TIP3    H259585   5.680   0.275  11.461  1.5299  0.5436 -0.9789
12724TIP3   OH259586   2.540   3.358  12.693  0.2922 -0.5478  0.0434
12724TIP3    H159587   2.480   3.369  12.767  2.1394 -0.1526  1.5721
12724TIP3    H259588   2.500   3.408  12.622 -1.2740 -0.4744  0.9309
12725TIP3   OH259589   0.268   5.094  15.441  0.1017  0.0109 -0.3519
12725TIP3    H159590   0.364   5.096  15.436  0.1644  0.7130  0.8572
12725TIP3    H259591   0.246   5.162  15.504 -1.1776 -0.5005 -0.2283
12726TIP3   OH259592   4.733   1.023  10.673  0.0481 -0.4371  0.0726
12726TIP3    H159593   4.669   1.015  10.602 -1.7116  2.9763  1.0869
12726TIP3    H259594   4.802   1.078  10.637  1.1532 -1.9065 -0.1462
12727TIP3   OH259595   0.084   5.594   4.424 -0.3445  0.7867  0.3250
12727TIP3    H159596   0.028   5.521   4.449  0.2393  0.7094  1.4874
12727TIP3    H259597   0.152   5.555   4.368 -1.5945  0.9376 -1.3670
12728TIP3   OH259598   2.270   0.361  13.671  0.3848 -0.1519 -0.0515
12728TIP3    H159599   2.226   0.421  13.611  1.3519 -1.0164 -1.6838
12728TIP3    H259600   2.236   0.275  13.648  0.0172 -0.4023  1.3549
12729TIP3   OH259601   6.443   0.772  12.973  0.3676  0.4322 -0.0942
12729TIP3    H159602   6.403   0.731  12.896  1.2193 -1.2484  0.3013
12729TIP3    H259603   6.425   0.711  13.045  1.6503  0.7531  0.5326
12730TIP3   OH259604   1.626   6.612  14.077  0.2572  0.0609  0.4287
12730TIP3    H159605   1.643   6.603  14.171 -0.7337 -1.1969  0.5086
12730TIP3    H259606   1.561   6.681  14.071  0.4857  0.2983  0.6446
12731TIP3   OH259607   6.066   3.846   2.114 -0.2218 -0.0478  0.3768
12731TIP3    H159608   6.097   3.923   2.161  1.2466 -2.0261  2.9149
12731TIP3    H259609   6.081   3.866   2.021  0.1700  2.6389  0.9503
12732TIP3   OH259610   2.255   4.484  17.045 -0.3514  0.3848 -0.8091
12732TIP3    H159611   2.291   4.443  17.124  0.6270  2.0329 -0.3609
12732TIP3    H259612   2.178   4.532  17.075 -0.0178  0.9577 -0.8465
12733TIP3   OH259613   1.742   4.871  15.452 -0.0569 -0.0234  0.7747
12733TIP3    H159614   1.792   4.881  15.371  0.4185  0.1514  1.0879
12733TIP3    H259615   1.651   4.864  15.423  0.2397 -1.4138  0.1466
12734TIP3   OH259616   5.403   3.322   3.785  0.5140 -0.0412 -0.3911
12734TIP3    H159617   5.321   3.362   3.813  0.7031 -1.5467  2.7753
12734TIP3    H259618   5.470   3.387   3.806  0.4114 -0.1736  0.3782
12735TIP3   OH259619   4.837   2.162   1.044 -0.0225 -0.2183 -0.5089
12735TIP3    H159620   4.923   2.201   1.060 -0.7507  0.9540  0.8074
12735TIP3    H259621   4.812   2.193   0.957  0.5744 -0.0026 -0.6094
12736TIP3   OH259622   0.131   4.771   2.542  0.1412 -0.6350  0.2872
12736TIP3    H159623   0.145   4.693   2.490  0.9307 -0.3331  0.0421
12736TIP3    H259624   0.089   4.739   2.622  0.4398 -1.3050  0.1820
12737TIP3   OH259625   0.402   0.563  15.533  0.0511 -0.1828 -0.0022
12737TIP3    H159626   0.446   0.551  15.449 -1.6680 -0.2765 -0.9454
12737TIP3    H259627   0.397   0.658  15.544 -2.7655 -0.0151 -1.7938
12738TIP3   OH259628   6.333   4.282   3.829 -0.6021  0.8296  0.1554
12738TIP3    H159629   6.341   4.201   3.778  1.3286  0.5161  0.8766
12738TIP3    H259630   6.265   4.263   3.893  1.7606 -1.3977  2.2345
12739TIP3   OH259631   5.725   5.630  13.902  0.3179 -0.1161 -0.3671
12739TIP3    H159632   5.740   5.662  13.813  1.3213 -1.6161 -0.7728
12739TIP3    H259633   5.758   5.699  13.959  1.2523  0.1295 -1.1890
12740TIP3   OH259634   3.324   2.597   2.552  0.0376  0.1957  0.3289
12740TIP3    H159635   3.311   2.506   2.524  0.0143  0.7762 -1.6678
12740TIP3    H259636   3.406   2.594   2.603  0.0379 -0.9305  0.2967
12741TIP3   OH259637   4.797   6.584   0.441 -0.0528 -0.4201 -0.2436
12741TIP3    H159638   4.802   6.497   0.403 -2.1829 -1.0259  0.7057
12741TIP3    H259639   4.707   6.613   0.426  0.4817  1.4664 -0.1779
12742TIP3   OH259640   4.019   6.126   1.528  0.2537 -0.7486  0.5254
12742TIP3    H159641   3.971   6.092   1.453  1.8753 -1.0056 -0.4316
12742TIP3    H259642   3.951   6.166   1.583 -0.8924  0.1727 -1.4371
12743TIP3   OH259643   3.171   3.765   3.697  0.5195 -0.2135 -0.3849
12743TIP3    H159644   3.076   3.774   3.702  0.4605 -0.0939 -1.3856
12743TIP3    H259645   3.195   3.717   3.776 -0.0796  1.9001  1.1896
12744TIP3   OH259646   3.392   6.266   0.256  0.2594  0.8071  0.2562
12744TIP3    H159647   3.465   6.216   0.293  0.5009  1.1483  0.2480
12744TIP3    H259648   3.314   6.230   0.298  0.3805  0.0609 -0.1457
12745TIP3   OH259649   2.310   0.504  15.168  0.1398  0.8159 -0.3615
12745TIP3    H159650   2.270   0.575  15.217 -1.8802  0.0402 -0.8071
12745TIP3    H259651   2.402   0.529  15.161 -0.2985  2.8353  0.4321
12746TIP3   OH259652   3.445   6.417   2.504  0.0416  0.1970 -0.4684
12746TIP3    H159653   3.450   6.512   2.493  1.3200  0.0775 -1.0862
12746TIP3    H259654   3.373   6.390   2.447 -0.9836  0.8822  0.4569
12747TIP3   OH259655   4.673   3.443   3.882 -0.5546 -0.0194 -0.0373
12747TIP3    H159656   4.607   3.418   3.947  1.3251  0.8075  2.3441
12747TIP3    H259657   4.746   3.383   3.897  1.0015  1.9184  0.5409
12748TIP3   OH259658   2.892   2.042   6.127 -0.4060 -0.0201 -0.0478
12748TIP3    H159659   2.925   2.108   6.066  0.8085  0.1229  0.7359
12748TIP3    H259660   2.817   2.084   6.169  0.1680  0.7657  0.2224
12749TIP3   OH259661   3.976   5.892   2.069 -0.8085 -0.1601  0.5194
12749TIP3    H159662   4.059   5.917   2.029 -0.8082  0.9307  1.1593
12749TIP3    H259663   3.991   5.803   2.102 -0.4523 -0.6299 -0.8604
12750TIP3   OH259664   5.134   1.524  16.736 -0.4448  0.2317  0.2407
12750TIP3    H159665   5.189   1.594  16.702 -0.7052 -0.3285 -1.4256
12750TIP3    H259666   5.155   1.448  16.682 -1.4709 -0.4959  0.8155
12751TIP3   OH259667   6.409   1.346  12.340 -0.2778  0.4372 -0.9389
12751TIP3    H159668   6.386   1.435  12.315  0.5113  1.3272  1.2489
12751TIP3    H259669   6.386   1.340  12.432  2.7360 -0.4768 -0.1256
12752TIP3   OH259670   2.431   6.325  16.722  0.2649 -0.2442 -0.3375
12752TIP3    H159671   2.526   6.335  16.728  0.0975  2.2583 -0.8523
12752TIP3    H259672   2.397   6.372  16.798 -0.6117  1.3073 -1.6279
12753TIP3   OH259673   1.661   2.143   0.926 -0.1945  0.4958  0.4209
12753TIP3    H159674   1.710   2.068   0.961  0.3198  0.1742 -0.9260
12753TIP3    H259675   1.726   2.194   0.878 -0.5890  1.7116  1.1354
12754TIP3   OH259676   1.732   2.421   4.839 -0.4099 -0.4305 -0.1091
12754TIP3    H159677   1.823   2.448   4.827 -0.7973  0.4886 -1.1969
12754TIP3    H259678   1.715   2.433   4.932 -0.3655  2.5680 -0.4014
12755TIP3   OH259679   0.789   6.417  14.270  0.0656 -0.0559  0.4759
12755TIP3    H159680   0.774   6.446  14.359  0.6120  0.1556  0.5019
12755TIP3    H259681   0.869   6.365  14.275  1.0524  1.3613 -0.1769
12756TIP3   OH259682   2.652   6.189  11.351  0.0594 -0.4265 -0.4589
12756TIP3    H159683   2.626   6.150  11.267  1.4395  0.2186 -1.2208
12756TIP3    H259684   2.740   6.154  11.366  0.9622  1.6094 -0.6969
12757TIP3   OH259685   2.841   1.234   2.622  0.0301 -0.3916  0.5501
12757TIP3    H159686   2.919   1.280   2.592 -0.7149  1.1297  0.8659
12757TIP3    H259687   2.789   1.220   2.543 -0.8360  1.4923  0.7410
12758TIP3   OH259688   2.063   5.279  16.423  0.0638  0.3961 -0.1791
12758TIP3    H159689   2.139   5.291  16.365  1.4432  1.4612  1.7248
12758TIP3    H259690   2.089   5.320  16.506 -0.5526 -3.6811  2.3142
12759TIP3   OH259691   2.162   6.119  11.343  0.2535  0.5421 -0.2351
12759TIP3    H159692   2.095   6.183  11.318  0.6451  0.9213 -0.3149
12759TIP3    H259693   2.196   6.151  11.427 -0.7699 -0.5041  0.6215
12760TIP3   OH259694   0.368   4.696  11.019  0.6974  0.4764  1.2356
12760TIP3    H159695   0.460   4.670  11.021  0.2574 -1.2520  3.8634
12760TIP3    H259696   0.357   4.751  11.096 -0.7795 -0.7365  1.9481
12761TIP3   OH259697   6.363   1.884   6.000  0.1160 -0.1547 -0.0596
12761TIP3    H159698   6.447   1.855   6.036  0.3839 -0.1322 -0.6569
12761TIP3    H259699   6.300   1.871   6.071  0.9249  1.5033  0.9899
12762TIP3   OH259700   3.702   3.761   3.555  0.0333  0.0223 -0.5348
12762TIP3    H159701   3.757   3.827   3.597  1.7352 -0.3913 -2.0290
12762TIP3    H259702   3.662   3.805   3.481 -2.4223  0.5504  0.9613
12763TIP3   OH259703   1.723   6.722  15.873 -0.2249 -0.3096  0.5631
12763TIP3    H159704   1.668   6.793  15.908 -1.9880 -1.2057 -0.2441
12763TIP3    H259705   1.661   6.663  15.830  1.2216 -2.2162  0.9669
12764TIP3   OH259706   1.464   5.669   5.384  0.3772  0.0490  0.8793
12764TIP3    H159707   1.514   5.687   5.304  1.6497 -1.4258  1.2848
12764TIP3    H259708   1.508   5.720   5.452  0.9777 -0.7321  1.1056
12765TIP3   OH259709   5.833   2.064  15.449  0.0785  0.0933 -0.2812
12765TIP3    H159710   5.896   2.123  15.408 -1.1214  0.7234 -1.3092
12765TIP3    H259711   5.793   2.115  15.519  1.0846 -0.5008  0.7676
12766TIP3   OH259712   6.526   5.832  11.541 -0.2224 -0.5698  0.5088
12766TIP3    H159713   6.564   5.746  11.520  2.5836  1.1599 -2.2754
12766TIP3    H259714   6.470   5.852  11.467  0.7317  0.7916  0.1176
12767TIP3   OH259715   0.703   2.766  11.420 -0.2328  0.3554 -0.2652
12767TIP3    H159716   0.764   2.746  11.491  0.2413 -1.2409 -1.0885
12767TIP3    H259717   0.640   2.694  11.421 -0.3529  0.4274 -1.3058
12768TIP3   OH259718   4.811   1.066   4.732  0.2373 -0.0864 -0.4176
12768TIP3    H159719   4.879   1.055   4.666  0.2434  1.4098 -0.6949
12768TIP3    H259720   4.852   1.038   4.814  1.3756  1.2706 -0.4944
12769TIP3   OH259721   4.215   6.710  13.607 -0.1538 -0.6362 -0.7733
12769TIP3    H159722   4.165   6.631  13.590  0.8281 -0.9969 -2.1586
12769TIP3    H259723   4.165   6.780  13.566  0.3494 -0.9696 -2.0024
12770TIP3   OH259724   3.600   4.424  16.912  0.0709  0.0845 -0.6970
12770TIP3    H159725   3.583   4.514  16.942 -2.0283 -0.6969  0.7197
12770TIP3    H259726   3.594   4.430  16.817 -0.9080  1.3339 -0.5955
12771TIP3   OH259727   4.461   5.735  12.242 -0.2385 -0.1465 -0.0209
12771TIP3    H159728   4.501   5.649  12.257 -0.1573  0.0986  1.2766
12771TIP3    H259729   4.456   5.742  12.147  2.5820 -0.3106 -0.2853
12772TIP3   OH259730   5.868   6.772   3.439  0.6115 -0.0234 -0.0691
12772TIP3    H159731   5.918   6.800   3.515  0.5604  1.2571 -0.4823
12772TIP3    H259732   5.792   6.727   3.475  1.4119 -0.8607  0.5871
12773TIP3   OH259733   6.246   6.644  15.072 -0.1246  0.4788  0.0519
12773TIP3    H159734   6.185   6.701  15.120  0.9776  2.6547 -0.9820
12773TIP3    H259735   6.294   6.598  15.141 -0.7219  1.1584  0.9586
12774TIP3   OH259736   4.814   2.533   5.835  0.3142  0.1678  0.2028
12774TIP3    H159737   4.888   2.500   5.886  0.4267  1.3148  0.7934
12774TIP3    H259738   4.831   2.626   5.824  0.3386 -0.0372 -2.0137
12775TIP3   OH259739   2.490   3.809  11.673  0.1828 -0.0589 -0.2916
12775TIP3    H159740   2.510   3.723  11.636  0.9218  1.2628 -3.2855
12775TIP3    H259741   2.570   3.860  11.660 -1.4422  2.1881 -2.3961
12776TIP3   OH259742   6.658   2.627   1.760  0.2222 -0.0103  0.1425
12776TIP3    H159743   6.578   2.594   1.719  0.8690 -0.0061 -1.1676
12776TIP3    H259744   6.725   2.617   1.693  1.7450 -1.7701  1.7996
12777TIP3   OH259745   3.752   6.691   4.974 -0.1974 -0.4856  0.8010
12777TIP3    H159746   3.841   6.711   4.945 -0.4458  0.8529  0.8991
12777TIP3    H259747   3.727   6.615   4.922 -0.1728  1.0680 -1.6514
12778TIP3   OH259748   4.714   3.943  12.401  0.6279 -0.2720 -0.4165
12778TIP3    H159749   4.764   3.953  12.482  1.1101  1.0766 -0.8399
12778TIP3    H259750   4.780   3.933  12.333  0.3462  1.2612 -0.9526
12779TIP3   OH259751   3.017   0.932  11.478 -0.4594 -0.4631 -0.0635
12779TIP3    H159752   3.050   1.021  11.490  1.2903 -1.1886  0.9196
12779TIP3    H259753   2.950   0.940  11.411 -0.5388  1.6362  0.2002
12780TIP3   OH259754   5.753   6.088   2.715 -0.2792 -0.4023  0.3251
12780TIP3    H159755   5.758   6.154   2.784  0.3714 -0.4669  0.3455
12780TIP3    H259756   5.733   6.007   2.761 -4.8427  0.2716  0.0221
12781TIP3   OH259757   5.299   3.019  13.488  0.1082  0.1011  0.3474
12781TIP3    H159758   5.269   2.965  13.562 -1.2062  1.0994  0.5820
12781TIP3    H259759   5.394   3.016  13.494  0.0446 -0.7850  1.3892
12782TIP3   OH259760   1.558   6.292  13.547  0.0391  0.5371 -0.1408
12782TIP3    H159761   1.531   6.299  13.639  0.1792 -0.2666 -0.0279
12782TIP3    H259762   1.528   6.205  13.520  1.4924  0.0635 -0.3458
12783TIP3   OH259763   5.786   1.362   6.653  0.0512  0.1026 -0.3106
12783TIP3    H159764   5.881   1.353   6.658  0.3545  0.9775 -2.8214
12783TIP3    H259765   5.773   1.449   6.615 -1.8270  0.5599  1.2476
12784TIP3   OH259766   0.690   0.541   6.225 -0.4331 -0.1808 -0.5161
12784TIP3    H159767   0.606   0.523   6.269 -0.9711  0.8921 -1.0697
12784TIP3    H259768   0.755   0.538   6.296 -0.8734 -1.3801 -0.1336
12785TIP3   OH259769   3.021   2.500  12.214  0.3602  0.3010  0.6044
12785TIP3    H159770   3.025   2.536  12.125 -0.3347  1.0708  0.8720
12785TIP3    H259771   2.954   2.433  12.209  1.2714 -0.6122  0.2382
12786TIP3   OH259772   1.368   1.290  14.821  0.0110  0.1423 -0.5188
12786TIP3    H159773   1.386   1.199  14.794  0.4934 -0.0499  0.4110
12786TIP3    H259774   1.300   1.282  14.887 -0.1550  0.4939 -0.6440
12787TIP3   OH259775   0.020   4.090  15.739 -0.2131  0.9077 -0.1122
12787TIP3    H159776  -0.039   4.021  15.769  0.7265 -0.7546 -1.8698
12787TIP3    H259777   0.100   4.076  15.788  0.1472  0.3785 -0.8224
12788TIP3   OH259778   2.229   2.170  13.149 -0.4012 -0.0412  0.2768
12788TIP3    H159779   2.300   2.187  13.211  0.3333  0.1203 -0.5938
12788TIP3    H259780   2.190   2.256  13.133 -0.9548 -0.1599  0.9234
12789TIP3   OH259781   2.724   1.493   0.649  0.1972  0.3398  0.0525
12789TIP3    H159782   2.641   1.539   0.655  0.6212  0.9288  1.6352
12789TIP3    H259783   2.785   1.557   0.612 -0.0706 -0.1691 -1.3504
12790TIP3   OH259784   5.424   4.761  15.651 -0.0218  0.1597 -0.0625
12790TIP3    H159785   5.338   4.723  15.672 -0.2797  1.1494  0.7488
12790TIP3    H259786   5.412   4.804  15.567 -0.0905 -0.4125 -0.3489
12791TIP3   OH259787   3.685   5.975   4.858 -0.4870 -0.4699 -0.1026
12791TIP3    H159788   3.600   6.012   4.835  0.7903  1.9383 -1.2696
12791TIP3    H259789   3.743   5.999   4.786  0.6181 -4.6769 -0.9009
12792TIP3   OH259790   4.965   6.678  13.615 -0.0615 -0.8851  0.2521
12792TIP3    H159791   5.045   6.682  13.562  0.3442 -3.7554  0.4412
12792TIP3    H259792   4.897   6.717  13.560  1.1387  0.0028 -0.6407
12793TIP3   OH259793   6.710   6.626   2.457 -0.1946  0.6086 -0.1491
12793TIP3    H159794   6.614   6.621   2.459 -0.1359 -0.7238 -0.1001
12793TIP3    H259795   6.731   6.636   2.364 -0.3887  1.4177 -0.1159
12794TIP3   OH259796   0.754   4.776   2.747 -0.3027 -0.1060 -0.5054
12794TIP3    H159797   0.673   4.760   2.796 -0.3402 -0.0823 -0.5590
12794TIP3    H259798   0.784   4.689   2.722  0.0961 -0.1689  0.1645
12795TIP3   OH259799   1.910   1.332   0.003 -0.5790 -0.0373  0.0827
12795TIP3    H159800   1.891   1.335   0.097 -2.7215 -1.0339 -0.2738
12795TIP3    H259801   1.847   1.270  -0.033  0.6039 -0.1631 -1.9534
12796TIP3   OH259802   4.671   1.958   0.902 -0.4019  0.1824 -0.0862
12796TIP3    H159803   4.725   1.881   0.914 -0.6875  0.3405  2.7386
12796TIP3    H259804   4.697   2.018   0.972 -2.1229  1.4979 -0.4857
12797TIP3   OH259805   3.718   1.821   4.372 -0.0969  0.2378 -0.0950
12797TIP3    H159806   3.688   1.735   4.403 -3.0604  0.9818 -0.5613
12797TIP3    H259807   3.736   1.808   4.280 -2.2191  0.3804 -0.5956
12798TIP3   OH259808   3.019   5.980   2.170 -0.0817  0.7244  0.1680
12798TIP3    H159809   3.075   5.991   2.247 -0.6596 -0.0710  0.7173
12798TIP3    H259810   2.945   5.929   2.202 -0.8072  1.2083 -0.7003
12799TIP3   OH259811   0.575   5.203  14.716 -0.4249 -0.1848  1.0412
12799TIP3    H159812   0.642   5.165  14.659 -0.6947  0.4199  0.3153
12799TIP3    H259813   0.532   5.127  14.756 -1.1646 -0.7001 -0.6278
12800TIP3   OH259814   6.057   1.022   4.880 -0.0843 -0.0343 -0.2797
12800TIP3    H159815   6.055   1.112   4.914  1.5596 -0.2549  0.4943
12800TIP3    H259816   6.149   0.997   4.884 -0.3863 -1.4451 -1.3624
12801TIP3   OH259817   4.677   1.057  11.239 -0.0709  0.2982  0.5351
12801TIP3    H159818   4.726   1.028  11.162 -0.1312 -1.0985  0.9798
12801TIP3    H259819   4.585   1.048  11.215 -0.1031  0.9859  0.3837
12802TIP3   OH259820   5.653   0.544  13.564  0.0959 -0.2550  0.1569
12802TIP3    H159821   5.670   0.564  13.472 -2.0504 -1.1028 -0.4837
12802TIP3    H259822   5.740   0.529  13.601  1.1150  1.4188 -1.3757
12803TIP3   OH259823   4.148   3.210  13.562 -0.3388  0.2982  0.6723
12803TIP3    H159824   4.180   3.202  13.652  0.7204  0.0864  0.2919
12803TIP3    H259825   4.085   3.281  13.565 -0.2216  0.3769  1.5595
12804TIP3   OH259826   1.245   5.311  11.011 -0.0933 -0.2617 -0.4922
12804TIP3    H159827   1.326   5.263  10.998  0.0684 -0.3465  0.7463
12804TIP3    H259828   1.268   5.403  10.995  0.6460 -0.0871  1.3443
12805TIP3   OH259829   1.433   2.849  12.842  0.7574 -0.3622  0.0416
12805TIP3    H159830   1.365   2.798  12.885  0.8886  0.3926  1.1735
12805TIP3    H259831   1.504   2.856  12.906  1.8584 -1.0093 -1.0651
12806TIP3   OH259832   0.727   2.424  13.123 -0.1005  0.4659 -0.4027
12806TIP3    H159833   0.709   2.332  13.138  0.5962  0.1250 -1.4872
12806TIP3    H259834   0.792   2.447  13.189 -0.8018  0.3748  0.3229
12807TIP3   OH259835   2.564   1.361  14.030  0.2485 -0.5746  0.0015
12807TIP3    H159836   2.537   1.339  14.119  0.6063 -1.3801 -0.0823
12807TIP3    H259837   2.493   1.416  13.997  1.0411  1.5043  1.4668
12808TIP3   OH259838   6.078   4.056  15.031 -0.0103  0.0550 -0.5885
12808TIP3    H159839   6.047   4.052  14.941  0.6145  0.1893 -0.8125
12808TIP3    H259840   6.160   4.008  15.030  0.7481  1.3100 -0.4135
12809TIP3   OH259841   1.794   6.259  13.760 -0.6885 -0.1287 -0.0691
12809TIP3    H159842   1.789   6.166  13.738  0.8581  0.3306 -2.7621
12809TIP3    H259843   1.866   6.265  13.822 -2.3195 -0.9314  2.0305
12810TIP3   OH259844   5.449   0.062   3.623  0.3514 -0.2230  0.3610
12810TIP3    H159845   5.510  -0.011   3.627 -0.5459 -1.0164 -0.1280
12810TIP3    H259846   5.419   0.063   3.532 -1.7603 -1.0140  1.0034
12811TIP3   OH259847   4.183   4.800  12.299 -0.3215  0.4036  0.1456
12811TIP3    H159848   4.089   4.806  12.281  0.0101  1.5527 -1.4111
12811TIP3    H259849   4.193   4.718  12.347 -1.7524 -1.3473 -2.3424
12812TIP3   OH259850   1.799   4.249   2.779  0.4716  0.4044 -0.4238
12812TIP3    H159851   1.708   4.256   2.749 -0.3041 -0.3393  1.5516
12812TIP3    H259852   1.837   4.334   2.761 -0.8114  0.9360 -0.7389
12813TIP3   OH259853   5.501   1.352   3.405  0.1330  0.3990 -0.4397
12813TIP3    H159854   5.423   1.401   3.376 -1.4857 -1.6255  0.2902
12813TIP3    H259855   5.466   1.273   3.446  2.6247 -2.0658 -2.6646
12814TIP3   OH259856   6.367   1.952  11.953 -0.4780 -0.3059  0.7811
12814TIP3    H159857   6.369   1.950  11.857  0.2742 -0.2067  0.7878
12814TIP3    H259858   6.409   2.035  11.976  0.2167 -0.7782  1.2167
12815TIP3   OH259859   2.377   5.594  14.146  0.0704  0.0984 -0.5535
12815TIP3    H159860   2.392   5.524  14.083 -1.6931 -1.8866  1.0865
12815TIP3    H259861   2.296   5.635  14.117 -0.4734 -0.4926  0.0895
12816TIP3   OH259862   0.542   0.128  14.695  0.6952 -0.9195 -0.6038
12816TIP3    H159863   0.615   0.155  14.640  0.4276  2.2733  0.3491
12816TIP3    H259864   0.534   0.198  14.760 -0.8017 -3.0767  1.7340
12817TIP3   OH259865   6.151   1.014  13.145 -0.1597  0.3470  0.6119
12817TIP3    H159866   6.137   1.070  13.221 -0.1346  0.4706  0.5254
12817TIP3    H259867   6.219   1.058  13.095 -0.3672  0.4040  0.3783
12818TIP3   OH259868   1.110   0.165   1.127  0.6385  0.3480  0.4918
12818TIP3    H159869   1.166   0.117   1.065  1.1844 -0.6154  1.7007
12818TIP3    H259870   1.171   0.214   1.182  0.2598 -0.0475  1.2818
12819TIP3   OH259871   5.767   2.112   1.148  0.3445 -0.0111 -0.0477
12819TIP3    H159872   5.789   2.112   1.241  0.0290  3.0803  0.1425
12819TIP3    H259873   5.839   2.160   1.107 -1.3232  2.0414 -0.7634
12820TIP3   OH259874   4.737   2.228  13.928  0.4949 -0.3599 -0.0812
12820TIP3    H159875   4.685   2.282  13.987  0.5819 -1.9132  1.5000
12820TIP3    H259876   4.753   2.284  13.852 -1.3966  0.9911  0.4374
12821TIP3   OH259877   1.980   5.284  11.600  0.1752 -0.0202  0.2575
12821TIP3    H159878   1.955   5.264  11.690  1.1015 -1.2982  0.2542
12821TIP3    H259879   1.968   5.379  11.592  0.4486  0.1694  1.8476
12822TIP3   OH259880   6.761   5.345  15.749  0.1955  0.0096 -0.4452
12822TIP3    H159881   6.677   5.302  15.766  0.6625 -0.7513  0.0117
12822TIP3    H259882   6.816   5.275  15.714  0.4700  0.6371 -1.2702
12823TIP3   OH259883   1.941   2.612   6.098 -0.1149 -0.2393  0.0890
12823TIP3    H159884   1.865   2.647   6.144 -1.1846 -1.1524 -0.9135
12823TIP3    H259885   1.994   2.572   6.167  0.3774  1.9381  1.0387
12824TIP3   OH259886   1.675   4.002  16.731  0.5568 -0.3495  0.5523
12824TIP3    H159887   1.614   4.032  16.664  1.0670  1.3479  0.7912
12824TIP3    H259888   1.745   3.957  16.682  1.0599  1.1033 -0.1117
12825TIP3   OH259889   4.917   5.965   1.487  0.3396 -0.2585  0.3994
12825TIP3    H159890   4.981   5.901   1.519  1.9187 -1.5517 -4.4831
12825TIP3    H259891   4.968   6.042   1.465 -0.1155 -0.3494 -1.1255
12826TIP3   OH259892   3.026   5.142   2.318 -0.1333 -0.0616  0.2293
12826TIP3    H159893   3.018   5.211   2.384 -2.5720  1.4877 -1.5234
12826TIP3    H259894   3.101   5.168   2.264  0.7040 -0.3442  1.2297
12827TIP3   OH259895   1.169   2.073  11.174  0.0803 -0.1967 -0.3999
12827TIP3    H159896   1.103   2.114  11.118  0.8051  1.6426  0.0247
12827TIP3    H259897   1.205   2.002  11.121 -2.3581 -1.3947 -0.5641
12828TIP3   OH259898   0.851   4.779  13.578  0.4109  0.4456 -0.0403
12828TIP3    H159899   0.928   4.836  13.585 -0.5712  2.0690 -1.6900
12828TIP3    H259900   0.807   4.808  13.499 -1.8515 -0.5592  0.7790
12829TIP3   OH259901   6.136   0.264  13.520  0.2786  0.4552 -0.6625
12829TIP3    H159902   6.050   0.305  13.518 -0.2516 -0.4542  1.1566
12829TIP3    H259903   6.118   0.170  13.524  1.3552  0.2423 -0.4793
12830TIP3   OH259904   2.041   6.418  15.135 -0.2199  0.1311  0.2514
12830TIP3    H159905   2.000   6.454  15.213 -0.1245  0.4165  0.1726
12830TIP3    H259906   2.135   6.435  15.146 -0.0094 -1.2049  0.7958
12831TIP3   OH259907   6.372   4.080  16.633  0.2873  0.0383 -0.2897
12831TIP3    H159908   6.408   4.076  16.544  1.8707 -0.3731  0.3478
12831TIP3    H259909   6.335   4.168  16.640  0.5995  0.2509 -1.1887
12832TIP3   OH259910   5.004   0.935   1.399  0.7256  0.7725 -0.3647
12832TIP3    H159911   5.079   0.916   1.342  0.4232 -0.9405 -0.2429
12832TIP3    H259912   5.037   0.920   1.488  0.6579  1.5755 -0.1938
12833TIP3   OH259913   0.817   0.118  14.950  0.8449  0.0062 -0.4506
12833TIP3    H159914   0.762   0.067  15.009  1.3513 -0.6082 -0.4940
12833TIP3    H259915   0.865   0.052  14.899 -0.2291  0.4958 -2.1846
12834TIP3   OH259916   0.247   1.358  13.313  0.4031 -0.5012  0.0882
12834TIP3    H159917   0.332   1.342  13.271  0.6220 -1.2461  0.8079
12834TIP3    H259918   0.257   1.324  13.401 -0.7085 -0.7554  0.1231
12835TIP3   OH259919   2.817   0.373  17.202  0.0553  0.2202 -0.2349
12835TIP3    H159920   2.850   0.458  17.232 -0.5748  0.2928  0.2709
12835TIP3    H259921   2.820   0.317  17.280 -1.2716  0.3159 -0.0843
12836TIP3   OH259922   0.013   4.616   3.842 -0.2277 -0.2612 -0.2620
12836TIP3    H159923   0.008   4.688   3.905 -1.2067 -0.2664 -0.3257
12836TIP3    H259924   0.105   4.590   3.843  0.0408  0.6621  0.1305
12837TIP3   OH259925   4.417   6.523   3.724 -0.1368 -0.0478 -0.1274
12837TIP3    H159926   4.482   6.594   3.724 -0.0789 -0.0967 -0.5089
12837TIP3    H259927   4.441   6.469   3.648 -0.5750 -0.1145 -0.2176
12838TIP3   OH259928   3.255   0.186   4.906  0.3432  0.0530  0.1763
12838TIP3    H159929   3.266   0.262   4.849  1.5191 -1.0407 -1.1324
12838TIP3    H259930   3.300   0.210   4.987  0.6997  0.7466 -0.2213
12839TIP3   OH259931   2.794   0.238   3.290 -0.3106  0.2829  0.0534
12839TIP3    H159932   2.849   0.310   3.322  0.9514 -0.4438 -0.4215
12839TIP3    H259933   2.783   0.181   3.366  1.0623 -0.4423 -0.2467
12840TIP3   OH259934   2.439   1.303   3.288  0.3619  0.4627  0.0848
12840TIP3    H159935   2.471   1.317   3.199  0.6557  0.3144  0.1649
12840TIP3    H259936   2.379   1.228   3.280  1.0013 -0.0691  0.1404
12841TIP3   OH259937   3.571   1.207   2.485  0.8156  0.3601 -0.5101
12841TIP3    H159938   3.661   1.191   2.511  0.5137 -0.7922 -0.1255
12841TIP3    H259939   3.529   1.242   2.563  1.0898  1.5994 -0.8973
12842TIP3   OH259940   3.902   2.248  13.070 -0.1810  0.3119 -0.7294
12842TIP3    H159941   3.897   2.161  13.029  2.6665  0.1311 -0.8757
12842TIP3    H259942   3.907   2.308  12.996 -0.7590  0.4849 -0.6286
12843TIP3   OH259943   0.562   5.625  14.068 -0.3468  0.0827  1.1691
12843TIP3    H159944   0.549   5.714  14.035 -0.6240 -0.5118 -0.4156
12843TIP3    H259945   0.619   5.636  14.144  1.0846  1.4722 -0.0395
12844TIP3   OH259946   3.198   1.189   4.683  0.3057 -0.3190 -0.8033
12844TIP3    H159947   3.141   1.247   4.633 -0.9207  0.0918  0.9675
12844TIP3    H259948   3.175   1.101   4.654 -0.8476 -0.1251 -0.5332
12845TIP3   OH259949   3.856   3.953   2.361  0.1184  0.2472 -0.6674
12845TIP3    H159950   3.926   4.013   2.337  0.3881  0.5334  0.7426
12845TIP3    H259951   3.868   3.938   2.455 -1.6246  0.2158 -0.4123
12846TIP3   OH259952   5.647   6.235  11.780  0.1677  0.1275 -0.6284
12846TIP3    H159953   5.630   6.148  11.816  1.1657 -0.1804 -0.8486
12846TIP3    H259954   5.612   6.233  11.692 -1.5446  0.6098  0.0020
12847TIP3   OH259955   5.631   3.111  15.180  0.1259 -0.3990  0.2548
12847TIP3    H159956   5.595   3.075  15.261  2.6670  0.1801  1.7343
12847TIP3    H259957   5.616   3.205  15.186  2.0354 -0.1139  1.0316
12848TIP3   OH259958   2.278   5.603  13.312 -0.2677  0.1548 -0.6611
12848TIP3    H159959   2.240   5.536  13.255  0.0209 -1.3764  0.8634
12848TIP3    H259960   2.354   5.635  13.264  0.4685 -1.7076 -0.8135
12849TIP3   OH259961   5.020   5.641   0.609  0.4728  0.6965  0.4541
12849TIP3    H159962   5.088   5.576   0.591  1.3571  1.9857 -1.0599
12849TIP3    H259963   4.941   5.589   0.623  1.6211 -0.8010  1.6325
12850TIP3   OH259964   6.073   4.506  12.150  0.3955 -0.0960  0.0562
12850TIP3    H159965   6.067   4.418  12.113  0.0812 -0.8346  1.7748
12850TIP3    H259966   6.035   4.563  12.083 -0.5294 -1.4137 -0.5724
12851TIP3   OH259967   0.366   2.184  11.844  0.2050  0.1995 -0.2317
12851TIP3    H159968   0.288   2.184  11.899  1.0893 -0.7154  1.0886
12851TIP3    H259969   0.425   2.122  11.886  1.4458  0.4658 -1.4966
12852TIP3   OH259970   0.275   1.962  11.074  0.2652  0.2595 -0.4159
12852TIP3    H159971   0.310   1.885  11.031  1.0591  0.7391 -0.6599
12852TIP3    H259972   0.281   1.942  11.168 -0.5646 -0.4024 -0.5004
12853TIP3   OH259973   1.058   1.896   0.876  0.3483  0.0970  0.3152
12853TIP3    H159974   1.137   1.870   0.924  0.5599  1.6768  0.8650
12853TIP3    H259975   1.069   1.990   0.861 -1.8942  0.5635  1.2840
12854TIP3   OH259976   2.582   2.050  13.702 -0.4372 -0.3239 -0.6246
12854TIP3    H159977   2.499   2.057  13.749 -0.1291  1.9402 -0.3052
12854TIP3    H259978   2.649   2.059  13.770  0.0136  2.0355 -1.2857
12855TIP3   OH259979   3.864   2.730  12.379  0.0011  0.6030  0.1865
12855TIP3    H159980   3.782   2.682  12.393 -0.0937  0.3067 -1.1978
12855TIP3    H259981   3.874   2.785  12.457 -0.6475 -0.5740  1.1380
12856TIP3   OH259982   6.772   1.310   6.332 -1.0550 -0.7696  0.9014
12856TIP3    H159983   6.763   1.218   6.354  0.0480 -1.0176  0.3762
12856TIP3    H259984   6.830   1.346   6.400 -1.9554 -0.3090  1.4533
12857TIP3   OH259985   0.016   3.941  12.321  0.0733  0.0913  0.0294
12857TIP3    H159986  -0.039   3.863  12.313 -0.2855  0.2266  0.9888
12857TIP3    H259987   0.062   3.929  12.404 -0.1921  1.0225  0.3226
12858TIP3   OH259988   0.437   3.662  14.534  1.2027  0.2340 -0.7528
12858TIP3    H159989   0.393   3.578  14.548  2.2980 -0.0016  1.7589
12858TIP3    H259990   0.524   3.638  14.503  0.6411  0.6034 -2.7644
12859TIP3   OH259991   6.219   1.839   6.237  0.8583 -0.0243  0.1781
12859TIP3    H159992   6.271   1.773   6.283 -1.5780 -1.3518  1.2194
12859TIP3    H259993   6.171   1.884   6.305 -0.1057  0.4578 -0.7864
12860TIP3   OH259994   4.535   1.883  10.619  0.2134 -0.4284  0.1238
12860TIP3    H159995   4.491   1.953  10.667 -0.0971 -0.7073  0.2573
12860TIP3    H259996   4.577   1.926  10.545 -0.3170 -0.1506 -0.0248
12861TIP3   OH259997   2.200   5.683  13.570 -0.1637 -0.1827 -0.8825
12861TIP3    H159998   2.231   5.663  13.482 -0.2105  1.7082 -1.3644
12861TIP3    H259999   2.145   5.761  13.559  1.2111  1.1268  1.0322
12862TIP3   OH260000   3.215   4.036   3.292  0.0411 -0.5906  0.1314
12862TIP3    H160001   3.239   3.944   3.283 -0.5602 -0.9288  1.6715
12862TIP3    H260002   3.121   4.036   3.308  0.6249 -0.1792  4.8956
12863TIP3   OH260003   4.500   1.709   0.961  0.3656  0.5659  0.5835
12863TIP3    H160004   4.416   1.722   1.005 -0.8413 -1.5111 -0.9226
12863TIP3    H260005   4.493   1.622   0.921  2.7900  0.8300 -0.6059
12864TIP3   OH260006   2.024   5.102   5.775  0.3178 -0.1441 -0.3205
12864TIP3    H160007   1.982   5.098   5.861  2.2804 -0.3879  0.6709
12864TIP3    H260008   2.115   5.077   5.791  0.5916 -0.8194 -2.5804
12865TIP3   OH260009   3.352   0.985   1.410  0.3274  0.3035 -0.1426
12865TIP3    H160010   3.375   0.952   1.324  1.1500  0.9094 -0.1682
12865TIP3    H260011   3.420   1.049   1.430  0.6182 -0.4145  1.3012
12866TIP3   OH260012   6.611   6.713  14.755  0.1473 -0.5008 -0.6314
12866TIP3    H160013   6.594   6.760  14.836  0.3994 -1.6134  0.0892
12866TIP3    H260014   6.535   6.655  14.744  0.9256 -1.6452 -0.2118
12867TIP3   OH260015   3.147   1.466  12.722 -0.4273 -0.6110  0.1022
12867TIP3    H160016   3.200   1.546  12.724  1.9688 -2.0299 -1.0141
12867TIP3    H260017   3.127   1.449  12.814 -1.2529  1.3885  0.3444
12868TIP3   OH260018   0.608   0.355   6.037  0.3118 -0.0479  0.4439
12868TIP3    H160019   0.535   0.414   6.020  1.1538  0.7450 -0.6074
12868TIP3    H260020   0.662   0.402   6.101  0.0240 -0.5350  1.0530
12869TIP3   OH260021   3.501   0.299  13.785  0.0498 -1.8448  0.2608
12869TIP3    H160022   3.487   0.255  13.702  0.8858 -0.5436 -0.5937
12869TIP3    H260023   3.414   0.303  13.825 -0.8904 -0.1106 -1.7779
12870TIP3   OH260024   2.450   1.799  16.454 -0.2293  0.6632 -0.1379
12870TIP3    H160025   2.369   1.747  16.449  0.9413 -1.1690 -2.1137
12870TIP3    H260026   2.459   1.836  16.367  0.9764  0.9619  0.1036
12871TIP3   OH260027   0.877   6.709   0.831 -0.0762  0.5897  0.1341
12871TIP3    H160028   0.808   6.671   0.777 -1.3180  1.5047  1.0359
12871TIP3    H260029   0.851   6.801   0.843  1.1498  0.8861  0.7377
12872TIP3   OH260030   5.964   4.712  11.212 -0.5607 -0.6676 -0.0061
12872TIP3    H160031   5.902   4.770  11.167 -0.3818 -0.7401 -0.3510
12872TIP3    H260032   6.034   4.698  11.148 -1.3459 -2.5143 -0.5192
12873TIP3   OH260033   0.257   4.671   5.362 -0.5291  0.0133 -0.2565
12873TIP3    H160034   0.227   4.581   5.369  0.0917 -0.2911 -1.3476
12873TIP3    H260035   0.314   4.672   5.285 -2.1499  1.7654 -1.5246
12874TIP3   OH260036   0.721   2.742   0.530  0.1022 -0.0779  0.6493
12874TIP3    H160037   0.797   2.800   0.522 -1.7591  2.4637  0.1566
12874TIP3    H260038   0.729   2.682   0.456  0.6757  1.3717 -0.5180
12875TIP3   OH260039   6.183   6.705  11.249  0.6233 -0.6115  0.0529
12875TIP3    H160040   6.146   6.761  11.180  0.8023  0.5915  0.9067
12875TIP3    H260041   6.241   6.645  11.202  0.9736  0.3737 -0.8303
12876TIP3   OH260042   5.173   3.669   0.661 -0.3292 -0.1483  0.2177
12876TIP3    H160043   5.228   3.607   0.710  0.3806  0.6461  0.4509
12876TIP3    H260044   5.083   3.638   0.676 -0.2924  0.8223  3.2172
12877TIP3   OH260045   3.530   4.417  16.345 -0.1898 -0.0610  0.5729
12877TIP3    H160046   3.470   4.467  16.401 -2.3419 -0.8052 -0.9134
12877TIP3    H260047   3.474   4.353  16.301  2.1438 -2.4438  0.8600
12878TIP3   OH260048   1.271   4.267  11.030  0.2484  0.0115 -0.1687
12878TIP3    H160049   1.204   4.287  10.965  1.7507  1.1148 -1.4409
12878TIP3    H260050   1.300   4.178  11.008 -0.2608 -0.1786 -0.0803
12879TIP3   OH260051   6.408   5.100   2.484  0.1398  0.4116  0.2214
12879TIP3    H160052   6.332   5.043   2.469 -0.5719  1.3974  0.0346
12879TIP3    H260053   6.481   5.039   2.497 -0.6167 -0.5459  0.0804
12880TIP3   OH260054   5.897   6.750   1.768  0.3703  0.1680 -0.7168
12880TIP3    H160055   5.890   6.666   1.813  1.5736  0.1030 -0.6378
12880TIP3    H260056   5.827   6.803   1.806  0.1375 -0.5231 -0.1685
12881TIP3   OH260057   0.460   4.139   2.671 -0.1786  0.1263  0.4266
12881TIP3    H160058   0.553   4.122   2.689 -0.5268 -1.5786  0.7538
12881TIP3    H260059   0.415   4.061   2.701 -1.6332  0.4975 -0.6862
12882TIP3   OH260060   0.630   6.715  13.387  0.3106 -0.0805 -0.1302
12882TIP3    H160061   0.695   6.686  13.322 -0.4437 -2.0127 -0.0592
12882TIP3    H260062   0.596   6.797  13.350  1.0822 -0.2744 -1.3465
12883TIP3   OH260063   1.292   6.644  16.915  0.3418  0.1709 -0.3438
12883TIP3    H160064   1.224   6.638  16.983  0.8196  0.7906  0.2043
12883TIP3    H260065   1.298   6.737  16.896 -1.2348 -0.1348 -2.7694
12884TIP3   OH260066   5.985   3.587   2.133 -0.2390 -0.2954  0.7842
12884TIP3    H160067   6.020   3.676   2.144  0.6927 -0.5249 -0.0971
12884TIP3    H260068   5.927   3.593   2.057  1.5270 -0.8533 -0.6818
12885TIP3   OH260069   0.473   0.932  13.801 -0.3018  0.2110 -0.3044
12885TIP3    H160070   0.385   0.971  13.799 -0.0947  0.6553 -0.7243
12885TIP3    H260071   0.474   0.873  13.726 -0.3409 -0.0114 -0.1307
12886TIP3   OH260072   5.396   0.849  12.534 -0.7012 -0.5491  0.3835
12886TIP3    H160073   5.431   0.850  12.623  0.6875 -0.0701 -0.1310
12886TIP3    H260074   5.305   0.823  12.544 -0.5137 -0.7169  1.9204
12887TIP3   OH260075   5.748   5.612  16.987  0.0132 -0.3319  0.5511
12887TIP3    H160076   5.809   5.552  17.031  1.7217 -0.3548 -1.6883
12887TIP3    H260077   5.723   5.566  16.907 -1.0529  0.7079  0.2620
12888TIP3   OH260078   0.752   4.514  12.828  0.1225  0.5729  0.0824
12888TIP3    H160079   0.781   4.466  12.750 -0.3461  0.7150 -0.1838
12888TIP3    H260080   0.706   4.591  12.793  1.0048  1.3035  0.5039
12889TIP3   OH260081   3.650   2.838   1.510  0.0952 -0.1923  0.0254
12889TIP3    H160082   3.738   2.855   1.475  0.8035 -1.4329  1.1016
12889TIP3    H260083   3.649   2.884   1.594 -0.6536  0.6029 -0.3987
12890TIP3   OH260084   3.929   1.189  16.872  0.4648 -0.3469 -0.3227
12890TIP3    H160085   3.947   1.263  16.814  0.3313  1.7690  2.1577
12890TIP3    H260086   3.900   1.229  16.954 -1.2159 -3.2173  0.6344
12891TIP3   OH260087   2.479   5.544   3.105 -0.2333 -0.1319  0.3231
12891TIP3    H160088   2.565   5.503   3.114 -0.3498 -0.5905 -0.5549
12891TIP3    H260089   2.452   5.524   3.015  0.3402  3.0759 -0.7081
12892TIP3   OH260090   3.602   0.680  13.198  0.2549 -0.1009  0.1419
12892TIP3    H160091   3.514   0.640  13.193  0.8470 -1.5502  0.7371
12892TIP3    H260092   3.607   0.735  13.119 -1.8505  1.4954  1.0086
12893TIP3   OH260093   5.429   2.968  11.644  0.0520 -0.1078 -0.1695
12893TIP3    H160094   5.523   2.986  11.648  0.1126 -0.4051 -0.2441
12893TIP3    H260095   5.391   3.023  11.712  0.1757  0.6936 -0.7314
12894TIP3   OH260096   3.735   6.583  14.083 -0.0912  0.3370 -0.8981
12894TIP3    H160097   3.790   6.539  14.149  0.6039  0.9940 -1.0282
12894TIP3    H260098   3.783   6.662  14.061  0.2092 -0.3920 -2.9947
12895TIP3   OH260099   0.825   3.224  15.261 -0.1149  0.7827  0.2442
12895TIP3    H160100   0.844   3.312  15.292  2.5587  0.1796  0.5397
12895TIP3    H260101   0.900   3.200  15.206 -0.6298 -1.4007  0.3793
12896TIP3   OH260102   0.045   2.587   0.425  0.0904  0.1877 -0.4266
12896TIP3    H160103   0.047   2.673   0.467 -0.9013 -1.0160  2.3634
12896TIP3    H260104  -0.040   2.584   0.381  1.3275  1.6381 -3.1767
12897TIP3   OH260105   5.906   3.143  15.730 -0.7044 -0.5000 -0.1750
12897TIP3    H160106   5.955   3.061  15.728  1.7513  0.8642 -0.5755
12897TIP3    H260107   5.844   3.132  15.802  0.2928 -2.2909  0.4829
12898TIP3   OH260108   4.705   6.165  15.570  0.5119 -0.4914  0.3457
12898TIP3    H160109   4.626   6.217  15.555 -0.6573 -1.9019  1.2419
12898TIP3    H260110   4.676   6.075  15.555  2.2366 -0.9726 -0.2893
12899TIP3   OH260111   5.820   0.265  14.686 -0.3206 -0.3770 -0.8064
12899TIP3    H160112   5.748   0.322  14.658  1.4216  1.4702 -1.6882
12899TIP3    H260113   5.821   0.194  14.621 -0.0532  0.7125 -2.0228
12900TIP3   OH260114   3.585   0.789  13.546  0.3084  0.0790  0.1244
12900TIP3    H160115   3.620   0.846  13.477  0.8351 -0.5363 -0.1341
12900TIP3    H260116   3.611   0.701  13.519  0.1184 -0.2151  0.8774
12901TIP3   OH260117   2.151   1.992  14.645 -0.2615  0.0938  0.3594
12901TIP3    H160118   2.210   1.926  14.684 -0.7592 -0.3301  0.4076
12901TIP3    H260119   2.210   2.057  14.607  0.2436  0.0578  1.0480
12902TIP3   OH260120   0.811   0.834  15.688 -0.4157  0.0839  0.5151
12902TIP3    H160121   0.856   0.780  15.752 -0.1789  0.7881  0.9466
12902TIP3    H260122   0.723   0.797  15.683  0.5225 -2.1399 -1.2937
12903TIP3   OH260123   1.576   0.858   3.408  0.3280  0.2953  0.2202
12903TIP3    H160124   1.505   0.846   3.345  0.8713  0.1402 -0.3774
12903TIP3    H260125   1.580   0.952   3.423 -1.4855  0.1534  2.0204
12904TIP3   OH260126   5.348   2.505   1.893 -0.0292 -0.5730 -0.0732
12904TIP3    H160127   5.426   2.531   1.942  0.6357 -0.6879 -1.0545
12904TIP3    H260128   5.368   2.418   1.860 -1.0802 -1.1389  0.7096
12905TIP3   OH260129   1.150   0.928   5.620 -0.2498  0.0983 -0.6420
12905TIP3    H160130   1.199   0.967   5.693 -1.5533 -1.0280  0.9226
12905TIP3    H260131   1.201   0.852   5.594 -0.3204 -0.1380 -0.1159
12906TIP3   OH260132   0.074   5.532  15.952 -0.8236 -0.1370  0.5274
12906TIP3    H160133   0.054   5.438  15.945  0.4280 -0.3834 -0.0082
12906TIP3    H260134   0.129   5.550  15.876 -2.5098  1.4510 -0.3750
12907TIP3   OH260135   5.338   1.581  12.352 -0.6872 -0.4198  0.5102
12907TIP3    H160136   5.360   1.563  12.444  0.5236 -0.2650  0.2623
12907TIP3    H260137   5.383   1.512  12.303  0.0684  0.4746 -0.0890
12908TIP3   OH260138   0.411   6.291  14.551 -0.0295  0.1013 -0.0932
12908TIP3    H160139   0.381   6.379  14.574 -0.2617 -0.4377  1.8056
12908TIP3    H260140   0.476   6.269  14.617 -0.5145 -1.4361 -0.0894
12909TIP3   OH260141   2.874   2.455   3.849 -0.4743 -0.6554  0.2358
12909TIP3    H160142   2.907   2.498   3.771 -1.1409 -1.0319 -0.2669
12909TIP3    H260143   2.912   2.367   3.846  0.7016 -0.2104  1.1392
12910TIP3   OH260144   2.421   2.133   3.458  0.0416  0.1129 -0.2015
12910TIP3    H160145   2.356   2.072   3.491 -0.5730  0.7600 -0.2015
12910TIP3    H260146   2.448   2.184   3.534 -0.9858  1.2434 -0.5560
12911TIP3   OH260147   6.162   0.534  13.614  0.1897  0.0699  0.1890
12911TIP3    H160148   6.174   0.443  13.586  1.5830  0.2989 -0.0186
12911TIP3    H260149   6.159   0.584  13.532 -2.2725  0.0831  0.2022
12912TIP3   OH260150   4.736   3.571  13.199 -0.0468 -0.0839 -0.7535
12912TIP3    H160151   4.671   3.601  13.263 -0.0641 -1.3138 -0.1615
12912TIP3    H260152   4.698   3.593  13.114 -0.6969  0.2500 -0.3851
12913TIP3   OH260153   0.671   4.393  15.862  0.7859  0.3435  0.5352
12913TIP3    H160154   0.719   4.371  15.782 -0.2906 -1.1429  0.2543
12913TIP3    H260155   0.728   4.453  15.908  2.9851 -1.4229  0.2859
12914TIP3   OH260156   3.121   5.476  14.263 -0.0571 -0.0493  0.0924
12914TIP3    H160157   3.190   5.539  14.243  0.1396 -0.4000 -0.3718
12914TIP3    H260158   3.042   5.529  14.272  0.2171  0.3239  0.3332
12915TIP3   OH260159   3.134   6.358   1.429 -0.3962 -0.4347 -0.0787
12915TIP3    H160160   3.065   6.377   1.493  0.9626 -1.6677  1.8708
12915TIP3    H260161   3.090   6.308   1.360 -1.7592  0.2863  0.2296
12916TIP3   OH260162   6.019   5.489  14.407  0.3322  0.2580 -0.0829
12916TIP3    H160163   6.080   5.507  14.335  0.5284 -2.2841 -0.6623
12916TIP3    H260164   6.075   5.485  14.484  0.3364  1.5265 -0.0013
12917TIP3   OH260165   2.748   3.914  11.602  0.1262  0.2981 -0.4587
12917TIP3    H160166   2.840   3.935  11.593  0.3314 -0.7279 -0.9455
12917TIP3    H260167   2.719   3.895  11.512 -1.0366  2.4138 -0.5986
12918TIP3   OH260168   1.170   2.134   5.976 -0.1287  0.0674 -0.0609
12918TIP3    H160169   1.093   2.102   6.022 -0.9454  0.8992 -0.8111
12918TIP3    H260170   1.208   2.199   6.036  1.4849 -2.0855  1.4260
12919TIP3   OH260171   1.653   5.509   2.422  0.2745 -0.3594  0.2613
12919TIP3    H160172   1.608   5.456   2.488 -0.4977  0.6398  0.5689
12919TIP3    H260173   1.682   5.587   2.470  1.1680 -0.3784 -0.2319
12920TIP3   OH260174   5.244   3.856   3.718 -0.3012 -1.1045  0.1559
12920TIP3    H160175   5.180   3.842   3.788  0.2363  0.2680  0.9616
12920TIP3    H260176   5.275   3.945   3.731 -0.0449 -0.8680 -1.7452
12921TIP3   OH260177   2.648   0.948   2.479  0.6062 -0.7898  0.1144
12921TIP3    H160178   2.603   0.969   2.560  0.7141 -2.1068  0.5398
12921TIP3    H260179   2.621   1.016   2.418 -2.3051 -1.7117  0.2159
12922TIP3   OH260180   4.790   5.956  13.091  0.1330  0.5950 -0.0168
12922TIP3    H160181   4.845   5.987  13.019 -2.2225 -2.0695 -3.3157
12922TIP3    H260182   4.719   6.020  13.096 -0.9975 -0.4315 -1.9092
12923TIP3   OH260183   4.089   4.213   3.505  0.2821  0.3789  0.2575
12923TIP3    H160184   4.128   4.170   3.429 -0.1203  0.0848  0.2175
12923TIP3    H260185   4.084   4.145   3.572  0.0847  0.4848  0.3522
12924TIP3   OH260186   0.815   1.766  14.132 -0.0630  0.0196 -0.2265
12924TIP3    H160187   0.823   1.760  14.227  0.1436 -0.4675 -0.2686
12924TIP3    H260188   0.883   1.830  14.107 -1.4691  1.7313  0.1263
12925TIP3   OH260189   0.131   5.443   2.066  0.3882 -0.1176 -0.7703
12925TIP3    H160190   0.165   5.481   2.147  0.9113 -1.3385 -0.3901
12925TIP3    H260191   0.206   5.396   2.029 -0.3954 -1.3684 -0.8376
12926TIP3   OH260192   2.473   5.167   3.827  0.5386 -0.3227 -0.1358
12926TIP3    H160193   2.384   5.133   3.839  0.0693  0.9070  0.0683
12926TIP3    H260194   2.519   5.145   3.908  0.1545 -0.2254  0.1126
12927TIP3   OH260195   0.180   2.744  12.018  0.7663 -0.3378  0.3050
12927TIP3    H160196   0.164   2.823  11.968 -1.2029 -1.4408 -0.9282
12927TIP3    H260197   0.174   2.673  11.954  3.6855 -1.4645  1.1383
12928TIP3   OH260198   0.138   2.719  15.005 -0.2223 -0.5177 -0.1322
12928TIP3    H160199   0.063   2.756  15.052  0.3312  1.4702 -0.7176
12928TIP3    H260200   0.214   2.752  15.053  0.3240 -2.2427  0.2529
12929TIP3   OH260201   4.619   6.371   5.040 -0.0337 -0.4959 -0.0053
12929TIP3    H160202   4.581   6.424   5.110 -0.5620 -0.7145 -0.1172
12929TIP3    H260203   4.653   6.434   4.977 -0.5381 -0.2868 -0.0753
12930TIP3   OH260204   3.625   6.117   1.518  0.2445 -0.0568  0.0290
12930TIP3    H160205   3.645   6.062   1.594  0.6837 -0.2012 -0.1872
12930TIP3    H260206   3.592   6.199   1.556 -0.7172 -0.5817  0.3470
12931TIP3   OH260207   2.528   5.136  15.760 -0.1718 -0.0341  0.2796
12931TIP3    H160208   2.597   5.142  15.694  1.6604 -1.2644  1.9579
12931TIP3    H260209   2.450   5.111  15.711  1.3616 -2.0128 -1.3211
12932TIP3   OH260210   5.013   5.170   0.246 -0.1050 -0.0560  0.2033
12932TIP3    H160211   5.078   5.107   0.277  0.6519  0.3429 -0.5246
12932TIP3    H260212   5.059   5.254   0.246 -1.3606  0.6822  1.9930
12933TIP3   OH260213   2.435   4.492  16.422  0.7702  0.0322 -0.1884
12933TIP3    H160214   2.510   4.491  16.482 -0.9888  0.1142  2.1540
12933TIP3    H260215   2.362   4.458  16.474 -0.2037 -3.4371 -3.3442
12934TIP3   OH260216   5.530   3.950  15.318  0.2096 -0.1677 -0.3065
12934TIP3    H160217   5.438   3.925  15.316  0.3030 -0.5041 -1.1584
12934TIP3    H260218   5.530   4.045  15.304 -0.0350 -0.0408  0.5033
12935TIP3   OH260219   5.708   2.724  12.931  0.7390  0.5471  0.7828
12935TIP3    H160220   5.627   2.721  12.880  1.5998  1.1786 -0.6634
12935TIP3    H260221   5.687   2.781  13.005 -0.0241  1.0395  0.2027
12936TIP3   OH260222   3.459   1.274  10.804  0.1245 -0.3712 -0.3102
12936TIP3    H160223   3.517   1.199  10.798  0.2392 -0.3749  0.6257
12936TIP3    H260224   3.498   1.328  10.873  0.2603  0.7407 -1.2213
12937TIP3   OH260225   6.736   0.197   3.790 -0.0994 -0.5029 -0.1151
12937TIP3    H160226   6.658   0.245   3.817 -0.5456 -1.0512 -0.4302
12937TIP3    H260227   6.784   0.182   3.872  1.2693  2.5454 -0.2036
12938TIP3   OH260228   4.385   2.468   1.268 -0.0896 -0.2723  0.6492
12938TIP3    H160229   4.391   2.387   1.217 -2.1375 -0.8459  1.2411
12938TIP3    H260230   4.467   2.514   1.249  0.5436 -1.8651 -0.7341
12939TIP3   OH260231   5.807   5.705  13.627  0.0173 -0.0819  0.3890
12939TIP3    H160232   5.770   5.763  13.561  0.1178  0.4887  0.8134
12939TIP3    H260233   5.829   5.625  13.581  1.0544  0.6864 -0.4936
12940TIP3   OH260234   1.383   2.350   3.333 -0.3087 -0.3858  0.2795
12940TIP3    H160235   1.413   2.438   3.357 -0.1733 -0.7844  1.6450
12940TIP3    H260236   1.339   2.362   3.248  2.9885  0.3488 -1.5015
12941TIP3   OH260237   5.737   6.387   4.481 -0.2714 -0.5113 -0.4428
12941TIP3    H160238   5.776   6.449   4.420 -0.5070 -0.0862 -0.1646
12941TIP3    H260239   5.776   6.302   4.457 -0.0093 -0.2739 -0.8735
12942TIP3   OH260240   3.334   3.327   0.785 -0.5221 -0.7654 -0.0087
12942TIP3    H160241   3.374   3.409   0.813  0.9410 -1.1514 -0.8107
12942TIP3    H260242   3.390   3.259   0.824  0.0032 -1.3178 -1.6300
12943TIP3   OH260243   4.171   0.808   5.223 -0.1346 -0.0753 -0.2391
12943TIP3    H160244   4.116   0.730   5.216 -2.6020  1.5782 -0.2926
12943TIP3    H260245   4.134   0.869   5.159  2.2326  0.9202 -0.7638
12944TIP3   OH260246   0.106   1.469  14.621  1.1127  0.4405 -0.0244
12944TIP3    H160247   0.168   1.527  14.577  1.5766 -0.2845 -0.3517
12944TIP3    H260248   0.155   1.388  14.635  0.5147  0.1697  0.5319
12945TIP3   OH260249   5.891   3.161  12.437 -0.1623  0.1904 -0.1099
12945TIP3    H160250   5.903   3.171  12.531  1.7003  1.4065 -0.4136
12945TIP3    H260251   5.947   3.087  12.413 -1.1981 -0.5868 -0.1792
12946TIP3   OH260252   0.960   2.212   0.916  0.0423  0.9568  0.3703
12946TIP3    H160253   1.002   2.198   0.831  1.2182 -1.9414  1.3053
12946TIP3    H260254   0.880   2.158   0.912 -0.9968  2.4154  0.4444
12947TIP3   OH260255   5.853   1.654   5.861 -0.0677  0.3771 -0.6180
12947TIP3    H160256   5.816   1.702   5.788 -1.9443 -0.7008 -0.4401
12947TIP3    H260257   5.827   1.704   5.939  0.7640  0.7885 -0.5903
12948TIP3   OH260258   1.775   0.390   3.740 -0.6831 -0.3324 -0.1102
12948TIP3    H160259   1.798   0.396   3.647 -1.6222 -0.5628 -0.3736
12948TIP3    H260260   1.685   0.424   3.744 -0.7475 -0.5793  0.6739
12949TIP3   OH260261   4.585   1.278   4.244  0.5335 -0.5766 -0.1011
12949TIP3    H160262   4.531   1.209   4.282  1.3700 -0.4053  1.4728
12949TIP3    H260263   4.667   1.234   4.222  1.0262 -0.1136  0.7964
12950TIP3   OH260264   4.631   0.113   3.237  0.1733 -0.2412 -0.5007
12950TIP3    H160265   4.675   0.130   3.320  0.6967 -1.5448 -0.4857
12950TIP3    H260266   4.592   0.026   3.248 -3.6188  1.3649 -0.0395
12951TIP3   OH260267   2.866   6.763   5.920 -0.2002 -0.9645 -0.0308
12951TIP3    H160268   2.950   6.719   5.925 -0.7366 -2.0616 -0.4279
12951TIP3    H260269   2.837   6.772   6.011  1.0522  0.8769  0.2402
12952TIP3   OH260270   2.569   5.041   2.744 -0.6954  0.3973  0.9493
12952TIP3    H160271   2.637   5.081   2.690 -0.9602 -2.1883 -1.5083
12952TIP3    H260272   2.490   5.091   2.724 -0.6974 -0.2449 -0.8442
12953TIP3   OH260273   2.732   6.465   0.921 -0.2041 -0.3612 -0.4854
12953TIP3    H160274   2.763   6.512   0.998  2.2247 -0.7281 -1.1658
12953TIP3    H260275   2.659   6.518   0.889 -1.6579 -0.4834  2.2869
12954TIP3   OH260276   2.712   6.081   1.512  0.3186  0.1820  0.7246
12954TIP3    H160277   2.767   6.041   1.579 -0.0013 -0.2272  0.7489
12954TIP3    H260278   2.630   6.031   1.515  0.7245 -0.6527 -0.7899
12955TIP3   OH260279   6.428   0.671   2.736  0.1846  0.2301 -0.2916
12955TIP3    H160280   6.425   0.669   2.641 -1.7532 -0.7187 -0.2693
12955TIP3    H260281   6.351   0.723   2.761  0.9897  0.9611  0.7591
12956TIP3   OH260282   5.701   1.683  14.136 -0.1047 -0.0401  0.3245
12956TIP3    H160283   5.773   1.627  14.165 -0.3936 -0.9171 -0.5947
12956TIP3    H260284   5.739   1.737  14.066 -0.2849 -0.3678 -0.0286
12957TIP3   OH260285   5.608   4.993   3.924  0.3484  0.0481 -0.2615
12957TIP3    H160286   5.666   4.917   3.928 -1.2540 -1.1783  0.6595
12957TIP3    H260287   5.578   4.996   3.833  1.8973  0.7846 -0.7892
12958TIP3   OH260288   5.748   6.159  13.497  0.2213 -0.3235  0.5046
12958TIP3    H160289   5.772   6.231  13.556  0.2078  0.5079 -0.4736
12958TIP3    H260290   5.742   6.200  13.410  0.0985 -1.4874 -0.0579
12959TIP3   OH260291   0.906   6.503  16.171  0.7655 -0.6246  0.2231
12959TIP3    H160292   0.987   6.455  16.153  0.5587 -0.7145 -0.4873
12959TIP3    H260293   0.836   6.442  16.148  0.5010 -0.0885 -0.4225
12960TIP3   OH260294   1.100   0.217  17.214 -0.1099 -0.3760  0.5484
12960TIP3    H160295   1.030   0.157  17.187  0.5402 -1.4990  1.3005
12960TIP3    H260296   1.144   0.172  17.286  1.7362  0.0569 -0.2596
12961TIP3   OH260297   1.754   4.656   5.047 -0.4725  0.2700  0.3377
12961TIP3    H160298   1.756   4.579   5.104 -1.7347 -0.0439 -0.0247
12961TIP3    H260299   1.832   4.646   4.991 -0.3760 -0.5047  0.6001
12962TIP3   OH260300   6.132   3.451  10.723 -0.3925  0.0661 -1.1120
12962TIP3    H160301   6.215   3.486  10.754 -0.4326  0.0154 -0.9443
12962TIP3    H260302   6.099   3.399  10.796 -1.1576  1.0651 -0.7161
12963TIP3   OH260303   5.530   5.655   5.086  0.1730  0.3646 -0.0669
12963TIP3    H160304   5.582   5.713   5.142 -0.8156  2.1524 -0.9025
12963TIP3    H260305   5.582   5.575   5.079  3.4258  2.3981 -1.7478
12964TIP3   OH260306   6.453   1.765  16.625 -0.5386  0.7539  0.1133
12964TIP3    H160307   6.415   1.850  16.602 -1.2995  0.0996 -1.1757
12964TIP3    H260308   6.380   1.704  16.619  0.4033 -0.3187 -1.0806
12965TIP3   OH260309   1.691   1.875  14.398 -0.0663  0.3361 -0.1559
12965TIP3    H160310   1.667   1.792  14.439  1.7156 -0.4092 -0.5220
12965TIP3    H260311   1.771   1.902  14.445 -1.0983  2.3238  0.5659
12966TIP3   OH260312   1.333   6.541   0.446  0.2408 -0.1607  0.3647
12966TIP3    H160313   1.289   6.622   0.419  0.2028  0.0238  0.9656
12966TIP3    H260314   1.262   6.478   0.458  0.1433  0.0792  1.1319
12967TIP3   OH260315   4.471   5.200  12.403 -0.5189  0.3464  0.2547
12967TIP3    H160316   4.399   5.138  12.415 -0.5244  0.4709  0.8822
12967TIP3    H260317   4.535   5.152  12.351 -2.2547  1.1789 -2.8870
12968TIP3   OH260318   5.802   3.611  11.224  0.5245  0.4790  0.2644
12968TIP3    H160319   5.867   3.680  11.237 -0.0967  0.9589  0.8625
12968TIP3    H260320   5.781   3.581  11.312  0.7028 -0.4087  0.0195
12969TIP3   OH260321   3.898   5.163  11.648 -0.4700 -0.3763 -0.8675
12969TIP3    H160322   3.806   5.165  11.674 -0.7541 -0.5733 -1.8178
12969TIP3    H260323   3.937   5.239  11.692 -1.0541 -0.3614 -0.3679
12970TIP3   OH260324   2.407   2.289  13.595 -0.1452 -0.6982  0.6227
12970TIP3    H160325   2.396   2.196  13.615  0.7380 -0.6161  1.5821
12970TIP3    H260326   2.448   2.290  13.509  1.4036 -1.2785  1.3157
12971TIP3   OH260327   6.361   6.262  14.087  0.3990  0.0272 -0.2812
12971TIP3    H160328   6.315   6.287  14.006 -0.3994  1.3976  0.5482
12971TIP3    H260329   6.318   6.181  14.115 -1.0195  0.8438  0.0341
12972TIP3   OH260330   5.939   0.464  11.630  0.1990 -0.0681 -0.1371
12972TIP3    H160331   5.977   0.480  11.543  0.6142  0.6271  0.1672
12972TIP3    H260332   5.849   0.439  11.611 -0.4614  2.4176 -0.7104
12973TIP3   OH260333   4.562   5.651   1.075 -0.0308 -0.3386  1.0043
12973TIP3    H160334   4.468   5.638   1.088 -0.1079 -0.8937  0.0295
12973TIP3    H260335   4.570   5.745   1.056 -0.2616 -0.1074  2.0129
12974TIP3   OH260336   5.633   0.631   4.059 -0.5601  0.9219  0.6899
12974TIP3    H160337   5.692   0.666   4.125 -0.0301 -0.3189  0.9066
12974TIP3    H260338   5.615   0.705   4.001  1.5346  1.2545  0.3870
12975TIP3   OH260339   1.929   3.990  13.673 -0.1316  0.4019  0.3680
12975TIP3    H160340   2.014   3.989  13.718 -0.5414  1.7650  1.2215
12975TIP3    H260341   1.923   4.078  13.635 -0.7679  0.0074 -0.4676
12976TIP3   OH260342   0.507   2.749  16.567  0.2347 -0.6181  0.0878
12976TIP3    H160343   0.586   2.804  16.558  0.6760 -1.2578 -0.0243
12976TIP3    H260344   0.541   2.659  16.565 -0.3896 -0.8874  1.1200
12977TIP3   OH260345   3.041   2.532  16.377  0.2112  0.7770 -1.0797
12977TIP3    H160346   3.014   2.581  16.454  0.0326  1.0520 -1.3147
12977TIP3    H260347   2.961   2.489  16.347  0.3213  0.5138 -1.0004
12978TIP3   OH260348   3.609   5.256  14.765 -0.6179 -0.2553  0.0601
12978TIP3    H160349   3.682   5.254  14.827  0.2883 -0.0053 -0.9535
12978TIP3    H260350   3.651   5.258  14.679 -1.8318 -0.1732 -0.5570
12979TIP3   OH260351   2.670   1.548   4.190  0.1435 -0.1916 -1.0533
12979TIP3    H160352   2.590   1.506   4.158 -0.5163  0.3598 -0.1809
12979TIP3    H260353   2.679   1.517   4.280 -0.5267  1.7163 -0.2742
12980TIP3   OH260354   3.297   4.295  15.492 -0.2682  0.8137  0.1867
12980TIP3    H160355   3.260   4.334  15.412 -0.1348  0.6200  0.0288
12980TIP3    H260356   3.248   4.213  15.502  0.8348  0.0191 -0.6275
12981TIP3   OH260357   0.520   4.481   3.100  0.3045 -0.3707  0.5179
12981TIP3    H160358   0.446   4.522   3.145  0.2777  1.1080 -0.8243
12981TIP3    H260359   0.485   4.398   3.067 -1.4606  1.2402 -1.9602
12982TIP3   OH260360   1.917   5.528  12.190 -0.0718  0.0930 -0.2767
12982TIP3    H160361   1.876   5.443  12.173 -1.9256  0.9777 -0.3788
12982TIP3    H260362   1.856   5.573  12.248  1.3407  1.0256  0.5548
12983TIP3   OH260363   0.007   4.419  11.418 -0.4473 -0.5252  0.3821
12983TIP3    H160364   0.025   4.334  11.377  0.9212 -0.3514  0.5787
12983TIP3    H260365  -0.015   4.398  11.509 -2.4073 -0.8204 -0.1011
12984TIP3   OH260366   3.722   1.658   1.455 -0.2528 -0.6444  0.1124
12984TIP3    H160367   3.629   1.672   1.436 -0.1574  0.7078  0.5046
12984TIP3    H260368   3.736   1.564   1.442 -1.7655 -0.9411  0.4661
12985TIP3   OH260369   5.269   6.476   2.274 -0.4042  0.1462  0.1638
12985TIP3    H160370   5.351   6.427   2.264 -0.9801 -0.8591  0.3085
12985TIP3    H260371   5.229   6.474   2.187 -0.6999 -0.1260  0.3062
12986TIP3   OH260372   3.418   5.253   5.753 -1.0452  0.0134  0.1401
12986TIP3    H160373   3.503   5.231   5.792 -0.0182  1.7663 -0.9729
12986TIP3    H260374   3.405   5.186   5.686  0.5353  0.8805 -1.1173
12987TIP3   OH260375   5.076   4.988   5.569  0.3975  0.6118  0.2836
12987TIP3    H160376   5.024   5.050   5.619 -2.1089 -1.4897  0.5116
12987TIP3    H260377   5.080   5.025   5.481  0.4391  1.8886  0.8089
12988TIP3   OH260378   1.611   1.874   5.964  0.4105 -0.4198 -0.0190
12988TIP3    H160379   1.695   1.831   5.982  1.0678  0.1423 -1.5818
12988TIP3    H260380   1.606   1.945   6.028  1.9054  0.5473 -0.9308
12989TIP3   OH260381   0.139   6.007   2.020 -0.0534  0.2041 -0.8989
12989TIP3    H160382   0.063   6.059   2.047 -0.6682 -0.0607 -2.0844
12989TIP3    H260383   0.206   6.072   1.999 -0.7788  0.5538 -2.2608
12990TIP3   OH260384   3.393   4.084   5.412 -1.1506  0.5607 -0.1430
12990TIP3    H160385   3.390   4.023   5.485  3.3342  0.0940 -0.0631
12990TIP3    H260386   3.419   4.031   5.337  2.1969  2.0516 -0.2195
12991TIP3   OH260387   0.058   1.753   3.521  0.2552  0.0082 -0.3221
12991TIP3    H160388   0.060   1.824   3.457 -0.3233  0.4543  0.1559
12991TIP3    H260389   0.055   1.673   3.468  4.4319  0.0656 -1.0210
12992TIP3   OH260390   4.304   5.660   5.002  0.4075 -0.1843  0.1437
12992TIP3    H160391   4.258   5.576   5.013  1.4124 -1.1660 -2.4299
12992TIP3    H260392   4.342   5.655   4.915  0.4020  3.0671 -0.1477
12993TIP3   OH260393   1.842   0.584   0.171 -0.0211 -0.2108 -0.1382
12993TIP3    H160394   1.893   0.650   0.217 -0.7920 -0.1993  0.7235
12993TIP3    H260395   1.803   0.531   0.240  0.3837 -1.4327 -0.8150
12994TIP3   OH260396   1.876   3.134  11.733  0.1327  0.3963 -1.0495
12994TIP3    H160397   1.805   3.154  11.794  1.9647  1.3499  0.8719
12994TIP3    H260398   1.906   3.219  11.702  2.5467  0.3076  0.7575
12995TIP3   OH260399   5.310   3.041   3.234 -0.5496  0.2828  0.3925
12995TIP3    H160400   5.270   3.021   3.149 -1.1112  0.2248  0.6703
12995TIP3    H260401   5.296   2.962   3.286  2.3491 -0.8668 -0.3546
12996TIP3   OH260402   6.395   1.762   1.936  0.3685 -0.2035  0.0998
12996TIP3    H160403   6.352   1.817   1.870 -0.2097 -0.9663 -0.1854
12996TIP3    H260404   6.322   1.716   1.979  0.8869 -1.4673 -0.3359
12997TIP3   OH260405   2.303   4.177  13.511 -0.3781 -0.9109  0.7870
12997TIP3    H160406   2.301   4.145  13.421 -2.1580 -2.0398  1.1942
12997TIP3    H260407   2.375   4.240  13.512 -1.3935  0.4493 -1.8649
12998TIP3   OH260408   2.971   5.757  13.082  0.1931  0.2329  0.4779
12998TIP3    H160409   2.895   5.814  13.067  1.2277  1.3535 -0.7061
12998TIP3    H260410   3.017   5.798  13.156 -0.6595 -0.8271  1.6523
12999TIP3   OH260411   2.354   1.951  13.365 -0.1412 -0.1787 -0.1412
12999TIP3    H160412   2.370   1.920  13.276 -0.4093 -1.0122  0.0992
12999TIP3    H260413   2.260   1.966  13.369 -0.2704 -1.0929  0.3042
13000TIP3   OH260414   5.854   6.102   1.905 -0.8624 -0.3524 -0.2078
13000TIP3    H160415   5.904   6.103   1.824 -1.7331  0.0792 -0.7535
13000TIP3    H260416   5.919   6.117   1.974 -0.1668 -0.3956 -0.8471
13001TIP3   OH260417   6.628   0.062  12.184  0.2811  0.1170 -0.6533
13001TIP3    H160418   6.708   0.046  12.134  0.8085  2.1548 -0.5716
13001TIP3    H260419   6.658   0.108  12.262 -1.0438  2.2504 -1.3051
13002TIP3   OH260420   4.508   0.976   0.395 -1.1595  0.2397 -0.4654
13002TIP3    H160421   4.601   0.956   0.380 -1.0895  0.0557  0.1775
13002TIP3    H260422   4.478   1.013   0.312 -0.9216 -1.1578 -1.1976
13003TIP3   OH260423   4.968   5.031   1.153  0.2531  0.0889  0.5189
13003TIP3    H160424   5.057   5.066   1.156  0.0977  0.4334  3.0055
13003TIP3    H260425   4.967   4.964   1.222 -0.9096 -1.2614 -0.7372
13004TIP3   OH260426   4.444   2.677  11.206 -0.3330 -0.5109  0.4162
13004TIP3    H160427   4.359   2.711  11.176  0.4509  0.5961 -0.6963
13004TIP3    H260428   4.482   2.636  11.128 -0.3551 -2.1090  1.2253
13005TIP3   OH260429   0.677   2.065  15.800 -0.4695  0.2056 -0.1240
13005TIP3    H160430   0.673   2.157  15.827  2.5757  0.0801  1.0696
13005TIP3    H260431   0.716   2.019  15.874  0.0805 -1.6685 -1.4931
13006TIP3   OH260432   2.711   5.063  13.229 -0.2400  0.1013  0.3492
13006TIP3    H160433   2.661   5.143  13.214 -0.1177  0.0521 -0.3184
13006TIP3    H260434   2.646   5.001  13.263 -0.2297  0.6305  1.3880
13007TIP3   OH260435   2.274   5.142   5.277  0.3118  0.1710  0.2882
13007TIP3    H160436   2.232   5.151   5.363  0.5305 -0.0371  0.4164
13007TIP3    H260437   2.311   5.054   5.277 -1.5328 -0.6930 -0.8304
13008TIP3   OH260438   2.273   4.805   4.161  0.1208  0.0064 -0.1997
13008TIP3    H160439   2.243   4.730   4.110  2.0251  1.0344 -3.0527
13008TIP3    H260440   2.194   4.854   4.182 -0.8526 -1.2496 -0.8265
13009TIP3   OH260441   1.810   0.571   4.248 -0.1652 -0.1570 -0.0702
13009TIP3    H160442   1.845   0.641   4.303 -0.6745 -0.3422  0.5005
13009TIP3    H260443   1.731   0.607   4.210 -0.0054 -0.1542 -0.4062
13010TIP3   OH260444   1.793   2.099   2.183  0.3195 -0.0800  0.2499
13010TIP3    H160445   1.712   2.050   2.200 -0.2662  0.9226  0.4204
13010TIP3    H260446   1.782   2.133   2.095  1.5584 -1.7985 -0.6362
13011TIP3   OH260447   0.536   6.056   6.517 -0.2506  0.6597 -0.0617
13011TIP3    H160448   0.597   5.986   6.493 -1.8891 -0.8073 -0.1478
13011TIP3    H260449   0.586   6.136   6.506  1.2259 -0.3994 -1.5551
13012TIP3   OH260450   3.026   5.896  13.895  0.6569  0.0659  0.0559
13012TIP3    H160451   3.057   5.982  13.921 -0.5160  0.8482 -1.0288
13012TIP3    H260452   2.939   5.888  13.936 -0.1257  0.2770 -1.4807
13013TIP3   OH260453   0.781   6.013  14.329 -0.0756  0.1301  0.1689
13013TIP3    H160454   0.828   6.093  14.354 -0.5084  0.0073  1.4399
13013TIP3    H260455   0.767   6.022  14.235  1.0352  0.9329  0.0587
13014TIP3   OH260456   0.544   1.357   4.966  0.3611 -0.3745  0.3305
13014TIP3    H160457   0.597   1.332   4.891  1.0086 -2.1839  1.3363
13014TIP3    H260458   0.539   1.278   5.020  0.7676  1.1074  2.7052
13015TIP3   OH260459   4.058   4.306   3.174 -0.1976 -0.1321 -0.6507
13015TIP3    H160460   4.092   4.366   3.240 -1.7110  1.1607 -0.9766
13015TIP3    H260461   4.098   4.222   3.194  0.0772  0.4413  1.3551
13016TIP3   OH260462   5.886   0.822  11.273 -0.3246  0.4387 -0.3243
13016TIP3    H160463   5.946   0.897  11.268 -1.8572  1.8670  1.0636
13016TIP3    H260464   5.891   0.794  11.365  0.2119 -1.1862 -0.8297
13017TIP3   OH260465   0.235   0.410   4.511  0.1181 -0.3967 -0.0881
13017TIP3    H160466   0.286   0.380   4.587  0.7602 -1.8861 -1.0529
13017TIP3    H260467   0.181   0.481   4.545  2.9236  1.4004  0.9840
13018TIP3   OH260468   6.179   4.768   1.822  0.5237  0.6585 -0.0598
13018TIP3    H160469   6.160   4.749   1.730 -0.5645 -1.7180  0.5706
13018TIP3    H260470   6.104   4.820   1.852 -0.8610 -1.4122  0.2596
13019TIP3   OH260471   0.949   6.679   2.053  0.1279 -0.7696 -0.0868
13019TIP3    H160472   1.036   6.687   2.092 -0.4711  1.0049  1.0034
13019TIP3    H260473   0.955   6.725   1.970 -0.3565  1.6372  1.1196
13020TIP3   OH260474   5.147   1.189   6.248  0.7855 -0.2023  0.2790
13020TIP3    H160475   5.144   1.182   6.344  1.3603  1.4439  0.4465
13020TIP3    H260476   5.142   1.099   6.217 -1.0531 -0.6751  1.8055
13021TIP3   OH260477   1.233   5.659   3.853  0.6491 -0.3679  0.3944
13021TIP3    H160478   1.139   5.666   3.873  0.2634 -2.2131 -0.4869
13021TIP3    H260479   1.264   5.749   3.851 -1.4509  0.4135 -0.7619
13022TIP3   OH260480   5.402   0.246  12.657 -0.2336  0.3045 -0.4655
13022TIP3    H160481   5.350   0.240  12.576 -2.2302  0.3250  0.7423
13022TIP3    H260482   5.403   0.157  12.692  2.7035 -0.2354 -1.6451
13023TIP3   OH260483   6.497   3.789   3.503 -0.2657  0.3783  0.0505
13023TIP3    H160484   6.592   3.792   3.490  0.0192 -1.6500  1.2002
13023TIP3    H260485   6.469   3.712   3.454 -1.0931  0.1472  0.8578
13024TIP3   OH260486   6.563   1.168  11.402  0.5992  0.4653 -0.0445
13024TIP3    H160487   6.630   1.186  11.468  0.0139  0.9196  0.4392
13024TIP3    H260488   6.606   1.186  11.319  1.0656  0.7928  0.2623
13025TIP3   OH260489   1.887   4.876   4.002 -0.3907  0.2997  0.2291
13025TIP3    H160490   1.947   4.900   4.073  1.4186 -0.8728 -0.8425
13025TIP3    H260491   1.943   4.858   3.927 -2.2784  2.2498 -1.8168
13026TIP3   OH260492   0.413   1.840  15.989 -0.0032  0.1515 -0.3085
13026TIP3    H160493   0.361   1.761  16.000 -0.9983  0.8466  0.1315
13026TIP3    H260494   0.439   1.839  15.896 -0.6918 -0.2661 -0.5031
13027TIP3   OH260495   0.810   1.603  16.690 -0.0437  0.3625  0.2746
13027TIP3    H160496   0.734   1.612  16.747 -0.2980  1.2748 -0.1990
13027TIP3    H260497   0.842   1.514  16.707  0.1218  0.7318  2.1308
13028TIP3   OH260498   0.538   6.709  12.134  0.0238 -0.1283  0.1769
13028TIP3    H160499   0.568   6.703  12.225  0.3220 -1.3131  0.0261
13028TIP3    H260500   0.617   6.734  12.086  0.3475 -1.3646  0.0234
13029TIP3   OH260501   6.076   2.168  12.808 -0.4947 -0.2173  0.6635
13029TIP3    H160502   6.028   2.227  12.750  1.2228 -0.5553 -1.2431
13029TIP3    H260503   6.043   2.187  12.896 -3.7373 -0.1639 -0.4452
13030TIP3   OH260504   0.726   3.319  10.888 -0.5952  0.0772 -0.6155
13030TIP3    H160505   0.748   3.256  10.819  2.2276 -0.6110  0.7742
13030TIP3    H260506   0.798   3.382  10.887 -1.1232  0.7468  0.8979
13031TIP3   OH260507   4.786   1.241  11.407  0.1243 -0.0083 -0.2734
13031TIP3    H160508   4.778   1.226  11.501  0.7252 -3.4143 -0.6334
13031TIP3    H260509   4.739   1.167  11.367  0.2062  1.1412 -2.6583
13032TIP3   OH260510   5.386   0.133  15.165 -0.1225  0.2343 -0.1732
13032TIP3    H160511   5.436   0.179  15.098 -1.0107 -1.6857 -2.2643
13032TIP3    H260512   5.450   0.111  15.233  1.4027 -0.2314 -1.7213
13033TIP3   OH260513   4.427   5.035   2.430  0.2216 -1.1623  0.4836
13033TIP3    H160514   4.483   5.053   2.355  1.8198 -2.1347  1.3823
13033TIP3    H260515   4.339   5.023   2.393  0.4467  0.9822 -0.8951
13034TIP3   OH260516   6.719   4.102  17.125 -0.5314 -0.1687 -0.5296
13034TIP3    H160517   6.741   4.168  17.190 -0.4309 -0.8406  0.1392
13034TIP3    H260518   6.739   4.142  17.041  0.6807  0.2104 -0.0692
13035TIP3   OH260519   6.609   1.441  10.958 -0.0887  0.3177  0.3357
13035TIP3    H160520   6.577   1.368  10.905 -0.5140 -0.6717  1.8791
13035TIP3    H260521   6.670   1.487  10.901 -2.2062  0.6854 -1.7933
13036TIP3   OH260522   0.383   0.657  12.472 -0.0029  0.9963  0.6560
13036TIP3    H160523   0.314   0.714  12.505  1.9392  3.3743  0.8799
13036TIP3    H260524   0.420   0.615  12.550 -1.3209 -0.5265  0.5073
13037TIP3   OH260525   3.363   6.529  15.803  0.6544  0.3416  0.5865
13037TIP3    H160526   3.386   6.577  15.883  0.5420 -1.2099  1.5887
13037TIP3    H260527   3.306   6.458  15.833  0.2190  0.0043 -0.9449
13038TIP3   OH260528   0.970   2.890   4.455 -0.8115  0.4082  0.1336
13038TIP3    H160529   0.926   2.974   4.461 -0.6348  0.5750 -0.7594
13038TIP3    H260530   1.026   2.898   4.379  0.1862 -0.0751  0.7965
13039TIP3   OH260531   0.233   3.573  16.259 -0.0350  0.2160  0.1458
13039TIP3    H160532   0.310   3.628  16.275 -1.1866  1.5184  1.5878
13039TIP3    H260533   0.184   3.577  16.341 -2.3367  0.5967 -1.1672
13040TIP3   OH260534   3.699   0.556  14.475  0.3324 -0.2164 -0.1487
13040TIP3    H160535   3.640   0.627  14.500  0.0478 -0.7056  0.6043
13040TIP3    H260536   3.661   0.519  14.396 -1.0835 -1.3196  0.9916
13041TIP3   OH260537   3.115   4.744   3.232  0.0091  0.2418  0.2843
13041TIP3    H160538   3.091   4.681   3.300  0.6351 -0.3327 -0.0166
13041TIP3    H260539   3.180   4.698   3.179  3.1357  2.2809  2.0470
13042TIP3   OH260540   1.970   0.709   3.764  0.4709  0.5766  0.0762
13042TIP3    H160541   1.984   0.784   3.823 -1.9460  0.6830  0.6047
13042TIP3    H260542   1.876   0.709   3.747  0.2198 -2.9474  0.8800
13043TIP3   OH260543   0.954   6.024  15.824  0.1030  0.6796 -0.1255
13043TIP3    H160544   0.913   6.106  15.796 -1.2219  0.2042  0.3432
13043TIP3    H260545   0.979   5.981  15.742 -1.5016  0.4163 -0.5102
13044TIP3   OH260546   5.720   2.878   2.507  0.3214 -0.1651 -0.6748
13044TIP3    H160547   5.749   2.846   2.421  1.5120 -0.1111 -0.3055
13044TIP3    H260548   5.632   2.842   2.517  1.3931 -2.9750 -0.4723
13045TIP3   OH260549   6.659   2.914  14.911  0.1919  0.1810  0.3591
13045TIP3    H160550   6.748   2.887  14.886  0.0336  0.5969 -0.6790
13045TIP3    H260551   6.603   2.873  14.845 -0.2834  0.8557  0.3438
13046TIP3   OH260552   5.466   5.464  16.000  0.1581 -0.0176 -0.0755
13046TIP3    H160553   5.417   5.382  15.995 -1.1495  0.7959 -1.0547
13046TIP3    H260554   5.532   5.457  15.932 -0.4285  0.0412 -0.6561
13047TIP3   OH260555   4.121   5.470  15.998  0.2126 -0.2306 -0.1323
13047TIP3    H160556   4.138   5.377  16.017 -0.7639 -0.5320 -0.6562
13047TIP3    H260557   4.033   5.470  15.959 -0.2307  1.0249  0.7952
13048TIP3   OH260558   1.660   3.970   0.294  0.1165  0.1616 -0.6186
13048TIP3    H160559   1.708   3.895   0.327  0.8278 -0.3928 -2.7917
13048TIP3    H260560   1.568   3.951   0.317  0.4143 -0.8349 -0.1943
13049TIP3   OH260561   6.164   5.601   3.744 -0.6341 -0.0135  0.3904
13049TIP3    H160562   6.082   5.635   3.710 -0.0485 -0.4160 -1.5389
13049TIP3    H260563   6.151   5.506   3.746 -0.2755 -0.0684  0.1964
13050TIP3   OH260564   0.486   5.643   2.740 -0.1087 -0.5418 -0.1960
13050TIP3    H160565   0.402   5.683   2.719  0.3282 -0.0831 -1.1104
13050TIP3    H260566   0.466   5.550   2.751 -1.0368 -0.1793  1.4194
13051TIP3   OH260567   1.707   6.455   0.508  0.4922 -0.9525 -0.0975
13051TIP3    H160568   1.692   6.448   0.602  1.3253 -0.5921  0.0710
13051TIP3    H260569   1.668   6.376   0.471 -0.1715 -0.9176  0.5036
13052TIP3   OH260570   4.991   4.032  12.559  0.1910 -0.4214 -0.5554
13052TIP3    H160571   5.053   3.965  12.530  1.6307  0.8220 -0.4683
13052TIP3    H260572   4.938   3.987  12.625  1.2145 -1.4506 -0.3851
13053TIP3   OH260573   5.789   1.337  15.486  0.4036  0.0783 -0.5023
13053TIP3    H160574   5.779   1.331  15.391 -0.5042 -0.4858 -0.3776
13053TIP3    H260575   5.880   1.364  15.498  0.5341  0.1483 -1.5311
13054TIP3   OH260576   5.325   5.040  13.787 -0.3067 -0.0070 -0.1304
13054TIP3    H160577   5.408   5.034  13.835  0.6392  1.5304 -1.4399
13054TIP3    H260578   5.262   5.072  13.851  0.7467  1.2978  0.2989
13055TIP3   OH260579   1.464   6.523   2.817  0.4559  0.6719  0.3799
13055TIP3    H160580   1.417   6.604   2.797  2.1293  1.4633 -0.5445
13055TIP3    H260581   1.469   6.521   2.912  0.4278  1.6781  0.4109
13056TIP3   OH260582   4.496   5.320  15.706  0.4645  0.0337  0.1013
13056TIP3    H160583   4.503   5.282  15.619  1.6189 -1.0265  0.6176
13056TIP3    H260584   4.538   5.405  15.699  1.3938 -0.4348 -0.1837
13057TIP3   OH260585   4.406   0.302  12.582  0.0599 -0.2603 -0.2965
13057TIP3    H160586   4.384   0.271  12.669 -0.1255  0.1987 -0.1775
13057TIP3    H260587   4.323   0.299  12.534 -0.3760  1.7809  0.2477
13058TIP3   OH260588   0.551   2.496   4.369  0.1871 -0.2829 -0.1586
13058TIP3    H160589   0.628   2.550   4.386  0.0880 -0.3248  0.4441
13058TIP3    H260590   0.492   2.515   4.443 -0.4948 -0.0413 -0.7498
13059TIP3   OH260591   3.722   3.804  17.167 -0.1022  0.3013 -0.0709
13059TIP3    H160592   3.768   3.880  17.202  1.7545 -0.6391 -0.3356
13059TIP3    H260593   3.662   3.840  17.102 -0.8119  1.7124  1.3090
13060TIP3   OH260594   4.097   4.233  16.315 -0.3072 -0.4360 -0.3107
13060TIP3    H160595   4.113   4.295  16.245 -0.6955 -1.1133 -1.0152
13060TIP3    H260596   4.108   4.283  16.395  2.0536 -0.0990 -0.7877
13061TIP3   OH260597   2.839   2.786   2.748 -0.2450  0.1204  0.0343
13061TIP3    H160598   2.928   2.799   2.714  0.1682  0.3661  1.1818
13061TIP3    H260599   2.790   2.751   2.673  1.0665 -1.0518 -0.3086
13062TIP3   OH260600   5.731   0.137  12.459 -0.1797  0.1529 -0.4848
13062TIP3    H160601   5.682   0.197  12.516 -1.2029 -2.2691  1.3603
13062TIP3    H260602   5.820   0.137  12.496 -0.7978 -1.2869  1.1548
13063TIP3   OH260603   4.884   4.658  15.646  0.3386 -0.0170 -0.0908
13063TIP3    H160604   4.909   4.713  15.571  0.1213  0.3562  0.1061
13063TIP3    H260605   4.963   4.654  15.700  0.5925 -0.5509 -0.4968
13064TIP3   OH260606   2.755   5.477   2.379  0.3181  0.3691 -0.2770
13064TIP3    H160607   2.692   5.481   2.451  1.1462  0.0296  0.4862
13064TIP3    H260608   2.800   5.561   2.382  0.1744  0.4571 -0.5698
13065TIP3   OH260609   2.971   0.265   4.856 -0.4854 -0.4207 -0.8517
13065TIP3    H160610   2.951   0.172   4.845 -0.0345 -0.5363 -0.7193
13065TIP3    H260611   3.063   0.266   4.882 -0.4477  0.0731 -1.0087
13066TIP3   OH260612   0.804   0.528  17.071  0.3898  1.3635 -0.4461
13066TIP3    H160613   0.740   0.474  17.024 -1.3939  2.9434  0.0086
13066TIP3    H260614   0.870   0.549  17.005  1.2647 -1.4653 -0.5605
13067TIP3   OH260615   0.797   0.866   5.773 -0.7930 -0.7292  0.5410
13067TIP3    H160616   0.821   0.951   5.811 -0.1615 -0.3134 -0.7301
13067TIP3    H260617   0.866   0.806   5.800  1.2785  0.2193 -2.2211
13068TIP3   OH260618   3.607   0.107  14.205 -0.0066 -0.6259  0.3043
13068TIP3    H160619   3.560   0.187  14.184  0.5889 -0.6305 -1.1350
13068TIP3    H260620   3.695   0.136  14.230  0.5394 -0.8611 -1.2432
13069TIP3   OH260621   2.775   5.035  15.832 -0.3662  0.1325  0.0548
13069TIP3    H160622   2.758   4.962  15.892  0.4317  0.1356  0.3007
13069TIP3    H260623   2.695   5.088  15.835 -1.6541 -1.6250 -1.4598
13070TIP3   OH260624   1.232   6.345   0.153  0.0197 -0.9799  0.6133
13070TIP3    H160625   1.162   6.403   0.122  1.0676  1.2040  2.1736
13070TIP3    H260626   1.187   6.282   0.210 -1.0419 -1.4682 -0.6811
13071TIP3   OH260627   4.111   1.858   3.183  0.5090  0.3817 -0.0551
13071TIP3    H160628   4.184   1.798   3.168  1.2047  1.5493 -1.7487
13071TIP3    H260629   4.059   1.852   3.103 -0.8887  0.1024  0.8423
13072TIP3   OH260630   3.400   3.894   4.693 -0.1584 -0.5973  0.3112
13072TIP3    H160631   3.494   3.895   4.671  0.0799 -1.1884  1.2617
13072TIP3    H260632   3.378   3.801   4.698 -1.6406 -0.6080 -3.2396
13073TIP3   OH260633   4.222   3.966  11.319 -0.1032  0.1715 -0.4381
13073TIP3    H160634   4.186   3.888  11.277 -2.0880  1.2712 -0.9114
13073TIP3    H260635   4.212   4.035  11.254  1.1427  0.9518  0.1650
13074TIP3   OH260636   2.597   3.498   0.029  0.4118  0.5764 -0.4454
13074TIP3    H160637   2.599   3.404   0.011  1.2451  0.3091  0.9299
13074TIP3    H260638   2.653   3.536  -0.038  0.6800  0.0118 -0.5536
13075TIP3   OH260639   1.726   3.260  16.038  0.4346  0.4134 -0.1098
13075TIP3    H160640   1.732   3.196  15.968  0.6846  0.9086 -0.5476
13075TIP3    H260641   1.805   3.246  16.090  1.1477  1.2017 -0.9381
13076TIP3   OH260642   2.806   6.711  15.814  0.3635  0.9068  0.0796
13076TIP3    H160643   2.818   6.618  15.829  0.4774  0.5079 -2.1663
13076TIP3    H260644   2.893   6.749  15.829  0.2334  0.7348  1.3564
13077TIP3   OH260645   2.813   4.959   1.759 -0.1794 -0.0771  0.4099
13077TIP3    H160646   2.848   4.908   1.686  0.4311  1.5030 -0.4511
13077TIP3    H260647   2.888   4.972   1.817  0.5540  2.4753 -0.9553
13078TIP3   OH260648   2.531   1.075   5.151  0.4396  0.2444 -0.7974
13078TIP3    H160649   2.608   1.087   5.206 -1.2689  0.5578  1.6827
13078TIP3    H260650   2.520   0.980   5.144  0.4853  0.2042 -0.3066
13079TIP3   OH260651   3.566   4.792   1.964  0.2463 -0.0211 -0.3783
13079TIP3    H160652   3.529   4.825   2.046 -0.9265  0.2212 -0.9802
13079TIP3    H260653   3.620   4.865   1.932 -0.8345  0.6319 -0.7657
13080TIP3   OH260654   3.509   0.627   0.784  0.4168  0.7688 -0.5952
13080TIP3    H160655   3.434   0.570   0.800  1.7736 -0.7843  0.5157
13080TIP3    H260656   3.549   0.594   0.704  1.9408 -0.7597  0.7212
13081TIP3   OH260657   6.372   2.904  12.761  0.1607 -0.0780  0.1543
13081TIP3    H160658   6.446   2.875  12.814  2.7664  2.3809 -1.8133
13081TIP3    H260659   6.343   2.985  12.802  1.7581  1.4763 -1.5955
13082TIP3   OH260660   3.218   4.737  14.891  0.5495 -0.0464 -0.0375
13082TIP3    H160661   3.233   4.760  14.983 -2.3216 -0.3841  0.6254
13082TIP3    H260662   3.220   4.820  14.845  0.5437  0.3133  0.5928
13083TIP3   OH260663   2.411   6.776   1.116  0.1415 -0.4454 -0.0138
13083TIP3    H160664   2.446   6.844   1.059  0.8666 -1.3453 -0.6736
13083TIP3    H260665   2.470   6.702   1.104 -1.3658 -1.6509 -0.3428
13084TIP3   OH260666   4.478   0.096  16.464  0.0533 -0.6308 -0.1271
13084TIP3    H160667   4.457   0.138  16.380  1.4456 -0.5685 -0.4628
13084TIP3    H260668   4.412   0.027  16.473 -1.3246  0.6037 -0.3159
13085TIP3   OH260669   5.669   2.560  12.334 -0.3353 -0.4009 -0.1470
13085TIP3    H160670   5.659   2.489  12.271  0.7895  0.1549 -0.9886
13085TIP3    H260671   5.625   2.635  12.293  0.1291 -0.1189 -0.1363
13086TIP3   OH260672   6.515   0.929  12.736  0.0048  0.3826  0.5236
13086TIP3    H160673   6.565   1.008  12.759 -0.6223  0.7022  0.7911
13086TIP3    H260674   6.521   0.874  12.814 -1.0034  0.9020  0.9781
13087TIP3   OH260675   2.140   2.403  14.662 -0.6389  0.3987  0.4758
13087TIP3    H160676   2.048   2.379  14.650 -0.5972  0.4726 -0.0127
13087TIP3    H260677   2.181   2.382  14.578 -0.4741  1.6011  0.2310
13088TIP3   OH260678   2.264   0.999  14.193 -0.0319 -0.4336 -0.4214
13088TIP3    H160679   2.200   0.931  14.174 -0.9036  0.6736 -1.7072
13088TIP3    H260680   2.291   0.983  14.284 -1.5799 -1.3849 -0.0950
13089TIP3   OH260681   1.154   1.669  13.033  0.2423  0.1847  0.0536
13089TIP3    H160682   1.215   1.614  12.985  0.2264  0.1167  0.1106
13089TIP3    H260683   1.114   1.725  12.967 -0.6292 -0.7044 -0.1821
13090TIP3   OH260684   2.710   6.038  13.137 -0.6043  0.2444  0.2015
13090TIP3    H160685   2.719   6.133  13.140  0.9658  0.1739 -0.7129
13090TIP3    H260686   2.620   6.021  13.163 -0.5668  1.8907  1.5544
13091TIP3   OH260687   4.368   2.681  13.353  0.0034  0.2992 -0.0428
13091TIP3    H160688   4.327   2.727  13.426 -0.4810  3.0077 -1.8677
13091TIP3    H260689   4.299   2.629  13.314 -0.5818  1.2912 -0.3755
13092TIP3   OH260690   1.702   1.829  11.922 -0.1027 -0.0628 -0.3030
13092TIP3    H160691   1.673   1.878  11.845  1.1445  1.4198  0.1284
13092TIP3    H260692   1.797   1.837  11.921  0.0431 -1.3706  0.5460
13093TIP3   OH260693   0.143   6.787   5.966 -0.0338 -0.2127 -0.3376
13093TIP3    H160694   0.160   6.692   5.968  0.0173 -0.1962  0.1059
13093TIP3    H260695   0.097   6.801   5.884 -0.3894 -0.6852 -0.2224
13094TIP3   OH260696   0.525   1.720   4.025 -0.6294 -0.0207  0.1081
13094TIP3    H160697   0.519   1.624   4.024 -2.6708  0.0537  0.4033
13094TIP3    H260698   0.454   1.749   3.967 -1.0660  1.3250  1.2665
13095TIP3   OH260699   0.380   5.852  13.881 -0.3343 -0.0977 -0.2273
13095TIP3    H160700   0.349   5.866  13.970 -1.3837  1.4012 -0.7707
13095TIP3    H260701   0.302   5.823  13.833 -0.0986  0.3505 -0.9028
13096TIP3   OH260702   2.532   1.205   4.775  0.1610  0.2412  0.1091
13096TIP3    H160703   2.599   1.146   4.812  1.1693  1.8841  1.0171
13096TIP3    H260704   2.582   1.275   4.733 -0.9837  1.6075  0.9541
13097TIP3   OH260705   0.090   0.657  16.150 -0.1762 -0.0447 -0.2165
13097TIP3    H160706   0.139   0.584  16.188  0.4863  1.6779  2.5477
13097TIP3    H260707   0.156   0.725  16.136 -0.8436  0.2390 -2.3573
13098TIP3   OH260708   5.173   6.550   1.151 -0.5334  0.1736  0.3024
13098TIP3    H160709   5.128   6.485   1.097 -0.2422 -0.4210  0.7685
13098TIP3    H260710   5.257   6.510   1.173 -0.6177  0.4324  1.1360
13099TIP3   OH260711   4.679   6.040   2.950  0.3475  0.1840 -1.0728
13099TIP3    H160712   4.608   6.047   2.886  0.0396 -1.2052 -0.9105
13099TIP3    H260713   4.678   6.123   2.997 -2.7189 -0.6355  0.5278
13100TIP3   OH260714   6.300   5.467   2.346 -0.4523  0.0048 -0.0478
13100TIP3    H160715   6.279   5.413   2.422 -2.1675 -0.9170 -1.1159
13100TIP3    H260716   6.394   5.454   2.332 -0.8436 -3.0001 -0.4591
13101TIP3   OH260717   0.228   0.877   4.153  0.0794 -0.3348 -0.0988
13101TIP3    H160718   0.152   0.883   4.095 -0.8972 -2.0074  0.9184
13101TIP3    H260719   0.303   0.877   4.095 -0.7435  0.1932 -1.2066
13102TIP3   OH260720   4.489   6.641  15.510  0.0288 -0.3086  0.0139
13102TIP3    H160721   4.419   6.674  15.566  1.1601  1.3397  0.5523
13102TIP3    H260722   4.460   6.663  15.421  0.9881  2.9562  0.3629
13103TIP3   OH260723   2.871   1.805   2.189 -0.2767  0.7187  0.0453
13103TIP3    H160724   2.809   1.829   2.120 -0.0562  1.4272  0.0861
13103TIP3    H260725   2.816   1.791   2.266 -0.6387 -1.1149 -0.5032
13104TIP3   OH260726   2.436   5.105   1.057 -0.1158 -0.2285  0.4641
13104TIP3    H160727   2.375   5.159   1.107  1.2982 -0.1632  2.2468
13104TIP3    H260728   2.381   5.047   1.006 -1.6597  1.0440  0.6009
13105TIP3   OH260729   5.722   1.489   1.038  0.0089 -0.1532  0.2053
13105TIP3    H160730   5.657   1.538   1.089  1.5937  0.7057  1.5116
13105TIP3    H260731   5.741   1.545   0.963  0.5288  0.4636  0.7762
13106TIP3   OH260732   4.825   3.962   4.751  0.0580 -0.4700  0.3398
13106TIP3    H160733   4.769   3.943   4.827 -3.7185  2.7152 -1.2718
13106TIP3    H260734   4.785   3.913   4.679 -0.1601  1.1824 -0.7014
13107TIP3   OH260735   1.271   1.778  16.955 -0.3407  0.4531  0.1449
13107TIP3    H160736   1.342   1.803  17.015 -0.9151  0.7712  0.7095
13107TIP3    H260737   1.219   1.858  16.945 -2.2835 -0.4556  2.0876
13108TIP3   OH260738   2.120   0.908   4.261  0.6632 -0.0650 -0.4133
13108TIP3    H160739   2.144   0.993   4.298  0.8846 -0.9515  1.6591
13108TIP3    H260740   2.046   0.879   4.315  1.1493 -1.5507 -0.4995
13109TIP3   OH260741   0.293   3.424   1.825  0.2366  0.4042  0.6652
13109TIP3    H160742   0.303   3.518   1.840  2.6476  0.2312  0.5192
13109TIP3    H260743   0.209   3.403   1.864 -0.6869  2.7344  0.0942
13110TIP3   OH260744   6.596   5.164  11.469  0.1445 -0.1760  0.0573
13110TIP3    H160745   6.628   5.210  11.546 -1.7927 -0.5537  1.1379
13110TIP3    H260746   6.507   5.196  11.456 -0.7992 -2.6107  0.0600
13111TIP3   OH260747   3.637   4.383   5.916  0.0217  0.7252  0.4386
13111TIP3    H160748   3.719   4.409   5.873  0.2309  0.0732  0.4304
13111TIP3    H260749   3.664   4.359   6.005  0.0270 -0.6070  0.0876
13112TIP3   OH260750   0.169   5.534   3.315 -0.5564 -0.4999  0.1365
13112TIP3    H160751   0.191   5.440   3.312 -0.6620 -0.5107 -2.1136
13112TIP3    H260752   0.209   5.570   3.236  0.0698  1.5342  1.3059
13113TIP3   OH260753   5.386   0.941   5.555 -0.0747 -0.0667  0.5192
13113TIP3    H160754   5.344   0.862   5.587  0.4792 -1.0931 -1.1568
13113TIP3    H260755   5.345   0.957   5.470  1.0897  0.3903  0.0209
13114TIP3   OH260756   6.561   5.521   4.926  0.6939 -0.1437  0.1419
13114TIP3    H160757   6.566   5.603   4.975 -0.8117  0.8350 -1.2083
13114TIP3    H260758   6.470   5.492   4.938  0.0332  0.5275 -2.5543
13115TIP3   OH260759   0.401   3.870  11.242  0.1017  0.1481 -0.0628
13115TIP3    H160760   0.449   3.788  11.251 -0.5265 -0.0717  1.7714
13115TIP3    H260761   0.359   3.864  11.156 -0.0319 -1.5228  0.0824
13116TIP3   OH260762   1.659   4.812   6.338 -0.2327 -0.4150  0.1905
13116TIP3    H160763   1.585   4.773   6.292  0.7691 -2.3491  0.1150
13116TIP3    H260764   1.670   4.757   6.416  0.5866  0.3641  0.6404
13117TIP3   OH260765   5.452   6.216  13.780 -0.1752 -0.1634 -0.3094
13117TIP3    H160766   5.398   6.256  13.847 -0.1317 -0.7248  0.0689
13117TIP3    H260767   5.392   6.163  13.728 -0.0828 -0.3426 -0.2345
13118TIP3   OH260768   5.938   1.897   3.853  0.2776 -0.4475 -0.3824
13118TIP3    H160769   6.003   1.923   3.788  0.6821  0.5240  0.3860
13118TIP3    H260770   5.957   1.952   3.929 -0.8268 -0.8451  0.2010
13119TIP3   OH260771   2.959   2.006   4.023  0.3194  0.1811  0.0794
13119TIP3    H160772   3.039   1.991   4.073  1.1023  1.5078 -0.7118
13119TIP3    H260773   2.900   1.935   4.050  1.2897 -0.0926  1.6241
13120TIP3   OH260774   4.165   0.921   4.808 -0.3596 -0.8220  0.3834
13120TIP3    H160775   4.070   0.927   4.795 -0.4607  1.1705  1.6288
13120TIP3    H260776   4.179   0.833   4.842 -1.6525 -1.4053 -0.4969
13121TIP3   OH260777   4.361   2.114  16.354 -0.0549  0.2873  0.3609
13121TIP3    H160778   4.274   2.111  16.314 -0.1360 -1.1636  0.6129
13121TIP3    H260779   4.358   2.047  16.422  1.3586  0.0385  0.1969
13122TIP3   OH260780   2.307   2.542  11.206  0.0606  0.0162 -0.2336
13122TIP3    H160781   2.287   2.469  11.147 -1.0934 -0.5139  0.7691
13122TIP3    H260782   2.384   2.584  11.167  0.0625 -1.0489 -1.4426
13123TIP3   OH260783   4.252   3.020   0.178  0.1515 -0.4388 -0.3089
13123TIP3    H160784   4.329   2.967   0.158  0.1856  0.0625 -1.5892
13123TIP3    H260785   4.221   3.051   0.093 -1.0460 -0.0414  0.2482
13124TIP3   OH260786   0.617   2.517   1.981 -0.3977 -0.3315 -0.1924
13124TIP3    H160787   0.642   2.518   1.888 -1.5923 -0.3931 -0.5326
13124TIP3    H260788   0.680   2.458   2.022 -0.3962 -1.0105 -1.1280
13125TIP3   OH260789   4.515   1.900  13.861  0.4528  0.2119  0.0520
13125TIP3    H160790   4.496   1.950  13.782 -1.3795 -1.1841 -0.4449
13125TIP3    H260791   4.430   1.885  13.902  1.1043 -1.1623  0.9961
13126TIP3   OH260792   2.280   5.858   1.028  0.2058 -0.1268  0.1427
13126TIP3    H160793   2.249   5.942   0.994  2.0355  0.2784 -0.6366
13126TIP3    H260794   2.297   5.805   0.950 -0.1147 -0.9197  0.6019
13127TIP3   OH260795   5.839   2.806   6.487 -0.6482  0.0129 -0.4601
13127TIP3    H160796   5.807   2.889   6.451 -0.8637 -0.0938 -0.5166
13127TIP3    H260797   5.772   2.742   6.462 -1.9895  0.2997  2.0231
13128TIP3   OH260798   6.624   1.395  14.097  0.1856  0.2101 -0.1777
13128TIP3    H160799   6.568   1.359  14.166 -0.4853  1.1848 -0.1970
13128TIP3    H260800   6.628   1.326  14.031  0.8947 -0.7667  0.8551
13129TIP3   OH260801   0.985   3.151  14.112 -0.5495 -0.3603 -0.4146
13129TIP3    H160802   1.015   3.171  14.024 -1.4667  0.9530 -0.4510
13129TIP3    H260803   0.943   3.065  14.105  0.8085 -1.0044 -0.8987
13130TIP3   OH260804   2.071   4.381  11.972  0.4640  0.4554  0.0507
13130TIP3    H160805   2.082   4.426  12.056  0.3867 -2.1100  1.5217
13130TIP3    H260806   2.109   4.294  11.986  0.2345 -0.1248 -2.5149
13131TIP3   OH260807   0.556   4.876   0.058  0.4984 -0.5504  0.9687
13131TIP3    H160808   0.561   4.859  -0.036  0.8785  0.6625  0.7535
13131TIP3    H260809   0.594   4.798   0.099  1.1112 -0.7260  0.0917
13132TIP3   OH260810   3.812   1.224  12.690  0.3736  0.2163  0.2688
13132TIP3    H160811   3.746   1.237  12.758 -1.0655  0.6075 -1.1534
13132TIP3    H260812   3.810   1.129  12.673 -1.0746  0.4170 -0.9174
13133TIP3   OH260813   1.923   3.627  11.858 -0.2486  0.7529  0.0312
13133TIP3    H160814   2.015   3.603  11.847 -0.4376 -0.4393  0.8604
13133TIP3    H260815   1.919   3.721  11.836  1.4379  1.1950  1.4813
13134TIP3   OH260816   4.747   0.809  12.503 -0.1341  0.1470 -0.0428
13134TIP3    H160817   4.765   0.758  12.424  0.0149  2.6385 -1.7262
13134TIP3    H260818   4.653   0.802  12.514  0.0253 -1.5057  0.5415
13135TIP3   OH260819   4.479   0.368  15.990  0.2358  0.2722 -0.2196
13135TIP3    H160820   4.491   0.322  15.907 -0.0193  0.5330 -0.4036
13135TIP3    H260821   4.488   0.461  15.967  3.1741  0.2579  0.5343
13136TIP3   OH260822   6.645   3.928   2.041  0.2121 -0.1385 -0.6927
13136TIP3    H160823   6.575   3.992   2.051  0.2399 -0.2087  0.0040
13136TIP3    H260824   6.636   3.896   1.951 -1.3389 -0.9399 -0.2945
13137TIP3   OH260825   4.481   5.493  13.770  0.3617 -0.1345  0.5313
13137TIP3    H160826   4.416   5.436  13.728  1.2992  0.7378 -2.3250
13137TIP3    H260827   4.563   5.445  13.764  0.6842  0.4121  0.4850
13138TIP3   OH260828   6.060   0.240   4.873  0.9097  0.7889 -0.1447
13138TIP3    H160829   6.119   0.264   4.945  0.3612  3.4158 -0.4934
13138TIP3    H260830   6.034   0.150   4.893  1.4398  1.1338  2.4705
13139TIP3   OH260831   0.974   1.864  10.846 -0.2646  0.0877  0.0777
13139TIP3    H160832   1.055   1.882  10.895  2.1365 -4.2526 -1.7688
13139TIP3    H260833   0.925   1.804  10.902 -1.1296  0.8498  0.1651
13140TIP3   OH260834   6.413   3.074   2.991  0.1776 -0.2545 -0.7762
13140TIP3    H160835   6.386   3.035   3.074  0.6544 -1.1236 -1.0062
13140TIP3    H260836   6.375   3.161   2.991  0.3587 -0.1614  0.4535
13141TIP3   OH260837   1.977   1.163  15.022 -0.3660 -0.4378 -0.2517
13141TIP3    H160838   1.907   1.124  14.971 -0.7033 -0.0748 -0.0701
13141TIP3    H260839   2.038   1.091  15.039 -0.1451 -0.5236 -1.3239
13142TIP3   OH260840   4.687   3.829   4.948 -0.3136 -0.6493  0.5185
13142TIP3    H160841   4.651   3.829   5.036 -0.6167  0.4298  0.4200
13142TIP3    H260842   4.734   3.746   4.940  2.1283  0.4002  2.6895
13143TIP3   OH260843   4.435   1.976   3.755  0.1853  0.1713 -0.7970
13143TIP3    H160844   4.429   2.066   3.723  1.1934  0.6912  0.4158
13143TIP3    H260845   4.463   1.926   3.678  0.3117  1.0153 -1.3145
13144TIP3   OH260846   3.343   1.773  16.569  0.4550  0.4694  0.4032
13144TIP3    H160847   3.285   1.735  16.504  1.2681  0.7640 -0.5159
13144TIP3    H260848   3.291   1.843  16.609  0.6932  1.8517 -1.5816
13145TIP3   OH260849   6.455   4.150  12.471  0.4575  0.0789 -0.2374
13145TIP3    H160850   6.448   4.099  12.552  0.4022  1.3214  0.5600
13145TIP3    H260851   6.465   4.240  12.500  0.2025  0.5766 -1.6286
13146TIP3   OH260852   5.305   4.744   4.738 -0.1571  0.2253  0.2227
13146TIP3    H160853   5.344   4.659   4.718 -2.8211 -0.7985 -1.0916
13146TIP3    H260854   5.339   4.803   4.671  2.1077  0.4419  1.4415
13147TIP3   OH260855   4.804   5.017   2.398  0.0381 -0.0120  0.1346
13147TIP3    H160856   4.805   4.981   2.487  0.9827  2.2471  1.1273
13147TIP3    H260857   4.850   4.952   2.345  1.4142 -0.4572  1.7601
13148TIP3   OH260858   4.116   3.981   5.133  0.0957  0.1693  0.5911
13148TIP3    H160859   4.078   4.005   5.218  1.9135 -2.2495  2.2509
13148TIP3    H260860   4.211   3.987   5.147  0.9084 -6.2459  1.1424
13149TIP3   OH260861   1.977   1.114   0.660 -0.5096 -0.0799  0.0210
13149TIP3    H160862   1.936   1.104   0.574  3.1270 -1.3347 -1.7748
13149TIP3    H260863   2.030   1.194   0.652  0.0625 -0.3470  1.0023
13150TIP3   OH260864   3.951   5.071   4.526 -0.0721 -0.6539 -0.1203
13150TIP3    H160865   4.014   5.139   4.499 -0.5585 -0.8533 -1.8719
13150TIP3    H260866   3.880   5.120   4.568  0.9282 -0.3722  1.3313
13151TIP3   OH260867   1.424   3.391   3.385 -1.1573  0.2632 -0.3786
13151TIP3    H160868   1.411   3.334   3.461 -1.5239 -3.5567 -3.0606
13151TIP3    H260869   1.341   3.387   3.337  0.0315  0.0754 -2.5100
13152TIP3   OH260870   1.474   2.193  14.044  0.2562 -0.0279 -0.3158
13152TIP3    H160871   1.529   2.161  14.115  1.4749  1.1785 -0.6739
13152TIP3    H260872   1.443   2.278  14.074 -1.4824 -0.6846 -0.1178
13153TIP3   OH260873   1.517   2.290  16.717 -0.7967  0.2309 -0.4118
13153TIP3    H160874   1.547   2.326  16.633 -1.9998  0.3966 -0.7877
13153TIP3    H260875   1.596   2.286  16.770 -0.2341  1.3575 -1.1080
13154TIP3   OH260876   3.223   3.479  15.168 -0.4457  0.3039  0.0120
13154TIP3    H160877   3.218   3.547  15.235  1.0030 -1.9566  2.5981
13154TIP3    H260878   3.143   3.427  15.180 -0.3732  0.1213 -0.2824
13155TIP3   OH260879   2.902   2.254   3.169  0.3026  0.3200  0.4232
13155TIP3    H160880   2.822   2.268   3.119  0.8163  0.2824 -0.4314
13155TIP3    H260881   2.914   2.334   3.220  0.2937  0.7585 -0.2577
13156TIP3   OH260882   2.425   2.578  12.600  0.2353 -0.2118  0.0151
13156TIP3    H160883   2.362   2.507  12.594 -1.5477  1.3543 -1.2125
13156TIP3    H260884   2.464   2.569  12.687 -0.4255 -2.2486  0.1454
13157TIP3   OH260885   0.505   5.669  15.533  0.0115 -0.0159 -0.2034
13157TIP3    H160886   0.513   5.708  15.620 -0.1615 -0.0614 -0.1659
13157TIP3    H260887   0.454   5.589  15.548  0.8538 -0.5646 -0.1865
13158TIP3   OH260888   4.037   1.666   1.952 -0.4114  0.1376 -0.2315
13158TIP3    H160889   3.997   1.751   1.936 -1.5345 -0.4355 -0.5442
13158TIP3    H260890   3.965   1.603   1.945  0.0706 -0.6883  1.6753
13159TIP3   OH260891   0.836   5.029  11.410 -0.3292 -0.1694  0.5720
13159TIP3    H160892   0.746   5.030  11.376 -0.4451 -1.1717  0.8019
13159TIP3    H260893   0.849   5.117  11.446 -1.4855 -0.2297  1.1915
13160TIP3   OH260894   5.003   4.463  13.582  0.6014 -0.3125  0.3651
13160TIP3    H160895   5.073   4.463  13.517  1.8171  1.3603  1.5845
13160TIP3    H260896   4.924   4.441  13.533  1.1402  2.5959 -2.0998
13161TIP3   OH260897   2.370   6.732  14.699  0.3650  0.2752  0.0108
13161TIP3    H160898   2.446   6.673  14.699  0.8073  0.8314 -0.5553
13161TIP3    H260899   2.294   6.674  14.698  0.7647 -0.3345 -3.0152
13162TIP3   OH260900   4.957   1.075  14.169 -0.4533  0.3764 -0.5259
13162TIP3    H160901   4.863   1.054  14.170 -0.6626  1.2986  0.0751
13162TIP3    H260902   4.994   1.023  14.240  0.0126 -2.1447 -2.4749
13163TIP3   OH260903   2.745   1.634  12.677  0.3983 -0.2288  0.0580
13163TIP3    H160904   2.715   1.666  12.592  0.4462  0.4754  0.2950
13163TIP3    H260905   2.777   1.713  12.722 -0.1432 -0.4966  0.9435
13164TIP3   OH260906   4.722   1.268   2.578 -1.3894 -0.4392 -0.0459
13164TIP3    H160907   4.783   1.200   2.605 -0.9627  0.0175  0.1610
13164TIP3    H260908   4.667   1.227   2.512 -0.7262 -0.8034 -0.3756
13165TIP3   OH260909   1.035   6.636   1.036 -0.1722  0.4735 -0.3182
13165TIP3    H160910   1.119   6.680   1.025  0.5984 -1.2677 -1.9659
13165TIP3    H260911   0.981   6.669   0.964  0.0897 -0.5099 -0.9823
13166TIP3   OH260912   1.830   4.478   2.235  0.1120 -0.5978  0.3811
13166TIP3    H160913   1.850   4.570   2.247  3.9003 -1.0517 -0.8996
13166TIP3    H260914   1.868   4.435   2.311  0.5690 -1.2668 -0.2098
13167TIP3   OH260915   6.467   0.898  15.934 -0.5818  0.1337  0.1373
13167TIP3    H160916   6.497   0.909  15.844  0.3994  2.1448  0.6510
13167TIP3    H260917   6.376   0.928  15.933 -1.0650 -1.2748 -0.4477
13168TIP3   OH260918   6.587   6.380  15.934  0.1250  0.4806  0.5822
13168TIP3    H160919   6.535   6.345  15.861 -1.4850  0.2297  1.7875
13168TIP3    H260920   6.632   6.456  15.898 -2.7414  2.0040 -0.0345
13169TIP3   OH260921   5.896   6.786   2.771  0.0758 -0.0742 -0.0609
13169TIP3    H160922   5.837   6.721   2.810 -0.4819  0.1653 -0.4806
13169TIP3    H260923   5.840   6.836   2.712  0.6898  0.2214 -0.4028
13170TIP3   OH260924   1.059   5.172  14.804  0.4060 -0.4900  0.2373
13170TIP3    H160925   1.097   5.086  14.818  1.9127  0.3278  1.5244
13170TIP3    H260926   0.964   5.157  14.805  0.6043 -1.9217  2.0200
13171TIP3   OH260927   0.756   2.989  16.791  0.0191 -0.7586 -0.8076
13171TIP3    H160928   0.829   2.996  16.853  0.0488 -2.0979 -0.6588
13171TIP3    H260929   0.754   3.074  16.747  2.7977 -1.2100 -2.0397
13172TIP3   OH260930   1.451   1.299  15.194  0.1258 -0.5243 -0.0221
13172TIP3    H160931   1.460   1.334  15.283  0.0675 -2.9726  1.0090
13172TIP3    H260932   1.423   1.375  15.142  0.1653  0.9881  2.0165
13173TIP3   OH260933   4.139   3.076  11.529 -0.1747 -0.8882  0.1555
13173TIP3    H160934   4.092   3.052  11.450  1.0030  2.0053 -1.5501
13173TIP3    H260935   4.220   3.024  11.525 -1.6924 -3.5478  1.5142
13174TIP3   OH260936   2.195   6.668   6.520 -0.4451 -1.4850 -0.3993
13174TIP3    H160937   2.236   6.668   6.434  0.6686 -1.2817  0.1156
13174TIP3    H260938   2.130   6.738   6.516  0.1121 -0.9867 -0.8387
13175TIP3   OH260939   1.802   0.272  15.550  0.4170 -0.4114 -0.2694
13175TIP3    H160940   1.870   0.224  15.597  0.8748  0.3004 -0.1752
13175TIP3    H260941   1.728   0.212  15.546  1.1031 -1.2687 -0.5204
13176TIP3   OH260942   3.982   4.329   3.764  0.0600 -0.5816  0.3532
13176TIP3    H160943   3.994   4.296   3.675  0.1671 -0.5704  0.3630
13176TIP3    H260944   3.902   4.380   3.760  0.8705  0.6973 -0.1072
13177TIP3   OH260945   3.900   2.578   6.632  0.5523  0.1947  0.2067
13177TIP3    H160946   3.903   2.547   6.541 -0.6721 -0.7667  0.4615
13177TIP3    H260947   3.938   2.507   6.683 -1.7691 -0.7737  0.7394
13178TIP3   OH260948   5.138   1.928  17.208 -0.4381 -0.5809  0.1465
13178TIP3    H160949   5.230   1.956  17.209  0.5906 -3.4916 -1.5480
13178TIP3    H260950   5.112   1.934  17.116 -1.1010 -2.1197  0.2050
13179TIP3   OH260951   4.760   5.568   0.669  0.2947  0.1198  0.5751
13179TIP3    H160952   4.752   5.661   0.691 -1.0506  0.0886  0.2805
13179TIP3    H260953   4.673   5.532   0.685  0.3814 -0.7656 -0.7892
13180TIP3   OH260954   4.318   4.581  12.394 -0.1579  0.4048  0.1693
13180TIP3    H160955   4.326   4.651  12.459  1.3308 -0.4701  0.9903
13180TIP3    H260956   4.308   4.501  12.446  0.1047 -0.2022 -0.7008
13181TIP3   OH260957   3.807   3.835   6.335  0.0987 -0.3362 -0.1521
13181TIP3    H160958   3.786   3.925   6.312 -0.4811  0.1113  1.8773
13181TIP3    H260959   3.724   3.798   6.367  0.2028 -1.7784 -1.4320
13182TIP3   OH260960   3.636   5.735   3.422  0.1512 -0.3114  0.6685
13182TIP3    H160961   3.643   5.744   3.517  0.4621 -0.1179  0.6300
13182TIP3    H260962   3.560   5.789   3.398  0.4298  0.1145  0.7409
13183TIP3   OH260963   6.720   4.150   3.232 -0.7964  0.3677  0.1006
13183TIP3    H160964   6.760   4.083   3.288  0.2159  0.9642  0.1185
13183TIP3    H260965   6.746   4.125   3.143  0.2461  1.1409  0.1664
13184TIP3   OH260966   1.138   4.816   5.622  0.3225  0.4215 -0.1606
13184TIP3    H160967   1.117   4.885   5.560  3.2726  0.0993 -1.7056
13184TIP3    H260968   1.208   4.853   5.676 -1.7548  0.4813  2.7184
13185TIP3   OH260969   6.090   2.260   2.934  0.3255 -0.6826  0.3275
13185TIP3    H160970   6.026   2.311   2.983  1.5345  1.8654 -0.5655
13185TIP3    H260971   6.140   2.213   3.001 -1.2268 -1.2112  1.1467
13186TIP3   OH260972   4.736   1.933  16.782  0.3507 -0.3446  0.0295
13186TIP3    H160973   4.733   1.868  16.712 -2.0816  0.4520 -0.7074
13186TIP3    H260974   4.669   1.905  16.845 -0.8162  1.4228 -0.3472
13187TIP3   OH260975   0.508   1.074  17.105  0.1083  0.1288  0.1651
13187TIP3    H160976   0.497   1.154  17.157  1.3991  0.9937 -0.8281
13187TIP3    H260977   0.582   1.093  17.047 -0.6577 -1.1631 -1.3042
13188TIP3   OH260978   3.429   3.566   2.603  0.1404 -0.6538  0.3576
13188TIP3    H160979   3.405   3.644   2.553 -2.9763 -1.1323  0.8924
13188TIP3    H260980   3.395   3.493   2.550  1.3895 -1.5324  0.7349
13189TIP3   OH260981   2.173   2.387  12.086 -0.1904 -0.2606 -0.4144
13189TIP3    H160982   2.162   2.294  12.066  1.0642 -0.5660  0.1812
13189TIP3    H260983   2.231   2.420  12.018  0.8203 -0.3596  0.3678
13190TIP3   OH260984   0.992   2.062   2.590 -0.3774 -0.7969  0.0607
13190TIP3    H160985   1.061   1.999   2.569 -0.6448 -1.4780  1.1347
13190TIP3    H260986   0.976   2.109   2.508  0.6418 -1.3307 -0.4586
13191TIP3   OH260987   5.528   4.738   1.253 -0.5029  0.3064  0.1200
13191TIP3    H160988   5.451   4.766   1.204  0.2498 -0.1805 -1.4073
13191TIP3    H260989   5.597   4.732   1.187  0.5438 -0.4235  1.2499
13192TIP3   OH260990   1.085   5.486   3.122  0.3163 -0.3804 -0.4566
13192TIP3    H160991   1.162   5.477   3.179  0.7404 -3.4495 -1.3429
13192TIP3    H260992   1.113   5.449   3.038 -1.8133 -0.5646 -1.1280
13193TIP3   OH260993   5.657   1.026   1.731 -1.0019 -0.3683  0.0404
13193TIP3    H160994   5.678   0.953   1.673  0.8105 -0.0968  0.2868
13193TIP3    H260995   5.693   1.103   1.687 -1.6594  0.1836  0.4399
13194TIP3   OH260996   6.348   0.616  14.964 -0.4009 -0.1639  0.2723
13194TIP3    H160997   6.414   0.625  15.033 -0.3777  1.6753  0.0764
13194TIP3    H260998   6.265   0.631  15.008 -0.3411  1.6691 -0.1442
13195TIP3   OH260999   6.503   4.517  12.139  0.0238 -0.5399  0.1692
13195TIP3    H161000   6.500   4.441  12.080  1.4487 -0.1582 -0.4179
13195TIP3    H261001   6.451   4.584  12.095 -0.8190 -0.9932  0.4507
13196TIP3   OH261002   0.913   0.792  14.365  0.2369  0.4871 -0.9241
13196TIP3    H161003   1.002   0.788  14.400  0.1263 -0.4950 -0.7386
13196TIP3    H261004   0.898   0.706  14.328 -0.5629  0.7204 -1.1579
13197TIP3   OH261005   3.291   0.374   4.707  0.3159  0.0018  0.1878
13197TIP3    H161006   3.345   0.447   4.677  1.1905 -0.5386  0.4030
13197TIP3    H261007   3.201   0.402   4.690  0.3973  2.3344  2.8556
13198TIP3   OH261008   3.646   4.507   4.152 -0.2777 -0.5953 -0.6132
13198TIP3    H161009   3.700   4.585   4.162  0.3260 -0.6993 -2.5767
13198TIP3    H261010   3.637   4.496   4.057 -0.6275 -2.7050 -0.3876
13199TIP3   OH261011   3.785   1.521  12.618 -0.5764  0.4951  0.0469
13199TIP3    H161012   3.836   1.496  12.695  1.0393 -0.5663 -1.2853
13199TIP3    H261013   3.694   1.504  12.643  0.0958 -3.0615  0.6604
13200TIP3   OH261014   3.219   1.261  15.872 -0.0780 -0.2317  0.3860
13200TIP3    H161015   3.228   1.301  15.785 -0.6275  0.9649  0.8711
13200TIP3    H261016   3.157   1.189  15.858 -0.3075  0.0700 -0.1824
13201TIP3   OH261017   4.075   4.975  16.587 -0.5601  0.3740  0.4884
13201TIP3    H161018   4.073   4.896  16.642 -0.8864 -0.4373 -0.6362
13201TIP3    H261019   4.167   5.000  16.583 -0.1104 -1.2570 -0.8691
13202TIP3   OH261020   2.498   5.249   4.658  0.2782 -0.6100  0.2800
13202TIP3    H161021   2.479   5.172   4.712 -1.6574 -0.2790  0.1542
13202TIP3    H261022   2.453   5.232   4.576  1.4391 -0.1704 -0.4748
13203TIP3   OH261023   1.337   4.436  14.909  0.0055 -0.5598  0.0309
13203TIP3    H161024   1.273   4.408  14.844 -1.4395  0.7312  0.8337
13203TIP3    H261025   1.285   4.482  14.976  1.7756  0.5694  0.6967
13204TIP3   OH261026   1.001   0.395  10.943  0.0905  0.3414 -0.2859
13204TIP3    H161027   1.005   0.331  11.014  0.9234  1.3029  0.5526
13204TIP3    H261028   0.908   0.406  10.926 -0.0999 -0.2479  0.3297
13205TIP3   OH261029   2.052   1.341  14.780  0.3362 -0.0136 -0.3950
13205TIP3    H161030   1.986   1.274  14.764  0.9900 -1.2539  1.7433
13205TIP3    H261031   2.115   1.300  14.840  0.5411  2.6214  1.3753
13206TIP3   OH261032   1.447   0.545  16.244 -0.6675  0.0085 -0.2277
13206TIP3    H161033   1.439   0.638  16.224  1.2775  0.2534 -0.0311
13206TIP3    H261034   1.357   0.516  16.257 -1.2337  2.3350  1.9274
13207TIP3   OH261035   0.185   3.466  14.833  0.4008 -0.0726  0.0979
13207TIP3    H161036   0.158   3.503  14.749  0.3086  0.0286  0.1716
13207TIP3    H261037   0.255   3.523  14.863  0.3548 -0.0405  0.1443
13208TIP3   OH261038   2.884   2.778   1.500 -0.2810 -0.6109 -0.6271
13208TIP3    H161039   2.963   2.832   1.493  1.0169 -2.3138 -0.0673
13208TIP3    H261040   2.902   2.702   1.444 -0.8394 -1.7685  0.6905
13209TIP3   OH261041   6.238   0.138  13.943 -0.4048  0.1241 -0.3500
13209TIP3    H161042   6.327   0.172  13.937 -1.0334  1.6909 -1.5800
13209TIP3    H261043   6.238   0.059  13.889  0.2582  0.0505 -0.2471
13210TIP3   OH261044   5.564   4.534   5.493 -0.4640  0.2961  0.0500
13210TIP3    H161045   5.493   4.558   5.434 -0.7373  4.1806  1.6840
13210TIP3    H261046   5.526   4.541   5.581  1.4365  0.5885  0.8986
13211TIP3   OH261047   1.975   5.044   0.278  0.0655  0.2325  0.0152
13211TIP3    H161048   2.029   5.006   0.347 -0.0096  2.4095  1.3678
13211TIP3    H261049   2.037   5.093   0.223  0.0952 -1.3124 -1.4029
13212TIP3   OH261050   6.241   5.349  14.245 -0.5250 -0.0565  0.0320
13212TIP3    H161051   6.242   5.429  14.191 -1.2502  1.2512  1.8383
13212TIP3    H261052   6.330   5.342  14.279 -0.2370 -0.5208 -0.7831
13213TIP3   OH261053   4.205   0.846   1.746 -0.2067  0.5119  0.5430
13213TIP3    H161054   4.265   0.811   1.812 -1.7513  1.3737  2.4988
13213TIP3    H261055   4.144   0.774   1.729  0.7517 -0.0360 -0.7223
13214TIP3   OH261056   6.721   5.296   0.973  0.1063  0.1895 -0.4879
13214TIP3    H161057   6.667   5.218   0.966  0.2742  0.1411 -1.4150
13214TIP3    H261058   6.809   5.264   0.993 -0.2975  0.3043  1.6674
13215TIP3   OH261059   0.773   2.237  13.667 -0.4712  0.2960  0.5356
13215TIP3    H161060   0.711   2.235  13.595 -0.2298  1.3756  0.2796
13215TIP3    H261061   0.850   2.189  13.634  0.2350  2.0812 -0.5226
13216TIP3   OH261062   0.006   5.053   4.568  0.2166  0.5115 -0.3621
13216TIP3    H161063   0.081   5.026   4.621 -0.4456 -2.7369 -0.8493
13216TIP3    H261064  -0.068   5.005   4.605 -0.8973  0.7445 -2.1717
13217TIP3   OH261065   6.580   1.779   4.668 -0.3224  0.8188  0.1678
13217TIP3    H161066   6.627   1.713   4.718 -0.1547  1.0663  0.3367
13217TIP3    H261067   6.528   1.729   4.605  1.2043  0.5977 -0.9526
13218TIP3   OH261068   5.835   3.353  14.565 -0.1506 -0.6331 -0.0161
13218TIP3    H161069   5.873   3.397  14.642  3.3013 -1.8320 -0.8855
13218TIP3    H261070   5.827   3.422  14.500  1.1472 -0.4221  0.0217
13219TIP3   OH261071   3.769   0.742  13.940 -1.2536  0.4346  0.2601
13219TIP3    H161072   3.730   0.805  14.002 -0.4676  1.2294 -0.0220
13219TIP3    H261073   3.760   0.785  13.855 -0.4497  0.2991  0.1005
13220TIP3   OH261074   4.925   2.105   2.950 -0.0149  0.4688  0.3577
13220TIP3    H161075   4.972   2.185   2.975  3.5324 -0.4343 -2.5087
13220TIP3    H261076   4.840   2.136   2.919  0.2263  2.7645  1.7534
13221TIP3   OH261077   5.934   5.365  12.845 -0.0256  0.2136  0.0361
13221TIP3    H161078   5.950   5.273  12.866 -2.3188 -0.6363 -1.4705
13221TIP3    H261079   5.875   5.396  12.914 -1.4753 -0.3347 -0.8985
13222TIP3   OH261080   6.071   2.207  13.294 -0.0293 -0.6271 -0.2054
13222TIP3    H161081   6.066   2.128  13.241  2.2960 -2.5460  2.1170
13222TIP3    H261082   6.083   2.174  13.384 -1.4112  2.4037  1.2301
13223TIP3   OH261083   3.570   3.866  15.677  0.4395  0.5142 -0.1904
13223TIP3    H161084   3.646   3.834  15.627  0.3535 -2.1628  1.2090
13223TIP3    H261085   3.596   3.954  15.705  3.5282 -0.6546  1.0782
13224TIP3   OH261086   3.888   6.071  15.953 -0.0492 -0.5280  0.4724
13224TIP3    H161087   3.816   6.055  16.015 -0.6522 -0.9460 -0.3199
13224TIP3    H261088   3.924   5.985  15.935 -0.4526 -0.5132 -0.4316
13225TIP3   OH261089   2.499   1.523  15.112  0.3378 -0.3555  0.0416
13225TIP3    H161090   2.418   1.575  15.105 -0.3879 -1.5361 -0.7887
13225TIP3    H261091   2.474   1.446  15.162  0.3976 -1.6675 -1.8187
13226TIP3   OH261092   4.813   0.494   5.622  0.0421 -0.1677  0.0932
13226TIP3    H161093   4.749   0.528   5.683  0.1638  1.0004 -0.4082
13226TIP3    H261094   4.767   0.424   5.575 -0.7070  0.3160  0.0894
13227TIP3   OH261095   1.693   5.499  11.787 -0.2638  0.0772  0.1198
13227TIP3    H161096   1.644   5.431  11.833 -0.5297  0.4856  0.4541
13227TIP3    H261097   1.645   5.512  11.705  0.3138 -0.7799 -0.3671
13228TIP3   OH261098   6.774   6.694  12.531  0.0649 -0.0906  0.1389
13228TIP3    H161099   6.801   6.615  12.577  0.1751  0.7595  1.6095
13228TIP3    H261100   6.806   6.682  12.442 -0.7398 -2.1032  0.0661
13229TIP3   OH261101   0.058   1.161  15.955 -0.1266  0.6103  0.1391
13229TIP3    H161102  -0.001   1.087  15.971  1.0291 -0.7684 -1.5630
13229TIP3    H261103   0.145   1.127  15.975  0.3412  1.7669  0.1084
13230TIP3   OH261104   6.362   3.930   5.749  0.7811  0.5151  0.2137
13230TIP3    H161105   6.429   3.981   5.704  1.5875 -0.5981  0.1127
13230TIP3    H261106   6.309   3.995   5.796  0.8837  1.5520 -1.0604
13231TIP3   OH261107   5.575   5.797   6.238  0.2468 -0.0967 -0.5926
13231TIP3    H161108   5.482   5.818   6.247  0.5492  1.8107 -1.3749
13231TIP3    H261109   5.577   5.705   6.212 -1.5364  0.3361 -2.4776
13232TIP3   OH261110   2.245   6.507  14.221  0.3240 -0.2184  0.8568
13232TIP3    H161111   2.256   6.464  14.137  0.5428 -0.4511  1.0027
13232TIP3    H261112   2.164   6.557  14.212 -0.5924 -1.6072  1.0755
13233TIP3   OH261113   5.466   5.329  13.783 -0.5658  0.2361 -0.3214
13233TIP3    H161114   5.502   5.388  13.717 -0.0436 -2.2526 -2.3815
13233TIP3    H261115   5.542   5.294  13.829 -0.7508 -0.3597 -0.4683
13234TIP3   OH261116   3.632   4.279   1.919  0.4857 -0.1074 -0.1465
13234TIP3    H161117   3.653   4.255   2.009  0.5571 -0.9064 -0.3705
13234TIP3    H261118   3.692   4.350   1.898  0.6560 -0.1055  0.3472
13235TIP3   OH261119   0.552   4.451  14.760  0.4593  0.1191  0.3961
13235TIP3    H161120   0.612   4.376  14.760  0.0794 -0.2015 -0.4212
13235TIP3    H261121   0.491   4.432  14.688 -1.0906  0.0493  1.6743
13236TIP3   OH261122   4.685   5.498  15.132  0.3503  0.7278  0.5322
13236TIP3    H161123   4.779   5.507  15.119  0.2115  1.4125 -0.0496
13236TIP3    H261124   4.664   5.410  15.099  1.0417 -0.1295  2.2460
13237TIP3   OH261125   0.704   3.831   3.821 -0.3928  0.3525  0.2861
13237TIP3    H161126   0.653   3.787   3.753 -0.6282 -0.5908  1.0437
13237TIP3    H261127   0.638   3.874   3.876 -0.4178 -0.9280  1.3101
13238TIP3   OH261128   1.083   2.489   2.887 -0.0308  1.0193  0.5726
13238TIP3    H161129   1.065   2.411   2.836  0.3657  1.1922  0.1575
13238TIP3    H261130   1.168   2.520   2.854  0.5299  0.7931  1.7593
13239TIP3   OH261131   5.949   6.163  13.780 -0.0559  0.0099 -0.7738
13239TIP3    H161132   5.861   6.199  13.769 -0.4147 -1.0983 -1.6998
13239TIP3    H261133   5.940   6.070  13.762  1.1575 -0.2757 -0.0418
13240TIP3   OH261134   3.941   1.057  15.716 -0.4748 -0.1338  0.0996
13240TIP3    H161135   3.880   0.983  15.710  1.8119 -2.0622 -0.7777
13240TIP3    H261136   3.979   1.050  15.803 -1.5699  1.2134  0.7359
13241TIP3   OH261137   5.104   6.672   4.023 -0.0012 -0.0145 -0.1473
13241TIP3    H161138   5.039   6.623   4.075  0.1292  0.1456  0.1654
13241TIP3    H261139   5.084   6.648   3.932 -0.2853 -0.2284 -0.0310
13242TIP3   OH261140   4.891   1.250  16.833  0.5371 -0.0762 -0.2062
13242TIP3    H161141   4.803   1.229  16.802  0.3622 -0.1867  0.3435
13242TIP3    H261142   4.885   1.341  16.861  0.6471 -0.0268 -0.3464
13243TIP3   OH261143   5.465   4.034   2.807 -0.2127 -0.1990 -0.3139
13243TIP3    H161144   5.486   3.944   2.832 -0.3987 -0.1324  0.0960
13243TIP3    H261145   5.379   4.050   2.846 -0.0559  0.2474 -0.1430
13244TIP3   OH261146   3.405   1.350  11.904 -0.0060 -0.1558  0.1115
13244TIP3    H161147   3.441   1.304  11.980  0.6183  0.4288  0.1804
13244TIP3    H261148   3.333   1.402  11.940 -0.5911 -0.9168  0.0645
13245TIP3   OH261149   3.587   2.808   2.268 -0.1244 -0.1984  0.6405
13245TIP3    H161150   3.644   2.790   2.192 -2.0803  0.0237 -0.9698
13245TIP3    H261151   3.601   2.901   2.286 -2.9560  1.0786 -2.5739
13246TIP3   OH261152   3.609   1.805   4.086  0.0216 -0.0976 -0.2209
13246TIP3    H161153   3.546   1.874   4.106  0.8425  0.6170  0.0189
13246TIP3    H261154   3.560   1.724   4.090 -0.8329  0.4299  0.1316
13247TIP3   OH261155   2.457   0.616  15.433 -0.4636 -0.6577  0.3527
13247TIP3    H161156   2.505   0.609  15.350 -1.4589  0.3892 -0.3416
13247TIP3    H261157   2.495   0.692  15.476 -1.4345  0.1553 -0.1843
13248TIP3   OH261158   5.241   6.501  15.299 -0.2120 -0.1469  0.3348
13248TIP3    H161159   5.215   6.423  15.251 -0.2090 -0.1880  0.4003
13248TIP3    H261160   5.314   6.472  15.355 -0.4821 -0.1961  0.6669
13249TIP3   OH261161   1.182   2.092   1.381  0.0287  0.1226  0.5140
13249TIP3    H161162   1.262   2.039   1.383 -0.7760 -1.1665 -0.2956
13249TIP3    H261163   1.154   2.096   1.473  0.0374 -0.9806  0.5776
13250TIP3   OH261164   1.735   3.282  14.703  0.0883  0.0073  0.1330
13250TIP3    H161165   1.732   3.190  14.728  1.2495 -0.1107 -0.1155
13250TIP3    H261166   1.780   3.326  14.775  1.5097  0.0083 -0.7196
13251TIP3   OH261167   5.711   3.922   4.479 -0.0029  0.7428  0.3556
13251TIP3    H161168   5.771   3.953   4.411  0.1533  0.6720  0.4614
13251TIP3    H261169   5.692   4.000   4.532  1.8181  0.3227  1.7248
13252TIP3   OH261170   1.892   4.751   2.413 -0.0529  0.4037  0.0248
13252TIP3    H161171   1.854   4.836   2.432  0.0732  0.0012  2.3999
13252TIP3    H261172   1.986   4.768   2.404 -0.1458  0.6470 -0.5026
13253TIP3   OH261173   5.255   1.809   1.448  0.0396  0.2760  0.7118
13253TIP3    H161174   5.260   1.737   1.385  2.0809  0.4262  0.6297
13253TIP3    H261175   5.163   1.810   1.477 -0.3087 -1.5515 -0.1926
13254TIP3   OH261176   6.544   0.940   1.925  0.3331  0.4036  0.0493
13254TIP3    H161177   6.635   0.910   1.937  0.4783  0.4905 -0.8055
13254TIP3    H261178   6.511   0.886   1.853 -0.2112  0.5608  0.1826
13255TIP3   OH261179   6.623   1.539  14.477  0.0204 -0.4240 -0.4174
13255TIP3    H161180   6.558   1.477  14.442 -0.6957  0.7541 -1.2418
13255TIP3    H261181   6.706   1.491  14.473 -0.3196 -0.9303 -2.1368
13256TIP3   OH261182   2.607   6.429  14.545  0.4137  0.2944 -0.1158
13256TIP3    H161183   2.539   6.495  14.535 -1.2278 -1.3307 -0.1268
13256TIP3    H261184   2.581   6.358  14.487  2.6058 -0.0476 -0.7873
13257TIP3   OH261185   4.650   4.666  12.646 -0.3318 -0.4201 -0.2407
13257TIP3    H161186   4.694   4.741  12.686  0.4224 -0.7739 -0.3937
13257TIP3    H261187   4.647   4.687  12.553  0.6674 -0.9514 -0.4095
13258TIP3   OH261188   0.700   2.903   0.895  0.2241  0.3276 -0.3670
13258TIP3    H161189   0.680   2.809   0.903  1.4367  0.2168  2.5334
13258TIP3    H261190   0.790   2.906   0.862  0.5583  0.4191  0.5326
13259TIP3   OH261191   5.739   4.346   4.605 -0.0428  0.1239 -0.7209
13259TIP3    H161192   5.696   4.326   4.522 -1.0881  0.0193 -0.1727
13259TIP3    H261193   5.793   4.269   4.624 -0.1286 -0.0275 -1.0941
13260TIP3   OH261194   4.033   3.011  11.286 -0.5716 -0.3376 -0.9074
13260TIP3    H161195   3.967   3.080  11.296  0.0023  0.2310 -1.0096
13260TIP3    H261196   4.100   3.050  11.230  1.2497  0.1046  1.4384
13261TIP3   OH261197   1.156   3.447  13.541 -0.3541 -0.2654  0.2035
13261TIP3    H161198   1.187   3.536  13.528 -0.2276 -0.0665  1.7386
13261TIP3    H261199   1.070   3.446  13.498 -0.8345  0.9281  1.0518
13262TIP3   OH261200   2.304   2.318  16.275  0.4204 -0.0614  0.1363
13262TIP3    H161201   2.279   2.337  16.365 -2.0464 -0.7233 -0.3370
13262TIP3    H261202   2.393   2.284  16.282  0.4130  0.2015  2.2711
13263TIP3   OH261203   5.942   3.842   1.059 -0.4416  0.1544 -0.3359
13263TIP3    H161204   5.895   3.849   0.976 -0.2528 -1.5805 -0.6192
13263TIP3    H261205   5.873   3.851   1.125 -0.6745  0.9609 -0.6655
13264TIP3   OH261206   2.671   4.594   4.352  0.0421 -0.7516  0.7858
13264TIP3    H161207   2.760   4.583   4.386  0.1651  0.7450  0.9883
13264TIP3    H261208   2.621   4.627   4.426 -0.4880 -0.7452  0.4285
13265TIP3   OH261209   5.918   0.182  11.373 -0.0746 -0.0022  0.7193
13265TIP3    H161210   5.980   0.237  11.324 -1.3329  0.1243 -0.8104
13265TIP3    H261211   5.972   0.139  11.439  1.3124  1.5146  0.6603
13266TIP3   OH261212   0.389   5.041  13.425  0.0548 -0.1774 -0.5325
13266TIP3    H161213   0.459   5.045  13.359  0.9810 -0.3044  0.4059
13266TIP3    H261214   0.381   5.131  13.457  0.2404 -0.2767 -0.1972
13267TIP3   OH261215   0.866   3.511  12.612  0.0214  0.7868 -0.3680
13267TIP3    H161216   0.793   3.540  12.557  0.1210  1.5200 -0.1348
13267TIP3    H261217   0.875   3.418  12.593 -1.8620  0.3473  0.5810
13268TIP3   OH261218   6.574   6.494   6.778  0.0961 -0.3789 -0.4617
13268TIP3    H161219   6.666   6.512   6.795  0.0535 -1.9065  1.8849
13268TIP3    H261220   6.528   6.574   6.802  0.7328  0.2165 -1.1668
13269TIP3   OH261221   2.290   2.525  16.087  0.0493  0.1592  0.0448
13269TIP3    H161222   2.284   2.506  16.180 -2.9427  1.3016  0.1923
13269TIP3    H261223   2.260   2.444  16.044  0.0022  0.1301  0.1327
13270TIP3   OH261224   1.763   3.347  12.427  0.3600  0.2165  0.0209
13270TIP3    H161225   1.791   3.276  12.369  0.6707 -0.3718  0.8809
13270TIP3    H261226   1.820   3.420  12.405 -0.7442  0.6349 -1.7309
13271TIP3   OH261227   5.177   3.874  11.501 -0.2058  0.5249  0.0683
13271TIP3    H161228   5.143   3.956  11.465 -1.1855  1.5547  3.0601
13271TIP3    H261229   5.102   3.831  11.540  0.7678 -0.5277  0.8522
13272TIP3   OH261230   6.297   3.073  10.994  0.3657 -0.5306 -0.2018
13272TIP3    H161231   6.273   3.165  11.005 -1.0162 -0.7204 -1.3854
13272TIP3    H261232   6.253   3.028  11.067 -0.2455 -0.4474 -0.5116
13273TIP3   OH261233   2.742   0.877  15.274  0.3499  0.0861 -0.6788
13273TIP3    H161234   2.803   0.806  15.294  0.8530  0.8709  0.6946
13273TIP3    H261235   2.721   0.865  15.181 -1.4382 -3.2826 -0.0184
13274TIP3   OH261236   0.263   2.520   4.845 -0.5583  0.1863  0.5448
13274TIP3    H161237   0.248   2.463   4.920  0.7152 -1.2226 -0.2247
13274TIP3    H261238   0.282   2.606   4.884 -2.2872  0.0798  1.7195
13275TIP3   OH261239   2.318   6.043   5.749  0.5915  0.0312 -0.0000
13275TIP3    H161240   2.285   5.990   5.821 -0.7127  0.0457 -0.5554
13275TIP3    H261241   2.391   5.993   5.714 -0.0022 -0.9350  0.1088
13276TIP3   OH261242   3.488   6.206   6.047  0.0610 -0.1260 -0.1493
13276TIP3    H161243   3.505   6.284   5.995 -1.7094 -1.1767 -2.5572
13276TIP3    H261244   3.428   6.235   6.115  0.9310  0.9463  0.1855
13277TIP3   OH261245   1.042   6.780   4.548  0.4807  0.6091  0.0580
13277TIP3    H161246   1.010   6.731   4.625  0.6066  1.2059  0.4958
13277TIP3    H261247   1.122   6.734   4.523 -1.5777 -2.0962 -2.2153
13278TIP3   OH261248   3.338   5.994  15.231 -0.1263  0.1056 -0.3212
13278TIP3    H161249   3.420   5.946  15.243  0.1948  0.4774 -0.9566
13278TIP3    H261250   3.270   5.932  15.257  0.3353 -0.3593 -0.1994
13279TIP3   OH261251   0.450   4.630  17.009 -0.2004  0.1311 -0.1418
13279TIP3    H161252   0.356   4.615  17.018 -0.1365 -0.2751 -0.1142
13279TIP3    H261253   0.463   4.645  16.915  0.1115 -2.9030 -0.6827
13280TIP3   OH261254   0.388   1.911  15.205  0.1530 -0.3220  0.1171
13280TIP3    H161255   0.397   1.893  15.111 -2.7509 -0.4749 -0.2117
13280TIP3    H261256   0.321   1.979  15.210  1.5839  1.0599  2.0453
13281TIP3   OH261257   6.235   4.164  13.379  0.3007 -0.2443 -0.2727
13281TIP3    H161258   6.237   4.089  13.319 -0.9037  0.5267 -1.3299
13281TIP3    H261259   6.327   4.188  13.391  0.6444 -1.2715 -0.6927
13282TIP3   OH261260   6.141   2.857   1.122  0.3843 -0.6258 -0.5968
13282TIP3    H161261   6.201   2.806   1.068  1.0127  2.0345 -2.6153
13282TIP3    H261262   6.185   2.940   1.137 -2.0810  0.8242 -0.7411
13283TIP3   OH261263   2.492   1.943  14.229 -0.5946  0.1344  0.4429
13283TIP3    H161264   2.470   2.028  14.192 -0.9503 -0.2974 -0.3584
13283TIP3    H261265   2.410   1.913  14.270 -0.1416  0.7158  1.8152
13284TIP3   OH261266   1.358   5.787   0.286 -0.1176  0.2574  0.4486
13284TIP3    H161267   1.283   5.830   0.244  0.7402 -0.0314 -1.5036
13284TIP3    H261268   1.433   5.842   0.263  0.4419 -0.1199  1.3423
13285TIP3   OH261269   2.060   4.959   4.206 -0.1447 -0.2144 -0.1021
13285TIP3    H161270   2.043   4.920   4.292  3.4229 -2.0505 -0.0279
13285TIP3    H261271   2.124   5.029   4.224 -0.4112  0.3153 -1.1486
13286TIP3   OH261272   1.162   6.161  14.845  0.1667  0.3009 -0.4120
13286TIP3    H161273   1.143   6.071  14.870  0.3242  0.8735  1.9725
13286TIP3    H261274   1.248   6.179  14.884  0.3321  1.3604 -1.2182
13287TIP3   OH261275   3.220   2.390   1.335  0.4854 -0.0118 -0.0222
13287TIP3    H161276   3.311   2.366   1.318 -0.2078 -2.2054 -0.9672
13287TIP3    H261277   3.172   2.309   1.326 -1.5695  1.0592  0.7036
13288TIP3   OH261278   5.504   6.546  16.279  0.3925  0.3133  0.2295
13288TIP3    H161279   5.433   6.495  16.315 -1.7694  1.9783 -1.3928
13288TIP3    H261280   5.489   6.635  16.310  2.5741  0.5024  0.9200
13289TIP3   OH261281   2.352   1.932   1.903 -0.5909  0.1498 -0.2783
13289TIP3    H161282   2.422   1.886   1.949 -0.2997  1.2624  0.4256
13289TIP3    H261283   2.347   2.017   1.945 -0.7995  0.9615 -1.8669
13290TIP3   OH261284   5.502   3.972  16.165 -0.1540 -0.1004  0.3361
13290TIP3    H161285   5.437   4.020  16.114  0.5604  0.7371  0.1915
13290TIP3    H261286   5.583   4.021  16.152  0.4563 -0.9923  0.7042
13291TIP3   OH261287   2.564   0.246   5.381  0.2429 -0.0061  0.2411
13291TIP3    H161288   2.619   0.262   5.305 -0.5111  0.0709 -0.2962
13291TIP3    H261289   2.485   0.297   5.365  0.1513  0.1552  1.1664
13292TIP3   OH261290   0.678   6.296  12.595 -0.7776  0.1107 -0.2619
13292TIP3    H161291   0.688   6.248  12.513  0.7840 -1.7271  0.8874
13292TIP3    H261292   0.721   6.380  12.580  1.4365 -1.0375 -0.7311
13293TIP3   OH261293   3.100   5.867   1.062 -0.0423  0.3378  0.3550
13293TIP3    H161294   3.092   5.858   0.967  1.8937  0.2158  0.1695
13293TIP3    H261295   3.086   5.779   1.096 -2.5386  0.6584  0.4066
13294TIP3   OH261296   4.889   2.580  12.562 -0.4013 -0.1940  0.1434
13294TIP3    H161297   4.947   2.512  12.529 -0.2075  0.1232 -0.1834
13294TIP3    H261298   4.817   2.582  12.500 -0.9858 -0.8840  0.7864
13295TIP3   OH261299   2.930   1.420  12.003 -0.7574  0.2108  0.1229
13295TIP3    H161300   2.958   1.356  11.937  0.4416  1.0860 -0.2549
13295TIP3    H261301   2.966   1.387  12.085  0.3630  0.6829 -0.1640
13296TIP3   OH261302   4.849   0.462  15.723  0.2232 -0.1804  0.3313
13296TIP3    H161303   4.844   0.527  15.793  0.7775  0.7423 -0.4537
13296TIP3    H261304   4.760   0.429  15.713 -0.5330  1.9847 -0.6390
13297TIP3   OH261305   6.115   3.885   0.339  0.1075 -0.0098 -0.3686
13297TIP3    H161306   6.027   3.870   0.304 -0.7665  1.4295  1.0823
13297TIP3    H261307   6.129   3.812   0.399 -0.2174 -0.0887 -0.3868
13298TIP3   OH261308   0.059   0.113   3.253 -0.1389  0.3582 -0.1468
13298TIP3    H161309   0.019   0.060   3.184 -0.6113 -0.0318  0.4251
13298TIP3    H261310   0.152   0.113   3.232 -0.1356 -0.6728 -0.1763
13299TIP3   OH261311   0.269   2.821   4.284 -0.2229 -0.2148 -0.5735
13299TIP3    H161312   0.230   2.742   4.247 -0.9754 -0.2496  0.2503
13299TIP3    H261313   0.260   2.810   4.379  0.4100  0.4855 -0.4190
13300TIP3   OH261314   4.723   6.152   6.498 -0.4410 -0.3071 -0.1307
13300TIP3    H161315   4.695   6.092   6.428 -1.6208  2.4910 -2.2281
13300TIP3    H261316   4.760   6.094   6.565 -0.2570 -3.2524 -2.5548
13301TIP3   OH261317   3.233   3.576   4.222 -0.0030 -0.2270  0.1274
13301TIP3    H161318   3.161   3.634   4.197  1.6872  0.9379 -2.4580
13301TIP3    H261319   3.271   3.618   4.300 -1.6861 -0.5259  1.1478
13302TIP3   OH261320   2.522   0.587  13.283 -0.2378 -0.1827  0.1879
13302TIP3    H161321   2.561   0.650  13.343  0.2079 -0.7722  0.5230
13302TIP3    H261322   2.443   0.556  13.329  0.1227 -0.6613  0.4999
13303TIP3   OH261323   0.597   6.050   5.534  0.0565  0.0398  0.2135
13303TIP3    H161324   0.688   6.033   5.513 -0.4885 -0.2238 -2.2673
13303TIP3    H261325   0.594   6.055   5.630  2.6277  0.0151  0.3457
13304TIP3   OH261326   1.545   3.198  16.873  0.1028  0.5512 -0.1568
13304TIP3    H161327   1.580   3.277  16.831  1.2915  0.4669  0.6179
13304TIP3    H261328   1.622   3.153  16.908 -0.6945 -0.1831  0.7243
13305TIP3   OH261329   4.318   4.804  16.664  0.0471  0.1352  0.1158
13305TIP3    H161330   4.362   4.809  16.579  0.6320 -0.7660  0.3449
13305TIP3    H261331   4.240   4.752  16.648 -1.4684  2.4246 -0.4737
13306TIP3   OH261332   0.930   4.497  16.769 -0.3683 -0.3573 -0.0693
13306TIP3    H161333   0.972   4.580  16.744 -0.9812  0.1247  0.4705
13306TIP3    H261334   0.850   4.494  16.717  0.0337 -0.9960 -0.6657
13307TIP3   OH261335   0.391   6.267   3.616 -0.0727 -0.4220  1.0581
13307TIP3    H161336   0.366   6.263   3.708  2.9375 -2.3580  1.9402
13307TIP3    H261337   0.350   6.190   3.577 -3.1093  1.4969  0.1173
13308TIP3   OH261338   1.994   5.282  11.944  0.1331 -0.4067 -0.9619
13308TIP3    H161339   1.913   5.281  11.996 -0.2115  2.1922 -1.2894
13308TIP3    H261340   2.048   5.214  11.983 -0.2846  1.0753  2.6114
13309TIP3   OH261341   6.364   1.604  12.277 -0.1924  0.5084  0.1541
13309TIP3    H161342   6.313   1.647  12.208 -0.7151  0.9272  0.7951
13309TIP3    H261343   6.454   1.608  12.245 -0.5913 -0.7623 -1.2758
13310TIP3   OH261344   1.620   4.833   1.197 -0.1333  0.2463  0.4227
13310TIP3    H161345   1.685   4.783   1.148  0.4711  1.2726  0.1393
13310TIP3    H261346   1.537   4.812   1.154  0.0314 -0.8760  0.6259
13311TIP3   OH261347   2.529   1.856   1.255  0.2871  0.0060 -0.3245
13311TIP3    H161348   2.549   1.769   1.291 -0.3597  0.5995  1.5307
13311TIP3    H261349   2.607   1.908   1.275 -0.5003  0.6263  1.2539
13312TIP3   OH261350   6.688   3.431  14.808  0.0895  0.5488 -0.0821
13312TIP3    H161351   6.656   3.460  14.893 -0.4176 -0.8876  0.2416
13312TIP3    H261352   6.781   3.409  14.823  0.1935  0.9970 -0.0758
13313TIP3   OH261353   0.434   0.307   2.949  0.4744  0.4757  0.1214
13313TIP3    H161354   0.473   0.237   3.002  2.7714  1.8688  0.4194
13313TIP3    H261355   0.358   0.335   3.000  1.3075  0.2431  1.5695
13314TIP3   OH261356   0.816   1.611  14.778  0.2065 -0.2956 -0.4818
13314TIP3    H161357   0.906   1.592  14.803  0.1015 -0.2924 -0.1005
13314TIP3    H261358   0.763   1.560  14.839 -0.0352 -1.3885 -1.5723
13315TIP3   OH261359   5.507   6.128   0.203  0.0817 -0.6170 -0.1248
13315TIP3    H161360   5.492   6.062   0.135  2.1251  0.0381 -1.3123
13315TIP3    H261361   5.597   6.157   0.189  0.1284  0.5235  2.0596
13316TIP3   OH261362   1.604   0.327  14.528 -0.1539  0.2064 -0.1879
13316TIP3    H161363   1.684   0.339  14.477 -0.1546  0.3367 -0.1578
13316TIP3    H261364   1.634   0.295  14.613  0.0158  2.0247  0.4735
13317TIP3   OH261365   1.340   2.801   5.605  0.3230  0.0136 -0.2748
13317TIP3    H161366   1.346   2.744   5.682  0.3146  1.0222  0.4846
13317TIP3    H261367   1.252   2.839   5.610  0.9393  1.4426  0.2236
13318TIP3   OH261368   4.976   4.161  16.399  0.2745 -0.5422 -0.0810
13318TIP3    H161369   4.933   4.098  16.342  0.6123 -2.2474  1.4681
13318TIP3    H261370   5.018   4.108  16.467 -1.5750  1.4155  2.8083
13319TIP3   OH261371   4.433   6.712  11.956 -0.7535 -0.6030 -0.5997
13319TIP3    H161372   4.522   6.700  11.921  0.1349  0.4835  1.1069
13319TIP3    H261373   4.376   6.672  11.891  0.8223  0.4636 -2.7745
13320TIP3   OH261374   3.753   2.432   2.129 -0.3027  0.4524 -0.5624
13320TIP3    H161375   3.755   2.394   2.217 -0.4232 -0.2548 -0.8555
13320TIP3    H261376   3.671   2.482   2.127  0.1231  1.1832  0.0096
13321TIP3   OH261377   2.688   1.439   5.807  0.1729  0.1245 -0.3876
13321TIP3    H161378   2.762   1.467   5.754  0.4146  0.1866 -0.0176
13321TIP3    H261379   2.710   1.465   5.897  0.2742 -0.9815 -0.0771
13322TIP3   OH261380   0.911   1.370  16.834  0.0992  0.4053  0.2085
13322TIP3    H161381   0.979   1.343  16.772 -0.2084 -1.8244  0.7341
13322TIP3    H261382   0.950   1.444  16.881  0.8108  1.3319 -1.7607
13323TIP3   OH261383   3.135   6.489   3.724 -0.0490  0.3228  0.2911
13323TIP3    H161384   3.219   6.486   3.769  0.0913 -1.7446  0.0004
13323TIP3    H261385   3.070   6.494   3.794  0.2676 -0.1010  0.6225
13324TIP3   OH261386   2.526   1.924  16.228 -0.6508  0.0847  0.3234
13324TIP3    H161387   2.605   1.924  16.173 -1.2521  0.9768 -0.5742
13324TIP3    H261388   2.454   1.917  16.166 -1.3401  0.9735  1.0076
13325TIP3   OH261389   0.406   5.432  15.232  0.0648 -0.0357 -0.0946
13325TIP3    H161390   0.499   5.449  15.220 -0.1675  0.5098 -1.2574
13325TIP3    H261391   0.394   5.431  15.327  1.0519  1.0268  0.0672
13326TIP3   OH261392   0.026   3.808   0.936  0.2697  0.1302 -0.0705
13326TIP3    H161393   0.080   3.862   0.994 -0.9251  0.9691  0.2844
13326TIP3    H261394   0.037   3.719   0.970  1.9438  0.1576 -0.4224
13327TIP3   OH261395   5.742   5.448  13.022 -0.2897  0.0284  0.5922
13327TIP3    H161396   5.663   5.482  12.979  0.3465  1.2023  0.3028
13327TIP3    H261397   5.711   5.413  13.105 -0.9727  1.4841  0.9735
13328TIP3   OH261398   4.741   5.005   4.851 -0.1306 -0.0246  0.4128
13328TIP3    H161399   4.689   5.021   4.773 -1.9994 -0.3388  1.5221
13328TIP3    H261400   4.757   4.910   4.850 -1.7887 -0.3527  1.3186
13329TIP3   OH261401   0.861   2.831  12.493 -0.0601 -0.4139  0.0786
13329TIP3    H161402   0.791   2.893  12.473 -0.4147 -0.9342 -0.3201
13329TIP3    H261403   0.827   2.779  12.566  0.2254 -0.1606  0.3957
13330TIP3   OH261404   0.088   5.721  17.171 -0.3742  0.1761 -0.4867
13330TIP3    H161405   0.016   5.773  17.206 -0.7186 -0.4686 -0.2251
13330TIP3    H261406   0.147   5.709  17.245 -0.0708  0.5628 -0.6592
13331TIP3   OH261407   5.071   5.670   0.325  0.2239  0.3002 -0.4147
13331TIP3    H161408   5.151   5.622   0.304  0.5751  0.2373  1.0122
13331TIP3    H261409   5.012   5.649   0.252  1.3258 -0.0389 -1.2372
13332TIP3   OH261410   4.317   1.002  13.869 -0.2765  0.1588  0.0608
13332TIP3    H161411   4.279   1.050  13.942  0.3347  1.1498 -0.2553
13332TIP3    H261412   4.243   0.954  13.831 -0.6352 -0.2328  1.2027
13333TIP3   OH261413   3.602   2.438  13.977 -0.6313  0.7353 -0.1608
13333TIP3    H161414   3.617   2.432  13.883  0.0331  0.0840 -0.0187
13333TIP3    H261415   3.603   2.532  13.995  0.7781  0.8225 -0.5769
13334TIP3   OH261416   2.785   0.069  15.346 -0.4232 -0.1133 -0.0610
13334TIP3    H161417   2.713   0.056  15.407 -2.0138 -0.4264 -1.8882
13334TIP3    H261418   2.844  -0.005  15.361 -0.5583  0.0473  1.3353
13335TIP3   OH261419   1.077   5.347  15.732  0.7337  0.2959  0.0858
13335TIP3    H161420   1.170   5.328  15.746  0.4973  0.9782  3.1469
13335TIP3    H261421   1.076   5.436  15.695  1.2798 -0.1798 -1.1498
13336TIP3   OH261422   5.800   1.271   5.887  0.0352 -0.1476  0.4355
13336TIP3    H161423   5.795   1.227   5.802 -0.1753  1.1721 -0.2502
13336TIP3    H261424   5.809   1.199   5.950  2.6482 -1.0661 -0.8639
13337TIP3   OH261425   6.669   2.206  16.667  0.3116  0.1819 -0.2487
13337TIP3    H161426   6.639   2.181  16.579 -2.5778 -1.0748  0.9921
13337TIP3    H261427   6.660   2.127  16.719 -0.9524  1.6340  1.8679
13338TIP3   OH261428   4.085   6.682  14.621 -0.4295 -0.2249 -0.0231
13338TIP3    H161429   4.049   6.730  14.695  1.4175  2.3740 -0.6516
13338TIP3    H261430   4.033   6.711  14.546 -1.4479 -1.8371  0.0238
13339TIP3   OH261431   1.094   5.378  14.017 -0.8537 -0.1301 -0.1697
13339TIP3    H161432   1.085   5.410  14.106 -1.1892  1.3397 -0.6964
13339TIP3    H261433   1.009   5.394  13.976 -0.4476  0.0316 -0.9881
13340TIP3   OH261434   5.880   6.570   0.709 -0.0231  0.3626 -0.3622
13340TIP3    H161435   5.826   6.494   0.731 -0.5729  0.8020 -0.1736
13340TIP3    H261436   5.883   6.570   0.613  2.4993 -1.6406 -0.3926
13341TIP3   OH261437   3.927   0.586   3.217  0.1068  0.0696  0.0667
13341TIP3    H161438   4.002   0.621   3.265  0.6838 -2.3416  1.0756
13341TIP3    H261439   3.964   0.514   3.165 -1.1090  0.4041 -1.3031
13342TIP3   OH261440   5.903   3.314   5.624  0.1846  0.1887  0.0472
13342TIP3    H161441   5.868   3.303   5.536  1.7754  0.0085 -0.6074
13342TIP3    H261442   5.984   3.363   5.612  0.0898  0.7772  1.5008
13343TIP3   OH261443   2.183   4.180   5.339 -0.4959 -0.8631  0.1074
13343TIP3    H161444   2.273   4.208   5.353 -0.3380 -1.0494 -0.4804
13343TIP3    H261445   2.190   4.105   5.280 -1.1401  0.4149 -1.6853
13344TIP3   OH261446   1.642   0.017  11.325  0.8255  0.0176 -0.3008
13344TIP3    H161447   1.729   0.052  11.347  1.0562 -0.3219 -0.6590
13344TIP3    H261448   1.581   0.072  11.374  1.1481  1.2591 -1.2403
13345TIP3   OH261449   6.695   1.448   0.449 -0.6117  0.7093  0.0797
13345TIP3    H161450   6.609   1.445   0.491  0.5064 -0.5539  2.4742
13345TIP3    H261451   6.696   1.373   0.390 -0.7435  0.0351  0.9248
13346TIP3   OH261452   2.314   2.153  17.101 -0.6864  0.2772 -1.1138
13346TIP3    H161453   2.286   2.070  17.139 -0.9666  0.1483 -1.5922
13346TIP3    H261454   2.378   2.188  17.164  0.2770 -0.8264 -1.4462
13347TIP3   OH261455   1.238   0.151   0.650  0.3074  0.0368  0.7372
13347TIP3    H161456   1.316   0.169   0.597 -0.2902 -1.2231 -0.6085
13347TIP3    H261457   1.213   0.062   0.628 -1.5762  0.4310  1.0833
13348TIP3   OH261458   4.929   4.654   5.000  0.3034  0.0907  0.4579
13348TIP3    H161459   4.873   4.610   4.937  1.2538 -2.0714  0.9940
13348TIP3    H261460   4.870   4.682   5.070 -0.2074 -1.8648  0.8689
13349TIP3   OH261461   5.093   2.426  15.173 -0.0652  0.6633 -0.2837
13349TIP3    H161462   5.009   2.466  15.198  0.0638  0.5852  0.2793
13349TIP3    H261463   5.124   2.384  15.253  0.4838  0.6419 -0.5076
13350TIP3   OH261464   0.892   1.250  12.506 -0.0285  0.2854  0.3625
13350TIP3    H161465   0.886   1.183  12.574 -1.4399  0.3687  0.3500
13350TIP3    H261466   0.977   1.292  12.521 -0.3907  0.4655  2.2414
13351TIP3   OH261467   1.116   5.809  15.947  0.0345 -0.2626 -0.1503
13351TIP3    H161468   1.060   5.883  15.927  0.7133 -0.0010 -1.1607
13351TIP3    H261469   1.061   5.750  15.999 -0.2088  1.3809  1.5449
13352TIP3   OH261470   4.354   2.907  16.580 -0.0005  0.2185 -0.4449
13352TIP3    H161471   4.342   2.818  16.547 -0.3407 -0.1588  0.6780
13352TIP3    H261472   4.320   2.963  16.510 -0.2586 -0.5491 -0.9419
13353TIP3   OH261473   1.877   1.109  11.283 -0.5586 -0.2448 -0.5713
13353TIP3    H161474   1.849   1.168  11.213 -0.7134  2.3754  1.5219
13353TIP3    H261475   1.952   1.153  11.323 -1.6098 -0.6361  2.0619
13354TIP3   OH261476   3.617   6.422   0.388 -0.5299 -0.0038  0.2334
13354TIP3    H161477   3.528   6.448   0.364 -0.2843 -0.1430 -0.9072
13354TIP3    H261478   3.615   6.410   0.483 -1.9992 -1.0432  0.0919
13355TIP3   OH261479   6.108   4.774  12.386 -0.1893  0.2243  0.1657
13355TIP3    H161480   6.157   4.769  12.304 -0.4091  0.2430  0.0333
13355TIP3    H261481   6.079   4.685  12.403  1.4041 -0.1448  1.1766
13356TIP3   OH261482   5.282   0.879   3.407  0.0065 -0.5219  0.1341
13356TIP3    H161483   5.249   0.934   3.336  0.8294 -0.2658 -0.0644
13356TIP3    H261484   5.218   0.888   3.477  0.0402  0.5586  0.0435
13357TIP3   OH261485   4.781   1.041  15.824  0.2776 -0.1796 -0.4286
13357TIP3    H161486   4.778   0.947  15.807 -0.8812 -0.1191 -0.6484
13357TIP3    H261487   4.742   1.051  15.911  0.9513  0.0483 -0.1446
13358TIP3   OH261488   1.846   0.894  14.419 -0.2416  0.0369 -0.7220
13358TIP3    H161489   1.767   0.930  14.460 -0.3511 -1.9365  1.0006
13358TIP3    H261490   1.829   0.800  14.414  1.4681 -0.2581 -1.5634
13359TIP3   OH261491   6.351   1.341  12.621 -0.2704 -0.4126 -0.4503
13359TIP3    H161492   6.277   1.283  12.600 -0.9228 -0.1058  0.8508
13359TIP3    H261493   6.366   1.326  12.715  0.2190  0.7673 -0.3307
13360TIP3   OH261494   3.534   6.494   6.360  0.0204 -0.0258 -0.2001
13360TIP3    H161495   3.466   6.435   6.328 -1.3808  1.0960  0.6051
13360TIP3    H261496   3.509   6.512   6.451  0.3379  1.8728 -0.4552
13361TIP3   OH261497   4.063   4.070  16.647  0.2811  0.2107  0.1633
13361TIP3    H161498   4.124   4.137  16.614  1.8476 -0.9112  0.6280
13361TIP3    H261499   4.076   3.996  16.587 -1.1707  0.1874 -0.1446
13362TIP3   OH261500   3.003   0.411   2.184  0.4608  0.2560  0.6163
13362TIP3    H161501   2.973   0.350   2.252  1.0048 -1.5584 -0.7144
13362TIP3    H261502   3.053   0.477   2.232 -0.1603 -0.3076  2.1030
13363TIP3   OH261503   5.528   1.130   2.637  0.3909 -0.1467  0.2244
13363TIP3    H161504   5.557   1.221   2.627  2.8754 -0.8845 -0.0541
13363TIP3    H261505   5.482   1.110   2.556 -0.5278  0.9610  0.4553
13364TIP3   OH261506   0.232   3.816  13.638  0.5239 -0.6522  0.0869
13364TIP3    H161507   0.214   3.734  13.594  0.8979  0.0319 -1.3951
13364TIP3    H261508   0.295   3.861  13.581 -2.2124  2.1589 -1.0088
13365TIP3   OH261509   4.554   2.285   1.449  0.0950 -0.4408  0.0953
13365TIP3    H161510   4.537   2.366   1.496 -1.0656 -0.6903  0.1480
13365TIP3    H261511   4.631   2.303   1.395  0.4023  0.3866  0.8001
13366TIP3   OH261512   1.218   4.167   4.324 -0.3001 -0.6761  0.3007
13366TIP3    H161513   1.270   4.196   4.399  0.0442 -1.0836  0.2242
13366TIP3    H261514   1.145   4.229   4.320  0.1999 -0.0745  0.3848
13367TIP3   OH261515   5.622   1.757   4.578  0.4235  0.7459 -0.7814
13367TIP3    H161516   5.604   1.709   4.659  2.4757  1.9256  0.4601
13367TIP3    H261517   5.577   1.707   4.510 -1.7683 -0.0430  1.1118
13368TIP3   OH261518   5.515   4.343  16.232  0.6025  0.1522 -0.2308
13368TIP3    H161519   5.497   4.327  16.139  0.3348  2.6022 -0.6655
13368TIP3    H261520   5.440   4.307  16.278  0.4244 -0.4997 -1.0051
13369TIP3   OH261521   4.590   1.710   5.446  0.4818 -0.0956 -0.1613
13369TIP3    H161522   4.684   1.699   5.437  0.5192 -0.7773  0.9376
13369TIP3    H261523   4.557   1.621   5.463 -0.0753  0.4272  1.6981
13370TIP3   OH261524   0.278   4.651   3.347 -0.5077  0.0322  0.0022
13370TIP3    H161525   0.313   4.737   3.374  3.1679 -0.1971 -3.2040
13370TIP3    H261526   0.340   4.588   3.384  0.6587 -0.6840 -2.9503
13371TIP3   OH261527   6.498   0.781   1.702 -0.1538 -0.1041  0.7272
13371TIP3    H161528   6.541   0.721   1.763 -1.6571 -0.2803  1.6725
13371TIP3    H261529   6.516   0.744   1.616  0.8771 -0.6064  1.1366
13372TIP3   OH261530   1.583   3.660   4.981 -0.5759 -0.5149  0.4541
13372TIP3    H161531   1.526   3.673   5.057 -0.1089  0.3588  0.6658
13372TIP3    H261532   1.670   3.645   5.018 -0.2178  0.5820  0.0897
13373TIP3   OH261533   6.410   1.030   0.967  0.0713 -0.1458 -0.1766
13373TIP3    H161534   6.413   1.118   1.004  0.3406 -0.1719 -0.1382
13373TIP3    H261535   6.339   1.034   0.903 -0.1852 -0.0116  0.1114
13374TIP3   OH261536   3.186   4.194   6.523 -0.4674  0.0101  0.0535
13374TIP3    H161537   3.110   4.173   6.577 -0.3930  0.0937  0.1919
13374TIP3    H261538   3.179   4.135   6.448 -0.8510  0.2453 -0.1034
13375TIP3   OH261539   2.847   2.339  11.893 -0.5987 -0.4013  0.3339
13375TIP3    H161540   2.812   2.264  11.940 -0.0954 -0.8259  0.0356
13375TIP3    H261541   2.837   2.317  11.801 -0.6456 -0.0141  0.2449
13376TIP3   OH261542   3.900   5.439   0.275 -0.1515  0.1620 -0.6401
13376TIP3    H161543   3.963   5.425   0.204 -2.0068 -2.0380 -1.9913
13376TIP3    H261544   3.864   5.526   0.257  1.6751  0.9891 -0.4669
13377TIP3   OH261545   4.497   0.775   2.258  0.1341 -1.2033  0.4193
13377TIP3    H161546   4.502   0.792   2.164 -0.2553  0.0383  0.6060
13377TIP3    H261547   4.543   0.691   2.270  1.2035 -0.8092 -0.7133
13378TIP3   OH261548   5.932   2.676  13.654 -0.0674  0.3300  0.0860
13378TIP3    H161549   5.966   2.587  13.653  0.3579  0.4315  1.9774
13378TIP3    H261550   5.860   2.675  13.591 -0.8444 -1.6707  0.9225
13379TIP3   OH261551   3.334   1.430   1.296 -0.0727 -0.4928  0.2189
13379TIP3    H161552   3.318   1.385   1.212 -0.7684  0.1722 -0.0228
13379TIP3    H261553   3.253   1.417   1.345 -0.3681  0.6577  0.0632
13380TIP3   OH261554   4.700   5.398   4.978 -1.1447 -0.1517  0.2320
13380TIP3    H161555   4.688   5.408   4.884  0.5709 -2.0441 -0.2613
13380TIP3    H261556   4.628   5.342   5.006 -1.2100 -0.2417 -0.1147
13381TIP3   OH261557   3.364   4.127   2.079  1.3923 -0.0537  0.3832
13381TIP3    H161558   3.279   4.120   2.121  1.5512 -0.3728  0.6521
13381TIP3    H261559   3.424   4.153   2.150  2.1362 -2.9544  0.9388
13382TIP3   OH261560   5.042   2.437  14.686  0.6699  0.3241  0.1939
13382TIP3    H161561   5.119   2.469  14.640  1.5245 -0.8760  0.7251
13382TIP3    H261562   5.050   2.473  14.774  0.7241  0.0802  0.2921
13383TIP3   OH261563   0.066   3.460   4.288 -0.0249 -0.0854 -0.0943
13383TIP3    H161564   0.121   3.487   4.361 -0.2415  1.4143 -0.4506
13383TIP3    H261565   0.004   3.398   4.326 -0.8207  1.4666  1.2517
13384TIP3   OH261566   6.586   1.740   2.156 -0.3702  0.4626  0.0010
13384TIP3    H161567   6.545   1.689   2.225  0.8759 -0.7596 -0.1129
13384TIP3    H261568   6.516   1.755   2.093 -0.8371 -0.9594  0.1398
13385TIP3   OH261569   0.685   0.617   4.512 -0.3657  0.1762  0.1244
13385TIP3    H161570   0.719   0.699   4.478 -0.4978  1.3707  2.6537
13385TIP3    H261571   0.596   0.638   4.541  0.1948 -0.3274  2.3970
13386TIP3   OH261572   0.583   0.045   6.714 -0.0141  0.0836  0.0489
13386TIP3    H161573   0.497   0.044   6.673  0.4648  0.4636 -1.0049
13386TIP3    H261574   0.613   0.136   6.704 -0.0655  0.3132  1.6684
13387TIP3   OH261575   6.728   0.324   4.447 -0.4476  0.3792  0.0962
13387TIP3    H161576   6.682   0.267   4.510 -0.9786 -0.7290 -1.2394
13387TIP3    H261577   6.796   0.367   4.499 -0.4199 -1.0306  1.2949
13388TIP3   OH261578   5.520   5.937  17.221  0.0466  0.1735 -0.1468
13388TIP3    H161579   5.495   5.862  17.168  0.5594  0.1861 -0.4129
13388TIP3    H261580   5.511   6.012  17.162 -0.5538  0.3376  0.1449
13389TIP3   OH261581   0.891   1.739   4.689  0.3550  0.0596  0.0184
13389TIP3    H161582   0.879   1.671   4.623  3.0840  0.6513 -1.2491
13389TIP3    H261583   0.959   1.704   4.747 -1.7062 -0.2765  2.3964
13390TIP3   OH261584   3.918   2.683   1.662 -0.2086 -0.1292  0.4636
13390TIP3    H161585   3.994   2.729   1.698 -0.0797 -0.2052  0.2869
13390TIP3    H261586   3.930   2.593   1.690 -0.4787 -0.0505  0.8391
13391TIP3   OH261587   6.475   5.110  14.907  0.4304  0.3168 -0.2703
13391TIP3    H161588   6.458   5.204  14.914 -1.0181 -0.0135  1.3231
13391TIP3    H261589   6.389   5.069  14.915  0.9475 -1.1446 -1.6826
13392TIP3   OH261590   4.129   3.393  14.596 -0.1752 -0.1124 -0.9027
13392TIP3    H161591   4.162   3.312  14.636 -1.9987  0.0662  1.1538
13392TIP3    H261592   4.084   3.364  14.517  0.4272 -0.9348 -0.9569
13393TIP3   OH261593   3.456   0.875   6.492 -0.0590 -0.2162  0.4668
13393TIP3    H161594   3.458   0.946   6.428  0.0601  1.0916  1.8540
13393TIP3    H261595   3.543   0.875   6.531 -0.2167 -0.8008  0.8349
13394TIP3   OH261596   5.704   1.004  12.153  0.3578  0.0813 -0.4285
13394TIP3    H161597   5.653   0.961  12.222 -3.7619 -0.0047 -3.1724
13394TIP3    H261598   5.741   0.932  12.102 -0.7259 -0.0487 -1.0568
13395TIP3   OH261599   6.291   2.424   5.582 -0.0242 -0.1428  0.0204
13395TIP3    H161600   6.233   2.407   5.508 -1.6624 -1.1126  1.4613
13395TIP3    H261601   6.303   2.519   5.582  0.6583 -0.1935 -1.9164
13396TIP3   OH261602   2.932   4.434   2.284 -0.2890 -0.0528 -0.2008
13396TIP3    H161603   2.957   4.490   2.358  0.2446  1.3805 -1.4140
13396TIP3    H261604   3.003   4.370   2.277 -0.4966 -0.3975  0.6922
13397TIP3   OH261605   4.335   6.152   5.348  0.2202  0.2606 -0.2937
13397TIP3    H161606   4.253   6.164   5.299  0.1289  0.4039 -0.1064
13397TIP3    H261607   4.313   6.088   5.416  0.6555 -0.8515 -1.1738
13398TIP3   OH261608   5.413   4.967  15.439  0.1767 -0.4872  0.6761
13398TIP3    H161609   5.382   5.030  15.374 -3.5266 -0.9673  1.7204
13398TIP3    H261610   5.471   5.018  15.496 -0.9671  1.4400  0.2105
13399TIP3   OH261611   1.120   1.369  15.237 -0.2139 -0.7482  0.2481
13399TIP3    H161612   1.136   1.288  15.284  0.1931 -0.7963  0.0303
13399TIP3    H261613   1.115   1.436  15.305 -1.6410 -1.1092  0.5149
13400TIP3   OH261614   2.568   5.288   1.736 -0.3141  0.3290  0.0062
13400TIP3    H161615   2.537   5.198   1.729 -0.7151  0.4570  0.1259
13400TIP3    H261616   2.512   5.328   1.803 -0.2793  0.7249 -0.1998
13401TIP3   OH261617   5.426   0.197  10.882  0.0191 -0.1791  0.0470
13401TIP3    H161618   5.415   0.290  10.902  0.8325  0.3396 -1.7056
13401TIP3    H261619   5.515   0.176  10.909  0.2739 -0.0983 -0.6864
13402TIP3   OH261620   6.546   4.463   4.673 -0.4402 -0.0853 -0.2404
13402TIP3    H161621   6.475   4.504   4.624  1.0321  1.8365 -0.8970
13402TIP3    H261622   6.527   4.482   4.765  0.0428  1.9184 -0.5077
13403TIP3   OH261623   5.324   4.906  12.042  0.1019 -0.2580  0.3967
13403TIP3    H161624   5.233   4.876  12.049 -0.1456  0.8173  2.6658
13403TIP3    H261625   5.334   4.932  11.951 -2.2561  0.7133  0.3477
13404TIP3   OH261626   2.082   2.948   4.361  1.1485  0.1029  0.0956
13404TIP3    H161627   2.010   2.999   4.398  1.0584  0.1887 -0.1964
13404TIP3    H261628   2.157   3.007   4.363  0.9644  0.3720 -0.5595
13405TIP3   OH261629   4.866   6.758  11.351  0.5038  0.0244  0.0881
13405TIP3    H161630   4.797   6.794  11.407  1.9152 -1.0931  2.7022
13405TIP3    H261631   4.940   6.817  11.362  1.0698 -0.6655  0.0720
13406TIP3   OH261632   1.530   6.404  10.761  0.3723 -0.1239 -0.0114
13406TIP3    H161633   1.499   6.351  10.688 -0.1235 -0.9284  0.7597
13406TIP3    H261634   1.624   6.386  10.766  0.1411 -1.3095  0.5108
13407TIP3   OH261635   2.544   3.837  12.750  0.0549 -0.1676 -0.7570
13407TIP3    H161636   2.505   3.823  12.836 -0.8136  2.4591 -0.6377
13407TIP3    H261637   2.638   3.827  12.764 -0.0274  0.7712  0.6755
13408TIP3   OH261638   0.679   2.716  15.992  0.0394  0.4586 -0.3010
13408TIP3    H161639   0.714   2.802  15.967  1.4537 -0.0824 -0.2774
13408TIP3    H261640   0.608   2.736  16.053  0.4731  1.6111 -0.1451
13409TIP3   OH261641   6.559   6.250  12.594 -0.5129 -0.0684  0.4530
13409TIP3    H161642   6.527   6.188  12.659 -3.7211  0.5068 -0.4091
13409TIP3    H261643   6.621   6.200  12.540 -0.6988 -1.6026  1.6022
13410TIP3   OH261644   4.987   6.564  15.916  0.3245  0.0084 -0.1539
13410TIP3    H161645   4.941   6.483  15.941 -2.7061  1.7808  0.4341
13410TIP3    H261646   4.984   6.618  15.995  2.1808  0.7947 -0.5786
13411TIP3   OH261647   6.464   2.592  16.692 -0.1981  0.4119 -0.5024
13411TIP3    H161648   6.505   2.661  16.640  0.0502  0.1616 -0.6429
13411TIP3    H261649   6.440   2.634  16.775  1.8575  0.1832  0.2590
13412TIP3   OH261650   0.496   0.593  14.397 -0.4515 -0.2148 -0.1236
13412TIP3    H161651   0.547   0.658  14.348  0.1567  0.3085  1.1725
13412TIP3    H261652   0.516   0.510  14.353  1.3505  0.0120  0.1923
13413TIP3   OH261653   3.579   2.323  16.435  0.9222 -0.1725  0.3713
13413TIP3    H161654   3.655   2.378  16.449  1.4158 -1.1302  1.6280
13413TIP3    H261655   3.608   2.235  16.459  0.3995 -1.1839 -2.3296
13414TIP3   OH261656   1.295   5.072  15.604  0.0145 -0.1640  0.6546
13414TIP3    H161657   1.365   5.014  15.574 -0.7597 -0.8893  0.2011
13414TIP3    H261658   1.215   5.021  15.591 -0.6488  0.8601  0.6390
13415TIP3   OH261659   2.926   6.749   4.816  0.8166  0.7890 -0.2214
13415TIP3    H161660   2.977   6.733   4.736 -3.0310 -1.0174 -2.6421
13415TIP3    H261661   2.970   6.698   4.883  2.0052 -1.0209 -2.2350
13416TIP3   OH261662   6.027   2.491  11.556 -0.7574 -0.3765 -0.6465
13416TIP3    H161663   5.959   2.434  11.520 -1.2812 -0.1672 -0.0167
13416TIP3    H261664   6.065   2.441  11.628  0.1422 -0.7096 -1.3261
13417TIP3   OH261665   5.272   1.340   6.055  0.0413 -0.1744  0.5321
13417TIP3    H161666   5.209   1.296   6.113  1.0695  0.8675  2.5269
13417TIP3    H261667   5.262   1.433   6.075  0.6810  0.1878 -0.7491
13418TIP3   OH261668   2.389   6.435   2.535 -0.3586  0.2330 -0.0628
13418TIP3    H161669   2.400   6.352   2.489 -2.0775 -1.8035  2.8174
13418TIP3    H261670   2.307   6.472   2.501  0.0085  0.3521 -0.8141
13419TIP3   OH261671   5.017   0.704  11.877 -0.0822 -0.0751  0.4248
13419TIP3    H161672   5.103   0.687  11.839 -0.2025  0.1580  0.0429
13419TIP3    H261673   5.032   0.774  11.940  0.0247 -0.0987  0.4254
13420TIP3   OH261674   2.434   3.525  13.608 -0.0401 -0.6535  0.3473
13420TIP3    H161675   2.395   3.612  13.615 -1.2275 -1.1350 -0.0149
13420TIP3    H261676   2.529   3.540  13.612 -0.2494  0.5414  1.4337
13421TIP3   OH261677   1.537   2.450   2.699 -0.2112 -0.1917  0.2173
13421TIP3    H161678   1.561   2.358   2.697  0.1526 -0.1050  0.5368
13421TIP3    H261679   1.519   2.469   2.791 -0.5589 -0.0120  0.1159
13422TIP3   OH261680   3.672   0.465  15.622  0.1890  0.1006 -0.6124
13422TIP3    H161681   3.605   0.409  15.584  0.0727  1.8006 -3.1072
13422TIP3    H261682   3.745   0.461  15.560  1.7639 -0.3711  1.1830
13423TIP3   OH261683   1.232   4.488  11.650  0.4559  0.4227 -0.1947
13423TIP3    H161684   1.317   4.444  11.646  0.3936  0.3744 -1.2310
13423TIP3    H261685   1.244   4.567  11.598 -0.0317  0.6052 -0.0324
13424TIP3   OH261686   2.689   2.073   4.092  0.0361 -0.0353 -0.2391
13424TIP3    H161687   2.779   2.099   4.078 -0.0995 -0.3190 -1.7819
13424TIP3    H261688   2.694   1.980   4.118  0.1652 -0.1400 -0.6444
13425TIP3   OH261689   2.833   4.555  10.802  0.0027 -0.3694  0.4669
13425TIP3    H161690   2.778   4.544  10.724  0.3701  0.6410  0.0487
13425TIP3    H261691   2.798   4.631  10.846 -0.6126 -1.3213  1.6790
13426TIP3   OH261692   2.174   2.455   0.050 -0.6968  0.2130  0.1648
13426TIP3    H161693   2.155   2.461  -0.043 -2.2790 -0.0270  0.4498
13426TIP3    H261694   2.142   2.369   0.076 -0.0508  0.1809  0.8900
13427TIP3   OH261695   2.048   4.972  14.659 -0.5699 -0.1468  0.1137
13427TIP3    H161696   1.959   5.005  14.669 -0.4045  0.1212  0.7585
13427TIP3    H261697   2.098   5.048  14.629 -0.1219  0.3137  1.9162
13428TIP3   OH261698   5.493   2.766  16.423 -0.4060  0.1306 -0.3390
13428TIP3    H161699   5.456   2.756  16.510 -1.0587  1.8158 -0.3707
13428TIP3    H261700   5.418   2.751  16.364 -0.3478  0.5888 -0.5329
13429TIP3   OH261701   2.168   0.574  16.019  0.0200 -0.4670 -0.3674
13429TIP3    H161702   2.234   0.550  15.955  0.8167 -0.5061  0.4444
13429TIP3    H261703   2.164   0.499  16.078  0.7555  0.3508  0.7714
13430TIP3   OH261704   5.834   0.403  16.465 -0.2303 -0.3785  0.0735
13430TIP3    H161705   5.804   0.376  16.378 -0.8543 -0.7289  0.3889
13430TIP3    H261706   5.783   0.349  16.525 -0.0839  0.1356  0.6659
13431TIP3   OH261707   6.509   0.304  11.182  0.0551  0.3379  0.1931
13431TIP3    H161708   6.592   0.345  11.157 -1.0354  3.0307  0.7556
13431TIP3    H261709   6.520   0.282  11.274  0.4193 -0.1344  0.0463
13432TIP3   OH261710   0.320   5.051   0.486 -0.3715 -0.2532 -0.0556
13432TIP3    H161711   0.289   4.997   0.413 -0.8325  0.1326 -0.1532
13432TIP3    H261712   0.415   5.054   0.475 -0.4024 -0.5107 -0.4233
13433TIP3   OH261713   5.177   0.335  15.333 -0.3489 -0.5132 -0.1871
13433TIP3    H161714   5.097   0.363  15.377  0.9422  1.1036  1.2726
13433TIP3    H261715   5.153   0.328  15.241 -1.8249  1.2642  0.0121
13434TIP3   OH261716   5.668   1.095  13.154  0.0477  0.3933 -0.0707
13434TIP3    H161717   5.692   1.107  13.062  1.9201  0.6382  0.4237
13434TIP3    H261718   5.724   1.023  13.184  0.0763  0.8865  1.1040
13435TIP3   OH261719   0.955   2.746   1.650  0.2514 -0.0249  0.2716
13435TIP3    H161720   1.016   2.685   1.609  0.2513  0.6100 -0.7143
13435TIP3    H261721   0.887   2.760   1.584 -0.5622 -0.1398  1.0729
13436TIP3   OH261722   2.582   6.277  13.664  0.0810  0.6765  0.1553
13436TIP3    H161723   2.629   6.304  13.586  0.8436 -0.0414  0.3567
13436TIP3    H261724   2.596   6.349  13.726  0.2477  0.8251 -0.0513
13437TIP3   OH261725   5.356   5.359  16.991 -0.4561 -0.0245  0.2686
13437TIP3    H161726   5.416   5.284  16.983 -1.0826 -0.4123 -1.1955
13437TIP3    H261727   5.315   5.366  16.905 -1.8657  0.7874  0.9647
13438TIP3   OH261728   4.261   1.190  12.714  0.1551  0.4740  0.1379
13438TIP3    H161729   4.338   1.238  12.744  0.7806  0.4907 -1.4101
13438TIP3    H261730   4.195   1.257  12.698 -1.0913  0.3125  3.7056
13439TIP3   OH261731   2.644   6.772  14.016 -0.0826  0.4325 -0.2411
13439TIP3    H161732   2.647   6.814  14.102 -0.3702  0.7895 -0.4013
13439TIP3    H261733   2.673   6.682  14.032 -0.9928  0.2291  0.3978
13440TIP3   OH261734   2.255   3.085  13.851 -0.2274  0.0879 -0.8748
13440TIP3    H161735   2.345   3.112  13.870 -0.0511 -0.2072 -1.2521
13440TIP3    H261736   2.202   3.163  13.865  0.0852  0.2539 -0.6159
13441TIP3   OH261737   3.926   1.235   3.323  0.2469 -0.2686 -0.3437
13441TIP3    H161738   3.945   1.144   3.347 -1.0136  0.0472  2.1457
13441TIP3    H261739   3.834   1.247   3.345 -0.1613  1.1026 -2.5065
13442TIP3   OH261740   2.800   5.019  12.653  0.3933  0.3149 -0.3403
13442TIP3    H161741   2.719   5.047  12.695 -0.2123 -1.4971 -0.1919
13442TIP3    H261742   2.857   5.096  12.657 -0.3730  0.8627  1.9417
13443TIP3   OH261743   5.208   2.963   2.473 -0.2498  0.2017  0.0654
13443TIP3    H161744   5.281   2.919   2.516 -1.9503 -0.8546  2.0912
13443TIP3    H261745   5.200   2.920   2.388  1.7782  0.7246 -0.4298
13444TIP3   OH261746   3.936   5.883   0.364 -0.5963 -0.3422  0.0073
13444TIP3    H161747   3.859   5.929   0.330  0.1487  1.1320  0.2636
13444TIP3    H261748   4.010   5.922   0.319  0.0553 -1.4696  0.0604
13445TIP3   OH261749   4.655   1.542   4.300 -0.9141  0.2893 -0.5038
13445TIP3    H161750   4.648   1.541   4.396  0.7048 -0.1074 -0.3529
13445TIP3    H261751   4.630   1.453   4.274  1.4597 -0.5808 -0.1316
13446TIP3   OH261752   1.341   0.834  16.232 -0.4822 -0.2064  0.1733
13446TIP3    H161753   1.416   0.887  16.204  0.1481 -1.1460  0.0444
13446TIP3    H261754   1.325   0.860  16.323 -0.3107  0.3389  0.0528
13447TIP3   OH261755   3.956   5.080  13.287  0.3428  0.2402  0.3296
13447TIP3    H161756   3.885   5.079  13.222  0.5841 -1.9351  0.0043
13447TIP3    H261757   3.943   4.999  13.337  2.7105 -0.3815  0.0796
13448TIP3   OH261758   5.543   2.412  12.130  0.2377 -0.0181 -0.3048
13448TIP3    H161759   5.459   2.458  12.128  0.5609  0.5512 -1.9126
13448TIP3    H261760   5.520   2.320  12.136 -0.4482  0.2155  1.1591
13449TIP3   OH261761   5.675   4.843  14.751  0.4470 -0.5404  0.1087
13449TIP3    H161762   5.752   4.848  14.807  1.4951  1.6497 -1.4121
13449TIP3    H261763   5.607   4.889  14.799  1.2343  1.0025 -0.1899
13450TIP3   OH261764   4.677   0.775   3.484  0.0193 -0.3624  0.0222
13450TIP3    H161765   4.621   0.712   3.529  2.3494 -1.6525  1.3225
13450TIP3    H261766   4.699   0.839   3.552  1.5839 -0.9485  0.1092
13451TIP3   OH261767   1.098   1.514  11.933  0.4833  0.4039  0.3746
13451TIP3    H161768   1.149   1.594  11.925 -0.7445  1.0528 -1.6680
13451TIP3    H261769   1.007   1.543  11.936  0.0480 -0.8641  0.2506
13452TIP3   OH261770   4.333   4.357   3.552 -0.3043  0.4709  0.1862
13452TIP3    H161771   4.300   4.434   3.599  0.9928  0.2481  1.5388
13452TIP3    H261772   4.266   4.290   3.566  0.3353  0.2156  2.3327
13453TIP3   OH261773   2.170   6.550   3.260  0.1945  0.2777  0.1619
13453TIP3    H161774   2.165   6.480   3.326 -4.6144  2.2744  2.4048
13453TIP3    H261775   2.180   6.503   3.177  0.7554 -2.7683  1.7821
13454TIP3   OH261776   3.367   4.428  13.787 -0.2948 -0.2490 -0.0170
13454TIP3    H161777   3.413   4.376  13.853 -0.6659 -0.0429  0.4180
13454TIP3    H261778   3.350   4.511  13.831 -0.2190  0.0261 -0.5067
13455TIP3   OH261779   4.614   4.569   2.873  0.1541  0.1471 -0.4967
13455TIP3    H161780   4.656   4.490   2.906 -0.6518 -0.0685  0.0546
13455TIP3    H261781   4.536   4.537   2.827  2.0866  0.2894 -4.1958
13456TIP3   OH261782   4.589   5.454  14.608 -0.5221  0.0357 -0.1643
13456TIP3    H161783   4.683   5.434  14.611 -0.3759  0.6946 -0.0731
13456TIP3    H261784   4.573   5.476  14.516 -0.3664  0.8807 -0.0019
13457TIP3   OH261785   5.168   3.857  12.809  0.2996 -0.0376  0.5601
13457TIP3    H161786   5.253   3.837  12.848  1.0149  0.6714 -0.5831
13457TIP3    H261787   5.169   3.952  12.797  0.1576 -0.2409 -1.2453
13458TIP3   OH261788   5.518   0.105   0.181 -0.3250 -0.0237 -0.3623
13458TIP3    H161789   5.577   0.030   0.172  0.8519  0.7292  0.6869
13458TIP3    H261790   5.448   0.088   0.118  0.7265 -1.2158 -1.2715
13459TIP3   OH261791   5.978   5.463   1.148  0.2076 -0.5125 -0.3395
13459TIP3    H161792   5.982   5.392   1.084  0.8779 -0.2888 -0.5535
13459TIP3    H261793   6.059   5.456   1.197  1.1234  1.1636 -1.5171
13460TIP3   OH261794   0.520   4.757   4.423 -0.3031  0.7354 -0.0903
13460TIP3    H161795   0.542   4.725   4.511  0.3782 -0.1396 -0.5581
13460TIP3    H261796   0.577   4.833   4.410  1.3488 -0.5313 -0.6524
13461TIP3   OH261797   6.088   5.141   6.758  0.7524 -0.1995 -0.5050
13461TIP3    H161798   6.059   5.052   6.736 -1.1499  0.8080 -2.4451
13461TIP3    H261799   6.031   5.198   6.706  0.6408  2.2493  2.0734
13462TIP3   OH261800   0.881   1.141  11.329  0.0471 -0.9718 -0.3485
13462TIP3    H161801   0.972   1.149  11.302 -0.1763 -0.3046 -0.9207
13462TIP3    H261802   0.868   1.046  11.340  0.8225 -1.0694 -0.1801
13463TIP3   OH261803   2.566   3.822  13.324 -0.5057 -0.1525  0.6319
13463TIP3    H161804   2.629   3.894  13.313 -0.1763 -0.6888 -1.4155
13463TIP3    H261805   2.620   3.745  13.341 -0.5379 -0.6164 -1.1418
13464TIP3   OH261806   4.194   4.622   2.043  0.5955  0.2102  0.1566
13464TIP3    H161807   4.150   4.692   2.091  1.0504 -0.0192  0.9132
13464TIP3    H261808   4.286   4.629   2.069  0.4897 -1.3065  1.0289
13465TIP3   OH261809   3.394   3.304  16.336 -0.4109 -0.2006 -0.3000
13465TIP3    H161810   3.408   3.307  16.431  0.6929  0.0722 -0.4490
13465TIP3    H261811   3.404   3.395  16.308 -1.4394 -0.1719 -0.5948
13466TIP3   OH261812   5.864   2.328  15.591  0.0158 -0.2722  0.2191
13466TIP3    H161813   5.939   2.379  15.562  1.3404 -1.6687  1.0729
13466TIP3    H261814   5.794   2.352  15.531  1.3587  0.4267 -1.1224
13467TIP3   OH261815   3.123   2.333   0.972  0.0514  0.2331  0.3392
13467TIP3    H161816   3.045   2.322   1.026  0.7522 -0.7353  1.2109
13467TIP3    H261817   3.102   2.287   0.891 -0.9492  1.5516 -0.1815
13468TIP3   OH261818   4.283   4.377   0.515  0.3445  0.1867 -0.0401
13468TIP3    H161819   4.257   4.441   0.449  1.1529 -0.5481 -1.1006
13468TIP3    H261820   4.287   4.294   0.468  1.1876 -0.3164  0.8784
13469TIP3   OH261821   2.157   6.215  14.491  0.6979 -0.3342  0.2612
13469TIP3    H161822   2.131   6.304  14.469  0.3052 -0.6193 -0.4527
13469TIP3    H261823   2.189   6.221  14.581 -0.0204  0.3851  0.4786
13470TIP3   OH261824   4.982   1.189  17.130  0.5160 -0.0722  0.0870
13470TIP3    H161825   5.024   1.257  17.184  2.3606 -1.2151  0.1856
13470TIP3    H261826   5.054   1.148  17.082 -0.6790 -1.2774 -0.7775
13471TIP3   OH261827   1.981   4.498  11.718 -0.0078  0.6810 -0.4867
13471TIP3    H161828   2.025   4.454  11.790  0.1156  0.7511 -0.5183
13471TIP3    H261829   2.051   4.519  11.656 -0.1690  0.2462 -0.8239
13472TIP3   OH261830   1.460   4.821  13.605 -0.7233 -0.0155 -0.2213
13472TIP3    H161831   1.415   4.796  13.686  0.6606 -1.2054  0.2346
13472TIP3    H261832   1.549   4.841  13.633 -1.0340  2.8707 -1.0002
13473TIP3   OH261833   6.638   3.759   2.479  0.2771  0.0622 -0.3609
13473TIP3    H161834   6.568   3.696   2.457 -0.9809  0.7282  1.5523
13473TIP3    H261835   6.592   3.841   2.494  1.5556  0.6599  0.3806
13474TIP3   OH261836   3.686   0.236   0.501  0.0810  0.4196  0.8250
13474TIP3    H161837   3.753   0.265   0.439  0.3781  2.1095  1.8829
13474TIP3    H261838   3.603   0.250   0.455  0.3543  0.1824  0.2437
13475TIP3   OH261839   5.756   5.474  14.371  1.0887  0.0231 -0.0967
13475TIP3    H161840   5.749   5.432  14.285  0.9612 -1.1336  0.4496
13475TIP3    H261841   5.838   5.440  14.408 -0.0627 -1.5213  1.2305
13476TIP3   OH261842   2.000   3.245   5.136 -0.4684  0.4520  0.4173
13476TIP3    H161843   2.029   3.291   5.057  0.9763 -1.0392  0.0242
13476TIP3    H261844   2.034   3.156   5.127 -1.7753 -0.2666  1.9158
13477TIP3   OH261845   1.933   2.851   1.474 -0.6648 -0.0995 -0.4141
13477TIP3    H161846   1.928   2.759   1.449  1.2256 -0.6523  1.0544
13477TIP3    H261847   1.922   2.851   1.569  0.4182  1.0604 -0.2694
13478TIP3   OH261848   5.548   0.175   6.296 -0.5551 -0.5479  0.4940
13478TIP3    H161849   5.570   0.224   6.376 -2.0982 -0.2947  0.7995
13478TIP3    H261850   5.573   0.085   6.316 -1.4578 -0.6003  1.5338
13479TIP3   OH261851   3.742   2.280   5.349 -0.0958  0.0605  0.0394
13479TIP3    H161852   3.814   2.342   5.358  0.5594 -0.5216 -1.0041
13479TIP3    H261853   3.784   2.194   5.346 -0.9202 -0.3796  0.5006
13480TIP3   OH261854   6.048   3.199  12.143 -0.3439 -0.1907 -0.5221
13480TIP3    H161855   5.985   3.266  12.169 -0.3471 -0.4738  0.2282
13480TIP3    H261856   5.994   3.124  12.118 -0.3355  0.0242 -1.2133
13481TIP3   OH261857   0.003   3.200  17.229 -0.1356  0.1764  0.3401
13481TIP3    H161858   0.012   3.134  17.160 -0.5568  1.3047 -0.8325
13481TIP3    H261859   0.019   3.151  17.311 -1.0123 -1.4984 -0.4257
13482TIP3   OH261860   3.337   0.325  13.358 -0.4356 -0.1071 -0.6912
13482TIP3    H161861   3.267   0.316  13.422 -0.9664 -0.4293 -1.2959
13482TIP3    H261862   3.314   0.404  13.309 -0.7585 -0.5936 -1.3384
13483TIP3   OH261863   4.819   5.934  13.378  0.1043 -0.6640  0.2550
13483TIP3    H161864   4.814   6.029  13.389 -2.0970 -0.7347  0.3351
13483TIP3    H261865   4.836   5.922  13.285 -1.5574 -0.1495 -0.1562
13484TIP3   OH261866   0.673   2.672  12.798  0.2120  0.0108  0.0116
13484TIP3    H161867   0.632   2.665  12.885 -0.7855 -0.2972 -0.4672
13484TIP3    H261868   0.716   2.587  12.785  0.3052  0.0321  0.1781
13485TIP3   OH261869   2.388   5.355  15.468 -0.2106 -0.3723  0.2395
13485TIP3    H161870   2.391   5.276  15.522  0.0605 -0.4852  0.0619
13485TIP3    H261871   2.421   5.327  15.382 -1.5817 -0.4249 -0.2867
13486TIP3   OH261872   5.770   0.834  13.235 -0.0746 -0.1725  0.1315
13486TIP3    H161873   5.827   0.846  13.310 -0.0200 -1.4907  0.3233
13486TIP3    H261874   5.682   0.828  13.272 -0.1635  0.2557 -0.0097
13487TIP3   OH261875   0.830   1.208  13.786  0.4569  0.1786 -0.1385
13487TIP3    H161876   0.886   1.216  13.709  1.0405 -1.2259  0.1020
13487TIP3    H261877   0.892   1.205  13.860 -0.0633  0.8856  0.3433
13488TIP3   OH261878   2.166   2.829  14.894 -0.2678 -0.0110  0.3600
13488TIP3    H161879   2.128   2.907  14.853  0.5232  0.2092  0.0199
13488TIP3    H261880   2.252   2.858  14.924  0.1661 -0.8441 -0.0659
13489TIP3   OH261881   3.683   0.445   0.293 -0.2901 -0.0656  0.2890
13489TIP3    H161882   3.649   0.509   0.356 -0.2586 -0.6904  0.9541
13489TIP3    H261883   3.777   0.440   0.313 -0.1393  0.2680 -0.3019
13490TIP3   OH261884   6.685   4.454  16.463 -0.2335  0.7502 -0.1765
13490TIP3    H161885   6.609   4.400  16.441  1.2111 -1.0902 -0.8775
13490TIP3    H261886   6.688   4.520  16.394 -0.8711  0.5019 -0.4540
13491TIP3   OH261887   3.949   0.356  15.518  0.2825  0.4398 -0.1321
13491TIP3    H161888   3.892   0.285  15.487 -0.6531  0.6930  0.9542
13491TIP3    H261889   4.011   0.370  15.446 -1.0769  0.2123 -1.3995
13492TIP3   OH261890   6.536   0.564   4.791 -0.0812  0.4840  0.3549
13492TIP3    H161891   6.465   0.620   4.823 -1.0757 -0.4483 -0.1530
13492TIP3    H261892   6.498   0.518   4.716  0.4801 -1.3525  1.1347
13493TIP3   OH261893   1.666   4.635   1.776  0.1122 -0.0738  0.6525
13493TIP3    H161894   1.611   4.622   1.853 -1.7516 -2.3383 -0.9070
13493TIP3    H261895   1.719   4.556   1.771 -0.5997 -0.4993 -0.9347
13494TIP3   OH261896   4.993   5.615  12.660 -0.7009  0.7738 -0.4926
13494TIP3    H161897   5.048   5.669  12.604 -1.1873  0.1026 -1.6449
13494TIP3    H261898   4.904   5.632  12.630 -1.1234  1.5162  1.0580
13495TIP3   OH261899   2.811   0.472   1.990 -0.1354  0.1526 -0.2422
13495TIP3    H161900   2.887   0.453   1.934  0.1064 -0.7643  0.3765
13495TIP3    H261901   2.841   0.451   2.079 -0.9442  0.2935  0.0707
13496TIP3   OH261902   2.190   3.287  17.110  0.1704  0.0780  0.4044
13496TIP3    H161903   2.129   3.214  17.098  0.4222 -0.0776  0.0455
13496TIP3    H261904   2.246   3.260  17.183  1.0083 -0.6057 -0.4644
13497TIP3   OH261905   4.322   2.632   4.018 -0.4784 -0.4766  0.5357
13497TIP3    H161906   4.416   2.646   4.030 -0.0505 -1.3394 -1.4219
13497TIP3    H261907   4.282   2.715   4.043  0.6310 -0.5166  2.7440
13498TIP3   OH261908   6.262   2.631   2.403  0.0502  0.6625 -0.5754
13498TIP3    H161909   6.310   2.551   2.383 -0.2038  0.1525  0.7550
13498TIP3    H261910   6.230   2.618   2.492  1.3994  2.9165  0.3207
13499TIP3   OH261911   4.198   0.122  12.829  0.0855  0.1521  0.2802
13499TIP3    H161912   4.204   0.108  12.734 -0.2362 -0.2829  0.3237
13499TIP3    H261913   4.114   0.166  12.841  0.8568  1.7336  0.1976
13500TIP3   OH261914   4.197   5.333  16.625  0.0081  0.3969  0.3088
13500TIP3    H161915   4.108   5.354  16.653 -0.0793  1.3805 -0.6137
13500TIP3    H261916   4.228   5.414  16.583  2.2447  0.9273  2.7762
13501TIP3   OH261917   6.334   2.733   0.300 -0.0967  0.0701  0.0323
13501TIP3    H161918   6.303   2.730   0.209 -1.6825 -0.4501  0.5551
13501TIP3    H261919   6.296   2.656   0.341  1.1288 -0.0504  1.0065
13502TIP3   OH261920   0.835   4.372   2.949  0.3251 -0.3289 -0.0894
13502TIP3    H161921   0.903   4.308   2.970  0.9673  0.5077  0.4321
13502TIP3    H261922   0.823   4.423   3.030 -0.7896 -0.3373 -0.2289
13503TIP3   OH261923   2.073   0.626   2.362 -0.2987  0.1730  0.2863
13503TIP3    H161924   2.123   0.691   2.411 -0.6621  0.1798  0.6546
13503TIP3    H261925   2.005   0.597   2.423 -2.1286  1.7468 -0.9004
13504TIP3   OH261926   0.029   4.196   0.795 -0.6058 -0.3263  0.5300
13504TIP3    H161927  -0.059   4.197   0.758 -0.5487  1.7708  0.3650
13504TIP3    H261928   0.018   4.223   0.886 -0.0515  0.9187  0.2450
13505TIP3   OH261929   0.910   1.625  12.674 -0.0481  0.8620 -0.3434
13505TIP3    H161930   0.856   1.627  12.753  0.2700  1.1089 -0.1285
13505TIP3    H261931   0.939   1.716  12.663 -0.6873  0.9800 -1.1607
13506TIP3   OH261932   1.647   3.322  10.727 -0.0515  0.0469  0.1551
13506TIP3    H161933   1.671   3.381  10.798 -0.0351  0.9687 -0.5998
13506TIP3    H261934   1.729   3.309  10.678  0.2436 -1.6165  1.0157
13507TIP3   OH261935   1.938   0.958   0.869  0.0041  0.1040 -0.2914
13507TIP3    H161936   1.850   0.967   0.904 -0.3778  0.5011 -1.3316
13507TIP3    H261937   1.947   1.030   0.806  0.6705 -0.5869 -1.0051
13508TIP3   OH261938   1.116   2.304  14.196 -0.4430 -0.3119  0.3311
13508TIP3    H161939   1.180   2.253  14.245  0.4315 -0.3693 -0.8080
13508TIP3    H261940   1.099   2.381  14.250  2.3448  0.8669 -0.2589
13509TIP3   OH261941   5.916   4.168   1.106  0.0858  0.3496 -0.1422
13509TIP3    H161942   5.867   4.203   1.181  0.9506  0.5820  0.3345
13509TIP3    H261943   5.888   4.077   1.100  2.0482 -0.5427  2.3106
13510TIP3   OH261944   0.037   3.175  15.519 -0.5623 -0.0028 -0.8599
13510TIP3    H161945   0.103   3.196  15.452  0.3471  0.5990  0.1899
13510TIP3    H261946   0.053   3.083  15.540  1.1960  0.5738  0.6566
13511TIP3   OH261947   4.653   2.074   4.730  0.5278 -0.8048 -0.2783
13511TIP3    H161948   4.653   1.986   4.692  0.2002 -0.9426  0.0415
13511TIP3    H261949   4.691   2.062   4.817  1.0911 -0.5207 -0.4808
13512TIP3   OH261950   0.459   2.648  12.292  0.1585  0.3789  0.2367
13512TIP3    H161951   0.486   2.735  12.321  0.7979 -0.0436  0.9785
13512TIP3    H261952   0.496   2.589  12.358  2.0305 -0.6924 -1.6417
13513TIP3   OH261953   3.198   2.130  12.610  0.4315 -0.1683  0.3286
13513TIP3    H161954   3.293   2.132  12.625  0.7661  0.1467 -1.5497
13513TIP3    H261955   3.176   2.220  12.587 -0.3089 -0.2782  0.5922
13514TIP3   OH261956   6.739   4.658   4.357 -0.0045  0.1325 -0.7844
13514TIP3    H161957   6.801   4.714   4.404 -0.4613 -0.4109  0.5072
13514TIP3    H261958   6.653   4.684   4.389 -0.2265 -1.2943 -0.1078
13515TIP3   OH261959   0.909   2.039  14.973  0.2234  0.1094 -0.3305
13515TIP3    H161960   0.993   1.995  14.986  0.9248  0.8999 -1.8752
13515TIP3    H261961   0.849   1.994  15.032  1.1089 -2.2592 -1.1209
13516TIP3   OH261962   4.230   0.690   2.851 -0.1131  0.1832 -0.2181
13516TIP3    H161963   4.142   0.653   2.849 -0.0187 -0.0383 -1.2998
13516TIP3    H261964   4.284   0.622   2.890  0.0712 -0.9077 -2.2411
13517TIP3   OH261965   2.477   0.426  16.044  0.5038  0.3314 -0.0121
13517TIP3    H161966   2.433   0.495  16.094 -0.5256 -0.2698 -0.0497
13517TIP3    H261967   2.414   0.404  15.975  1.6315  0.6995 -1.1865
13518TIP3   OH261968   2.735   5.970   2.311 -0.1806 -0.0975 -0.3763
13518TIP3    H161969   2.789   6.023   2.370  0.7918 -0.5358 -0.8548
13518TIP3    H261970   2.670   6.031   2.277  0.9387  0.8296 -0.9474
13519TIP3   OH261971   0.953   6.745  14.559  0.3214 -0.3781 -0.4451
13519TIP3    H161972   0.945   6.705  14.645 -0.8781 -1.3513 -0.9823
13519TIP3    H261973   0.909   6.684  14.500  0.9481  0.3656 -1.7259
13520TIP3   OH261974   5.491   5.727  17.032 -0.2905 -0.4055 -0.1194
13520TIP3    H161975   5.569   5.674  17.052 -0.5100 -0.9067 -0.5717
13520TIP3    H261976   5.432   5.666  16.988 -0.7132  0.1224 -0.2823
13521TIP3   OH261977   6.242   1.401   1.479  0.4254  0.2922  0.0173
13521TIP3    H161978   6.335   1.407   1.499  1.1786 -0.1501 -2.9497
13521TIP3    H261979   6.219   1.310   1.496  0.4330  0.4570  0.9797
13522TIP3   OH261980   6.313   3.165  13.926  0.3468 -0.5350 -0.0320
13522TIP3    H161981   6.228   3.206  13.912  2.0406  3.2769 -0.4686
13522TIP3    H261982   6.360   3.226  13.984  2.7462 -2.5451  0.3060
13523TIP3   OH261983   5.164   5.040   0.465 -0.4325 -0.1841  0.0045
13523TIP3    H161984   5.122   5.029   0.550  0.1690  1.5108  0.5524
13523TIP3    H261985   5.177   5.134   0.456  1.4191 -0.4770 -1.0157
13524TIP3   OH261986   3.187   6.479   1.820  0.9739 -0.1096 -0.4237
13524TIP3    H161987   3.184   6.384   1.822  0.3467 -0.1008 -0.8543
13524TIP3    H261988   3.269   6.500   1.774  1.2742 -0.4295 -0.0410
13525TIP3   OH261989   5.831   6.011  14.068  0.7082 -0.1173  0.3556
13525TIP3    H161990   5.766   5.953  14.029  1.5159 -0.7851 -0.0367
13525TIP3    H261991   5.880   6.045  13.993  0.3901  0.9018  0.5961
13526TIP3   OH261992   4.259   5.921  13.409  0.5234 -0.2118  0.3940
13526TIP3    H161993   4.283   5.851  13.469 -0.2996 -0.4640  0.4518
13526TIP3    H261994   4.299   5.896  13.326  0.7998 -0.4003  0.5831
13527TIP3   OH261995   4.773   4.800   5.196 -0.0876  0.1706 -0.0585
13527TIP3    H161996   4.804   4.762   5.278 -1.3869 -1.0664 -0.0964
13527TIP3    H261997   4.707   4.738   5.165  0.6247  0.4365 -2.2321
13528TIP3   OH261998   1.903   4.024   1.828 -0.1094  0.1907 -0.1662
13528TIP3    H161999   1.947   3.964   1.888 -0.5948  0.3630  0.3742
13528TIP3    H262000   1.835   4.064   1.881 -2.0678 -1.3266 -1.3892
13529TIP3   OH262001   4.367   1.101  12.299  0.1073  0.4534 -1.1381
13529TIP3    H162002   4.443   1.154  12.320  2.8991 -2.8594 -2.0126
13529TIP3    H262003   4.360   1.105  12.204 -0.4675  0.2651 -1.1099
13530TIP3   OH262004   5.219   1.248   1.717  0.4259  0.2238  0.1048
13530TIP3    H162005   5.263   1.296   1.646  0.8527  0.7186  0.6926
13530TIP3    H262006   5.127   1.248   1.691  0.8374 -1.6621 -1.6303
13531TIP3   OH262007   1.230   2.967  17.006  1.1521 -0.2648 -0.2058
13531TIP3    H162008   1.254   2.986  17.097  0.2670 -0.0661 -0.0066
13531TIP3    H262009   1.231   3.052  16.962  1.6258 -0.3662 -0.4019
13532TIP3   OH262010   0.785   1.089   1.618  0.0916 -0.1019 -0.3900
13532TIP3    H162011   0.827   1.162   1.572  0.2172  0.7778  1.0455
13532TIP3    H262012   0.714   1.062   1.560  1.0821  0.0380 -1.7081
13533TIP3   OH262013   4.209   3.381   5.951 -0.2257  0.2448  0.2521
13533TIP3    H162014   4.275   3.450   5.959 -1.7943  1.8575 -0.1900
13533TIP3    H262015   4.145   3.401   6.020 -1.0746 -0.3271 -0.3512
13534TIP3   OH262016   2.640   4.628   6.218 -0.6007  0.7886  0.3628
13534TIP3    H162017   2.661   4.542   6.183 -0.4489  1.0944 -0.3152
13534TIP3    H262018   2.545   4.636   6.208 -0.7437  0.3441  1.2657
13535TIP3   OH262019   0.825   2.242   4.226 -0.4893  0.3382 -0.2220
13535TIP3    H162020   0.803   2.327   4.189 -1.4028  0.8127  1.3206
13535TIP3    H262021   0.770   2.180   4.178 -0.0694  0.6381 -1.1146
13536TIP3   OH262022   5.206   3.054   5.725 -0.5304 -0.1020  0.0355
13536TIP3    H162023   5.299   3.066   5.708 -0.7748 -0.3854 -1.6505
13536TIP3    H262024   5.177   3.138   5.761  0.0345  0.5639 -1.0337
13537TIP3   OH262025   2.540   6.640  15.329 -0.4979 -0.2236  0.1961
13537TIP3    H162026   2.574   6.641  15.418  0.8037 -0.1005 -0.2888
13537TIP3    H262027   2.446   6.625  15.339 -0.5499  0.9157  1.6313
13538TIP3   OH262028   4.939   4.531  12.935  0.2263 -0.1369  0.4784
13538TIP3    H162029   4.938   4.446  12.892  0.4178  0.7272 -1.3218
13538TIP3    H262030   5.025   4.535  12.976  1.1499  0.0466 -1.3505
13539TIP3   OH262031   5.086   4.837   4.880  0.3891  0.1182 -0.7125
13539TIP3    H162032   5.052   4.757   4.920  0.2037  0.1471 -0.8071
13539TIP3    H262033   5.169   4.812   4.841  0.1089 -0.1469 -1.1556
13540TIP3   OH262034   1.292   4.628  12.092  0.3473  0.0766  1.0643
13540TIP3    H162035   1.216   4.633  12.150 -1.3380 -1.1456 -0.8847
13540TIP3    H262036   1.263   4.669  12.011  1.5086 -1.0674  0.0199
13541TIP3   OH262037   0.942   1.110  16.531 -0.1660 -0.1099  0.3021
13541TIP3    H162038   0.981   1.105  16.619  0.0126 -0.3642  0.2089
13541TIP3    H262039   0.863   1.056  16.536 -0.4287  0.2790  0.4469
13542TIP3   OH262040   5.682   4.252   5.295  0.2684 -0.3639  0.1743
13542TIP3    H162041   5.703   4.298   5.377  1.5693  0.9428 -0.8470
13542TIP3    H262042   5.587   4.244   5.297  0.2414 -0.0902  1.6755
13543TIP3   OH262043   4.824   1.612  12.280 -0.4747 -0.4952  0.1404
13543TIP3    H162044   4.813   1.689  12.336  0.8355 -0.7100  0.7235
13543TIP3    H262045   4.917   1.593  12.284 -0.3312 -0.5148 -2.1440
13544TIP3   OH262046   6.034   6.711  13.815 -0.6550 -0.7584 -0.3951
13544TIP3    H162047   5.939   6.717  13.814 -0.6894 -1.3522 -0.5619
13544TIP3    H262048   6.054   6.654  13.889 -0.3888 -0.0494  0.1010
13545TIP3   OH262049   2.880   3.613   1.814  0.3999  0.9740  0.1115
13545TIP3    H162050   2.926   3.578   1.738  1.1495 -2.6758  2.0226
13545TIP3    H262051   2.928   3.577   1.889 -2.5011  1.2912  2.2649
13546TIP3   OH262052   6.353   0.089   2.909  0.0133 -0.1441  0.2941
13546TIP3    H162053   6.397   0.020   2.860  0.1605 -0.1163  0.3871
13546TIP3    H262054   6.287   0.123   2.848  1.6076  1.3580 -0.6871
13547TIP3   OH262055   5.319   2.213  12.549 -0.3494  0.1525 -0.4008
13547TIP3    H162056   5.244   2.153  12.549  0.5340 -0.9941  0.0313
13547TIP3    H262057   5.348   2.214  12.458  0.2280 -0.8718 -0.2393
13548TIP3   OH262058   4.488   1.828   2.815 -0.4140  0.1388  0.5407
13548TIP3    H162059   4.411   1.878   2.842 -0.6961  0.1447 -0.2300
13548TIP3    H262060   4.454   1.742   2.793  0.2149 -0.7695  2.8389
13549TIP3   OH262061   0.617   1.782   4.683 -0.5720  0.6493  0.1245
13549TIP3    H162062   0.707   1.751   4.690 -1.3346 -2.0704 -0.8337
13549TIP3    H262063   0.612   1.822   4.596 -0.2885  0.9079  0.2237
13550TIP3   OH262064   1.417   1.809   2.617  0.2614  0.0893  0.4673
13550TIP3    H162065   1.330   1.842   2.592  0.0083 -0.9601 -0.0673
13550TIP3    H262066   1.400   1.749   2.689  0.5330 -0.2433  0.2518
13551TIP3   OH262067   0.689   4.951  14.440 -0.1723 -0.4358 -0.1269
13551TIP3    H162068   0.647   4.884  14.495 -1.6964 -0.1274 -0.8851
13551TIP3    H262069   0.761   4.904  14.397 -1.6028 -1.7761 -1.1453
13552TIP3   OH262070   5.543   6.784   2.149 -0.0355 -0.1641  0.1113
13552TIP3    H162071   5.572   6.731   2.223  1.6679  0.9041  0.2657
13552TIP3    H262072   5.516   6.867   2.189 -0.4819 -0.0910 -0.3406
13553TIP3   OH262073   6.354   6.291   4.268  0.2296  0.3645  0.4479
13553TIP3    H162074   6.308   6.207   4.270 -0.8965  0.9524  0.5704
13553TIP3    H262075   6.434   6.277   4.318  1.2063 -1.2552 -1.4318
13554TIP3   OH262076   4.708   2.463   5.599 -0.2404  0.3432 -0.2586
13554TIP3    H162077   4.613   2.460   5.610 -0.1610  0.8069  0.6573
13554TIP3    H262078   4.742   2.477   5.687  0.6070  1.7184 -0.7703
13555TIP3   OH262079   2.071   1.983   2.016 -0.5332  0.4739 -0.1619
13555TIP3    H162080   2.158   2.022   2.025  0.3045 -1.5752  1.6688
13555TIP3    H262081   2.013   2.046   2.058  0.1903  1.4345 -0.5544
13556TIP3   OH262082   6.502   2.185   5.970 -0.2080 -0.3610 -0.0470
13556TIP3    H162083   6.455   2.239   6.034 -0.7782 -0.3283 -0.4898
13556TIP3    H262084   6.433   2.144   5.918  0.2620  0.3485 -1.2583
13557TIP3   OH262085   3.615   0.377   2.105 -0.7603  0.1238 -0.5445
13557TIP3    H162086   3.622   0.287   2.072 -1.8067 -0.1454 -0.0797
13557TIP3    H262087   3.642   0.371   2.196  1.9131  0.8272 -1.2006
13558TIP3   OH262088   4.215   0.513   0.364  0.1985 -0.3806  0.3600
13558TIP3    H162089   4.255   0.576   0.424 -0.3646  2.3599 -1.9812
13558TIP3    H262090   4.288   0.480   0.312  0.4469 -1.5318  1.3829
13559TIP3   OH262091   5.454   2.399  16.462 -0.3092  0.3729 -0.1728
13559TIP3    H162092   5.511   2.330  16.431 -2.4218 -0.4153 -2.6861
13559TIP3    H262093   5.497   2.480  16.435  0.8237 -0.0677  0.2774
13560TIP3   OH262094   4.540   4.957  12.767 -0.0971  0.4257 -0.2102
13560TIP3    H162095   4.600   4.953  12.693  0.8299  0.8587  0.5001
13560TIP3    H262096   4.560   5.040  12.810  0.1083 -0.2905  1.1307
13561TIP3   OH262097   2.765   4.294   3.173 -0.1547  0.2710  0.0829
13561TIP3    H162098   2.830   4.348   3.129 -0.2060  1.1533  1.0636
13561TIP3    H262099   2.759   4.329   3.262 -0.8261 -0.7938  0.4873
13562TIP3   OH262100   1.547   1.183   4.988 -0.2795 -0.6495 -0.0171
13562TIP3    H162101   1.558   1.103   4.936  0.6615 -1.9741  2.0804
13562TIP3    H262102   1.454   1.184   5.011 -0.4931 -0.5950 -0.8613
13563TIP3   OH262103   0.695   6.143  14.620  0.0891  0.1579  0.4432
13563TIP3    H162104   0.777   6.192  14.613 -1.2628  2.4808 -0.1255
13563TIP3    H262105   0.694   6.111  14.710  0.4383  2.3738  1.2996
13564TIP3   OH262106   2.966   3.778  15.829  0.4038  0.1613 -0.7120
13564TIP3    H162107   2.923   3.818  15.905  0.3329 -1.2559  0.0113
13564TIP3    H262108   2.952   3.841  15.758  3.9648  3.6701  1.2669
13565TIP3   OH262109   1.411   1.800  14.927 -0.0260 -0.1861  0.3502
13565TIP3    H162110   1.378   1.888  14.908 -1.0008 -0.5012  0.5440
13565TIP3    H262111   1.385   1.783  15.017  0.4339 -0.5603  0.4188
13566TIP3   OH262112   4.664   5.642  10.580  0.3228  0.0957  0.0401
13566TIP3    H162113   4.633   5.566  10.630 -0.0334 -0.7574 -1.4380
13566TIP3    H262114   4.589   5.702  10.580  0.2345 -0.0132  0.3107
13567TIP3   OH262115   2.534   5.211  15.273  0.3937  0.4578  0.2147
13567TIP3    H162116   2.523   5.225  15.179 -0.7829  0.6499  0.3721
13567TIP3    H262117   2.507   5.120  15.287  1.3191  0.1778  0.2615
13568TIP3   OH262118   6.226   4.536   3.293 -0.8310 -0.1614 -0.0805
13568TIP3    H162119   6.306   4.552   3.343  0.2497  0.1187 -1.8263
13568TIP3    H262120   6.184   4.621   3.285 -0.9377 -0.1848  0.2310
13569TIP3   OH262121   2.112   5.494  13.949 -0.3705 -0.2493 -0.5471
13569TIP3    H162122   2.045   5.426  13.945 -0.4987 -0.1548 -0.1055
13569TIP3    H262123   2.074   5.563  14.003  0.4719 -0.6569  0.6284
13570TIP3   OH262124   6.295   5.897   0.794 -0.0186 -0.5990 -0.1874
13570TIP3    H162125   6.319   5.980   0.753 -0.9644  0.1576  0.7402
13570TIP3    H262126   6.377   5.863   0.830  0.2082  0.4359  0.3066
13571TIP3   OH262127   1.167   4.919  14.864 -0.0055  0.5602  0.0645
13571TIP3    H162128   1.226   4.904  14.790  0.8399 -0.8371  0.9922
13571TIP3    H262129   1.121   4.836  14.876 -1.2876  1.2544  0.1411
13572TIP3   OH262130   1.529   4.229   2.128 -0.5872 -0.3558 -0.2311
13572TIP3    H162131   1.436   4.204   2.127 -0.9640  0.9362  0.3314
13572TIP3    H262132   1.558   4.209   2.217 -0.9423  1.2622  0.2841
13573TIP3   OH262133   4.634   0.054  11.474 -0.0104 -0.1570 -0.6788
13573TIP3    H162134   4.570   0.041  11.404 -0.4671  1.2326 -0.5455
13573TIP3    H262135   4.588   0.027  11.554  0.5655 -1.9006 -0.8927
13574TIP3   OH262136   2.247   5.004   2.977  0.5696  0.0458  0.0352
13574TIP3    H162137   2.250   5.099   2.967  0.3117  0.2282  1.4988
13574TIP3    H262138   2.339   4.976   2.970  0.5860  0.3195 -0.9817
13575TIP3   OH262139   4.248   5.562  14.214 -0.1798 -0.1593  0.1376
13575TIP3    H162140   4.200   5.595  14.138 -0.3859  1.4440  0.9186
13575TIP3    H262141   4.182   5.556  14.283 -0.0441 -1.8185  0.1480
13576TIP3   OH262142   1.196   2.459  11.467  0.4547  0.4619 -0.1175
13576TIP3    H162143   1.277   2.452  11.417  0.7214 -0.1479  0.3864
13576TIP3    H262144   1.138   2.511  11.412  1.7340  2.3112  0.1957
13577TIP3   OH262145   0.493   6.787   2.164 -0.2916 -0.0660  0.3497
13577TIP3    H162146   0.492   6.818   2.073  1.5008 -1.4999 -0.2387
13577TIP3    H262147   0.570   6.828   2.203  0.0345 -0.9275  0.6317
13578TIP3   OH262148   1.508   6.025  11.728  0.2698 -0.0322  0.2397
13578TIP3    H162149   1.449   6.030  11.803  0.2854  1.2475  0.1895
13578TIP3    H262150   1.451   6.040  11.652  0.3295 -0.8559  0.0251
13579TIP3   OH262151   4.013   6.609  17.035 -0.0547 -0.0696  0.0708
13579TIP3    H162152   4.012   6.525  17.081 -0.8366  0.1047  0.3917
13579TIP3    H262153   3.921   6.635  17.032  0.2560  1.2236  0.8117
13580TIP3   OH262154   6.359   4.959   4.591 -0.0754  0.1419  0.3198
13580TIP3    H162155   6.310   5.028   4.634 -2.0117 -0.6570 -0.5005
13580TIP3    H262156   6.321   4.953   4.503  0.7294 -1.2756  0.0350
13581TIP3   OH262157   4.896   5.213  12.620 -0.5786  0.6445  0.1132
13581TIP3    H162158   4.905   5.121  12.646 -1.1404  0.3202 -0.7907
13581TIP3    H262159   4.896   5.261  12.702  1.5117  0.0094  0.5394
13582TIP3   OH262160   6.417   4.607  12.383 -0.3619 -0.9423 -0.5520
13582TIP3    H162161   6.365   4.667  12.330 -1.6279 -0.9547  0.6408
13582TIP3    H262162   6.459   4.550  12.319  0.7890  1.0890 -1.7151
13583TIP3   OH262163   0.133   5.139  16.886  0.6927 -0.2369 -0.5894
13583TIP3    H162164   0.080   5.214  16.913  2.2357  1.2309 -1.4390
13583TIP3    H262165   0.069   5.073  16.859 -0.7092  1.3220 -1.2587
13584TIP3   OH262166   3.785   2.812   5.132 -0.4312  0.4443  0.3191
13584TIP3    H162167   3.838   2.787   5.208  0.1288 -0.9419 -0.4709
13584TIP3    H262168   3.806   2.745   5.066 -1.7296  0.9752 -0.6753
13585TIP3   OH262169   2.302   1.600   4.857 -0.5625 -0.1335  0.2667
13585TIP3    H162170   2.315   1.695   4.855 -0.9266 -0.0811  0.4713
13585TIP3    H262171   2.230   1.587   4.918  0.6747 -0.6771  1.6680
13586TIP3   OH262172   6.515   4.168   1.857  0.1145  0.7407 -0.7802
13586TIP3    H162173   6.578   4.191   1.925 -1.2097 -0.7373  1.0468
13586TIP3    H262174   6.434   4.214   1.883 -1.1440 -1.8365  0.1777
13587TIP3   OH262175   1.695   1.295  11.720  0.1672 -0.1856 -0.1597
13587TIP3    H162176   1.621   1.354  11.737 -1.1046 -1.5592 -0.6944
13587TIP3    H262177   1.756   1.314  11.791 -1.1541  0.2877  0.9090
13588TIP3   OH262178   2.953   4.723   1.311 -0.0243 -0.7044 -0.1092
13588TIP3    H162179   3.022   4.788   1.322 -0.6871 -0.0968  0.5346
13588TIP3    H262180   2.990   4.659   1.249  1.5757 -1.0231  1.0998
13589TIP3   OH262181   6.045   3.744  16.293 -0.1648 -0.3031 -0.1305
13589TIP3    H162182   6.072   3.673  16.353  0.2517  0.6111  0.7980
13589TIP3    H262183   6.040   3.702  16.207 -1.7499 -1.9044  0.6642
13590TIP3   OH262184   4.967   0.533  14.141  0.5625  0.0373  0.1628
13590TIP3    H162185   4.982   0.438  14.144 -1.6449 -0.3694  0.5981
13590TIP3    H262186   4.926   0.553  14.226 -0.8064  0.9759 -0.6743
13591TIP3   OH262187   2.276   0.886  15.544 -0.3238 -0.4963  1.0505
13591TIP3    H162188   2.297   0.936  15.623  0.6246 -1.2561  1.3129
13591TIP3    H262189   2.361   0.857  15.511 -0.8059 -1.5760  0.6898
13592TIP3   OH262190   5.359   4.497   2.119 -0.3515  0.4257  0.3312
13592TIP3    H162191   5.408   4.548   2.054 -2.8763  2.3084 -0.2493
13592TIP3    H262192   5.356   4.553   2.196  1.1249 -1.0734  1.5637
13593TIP3   OH262193   4.662   3.440   0.439 -0.1120  0.7614 -0.5200
13593TIP3    H162194   4.644   3.457   0.346 -0.3967 -0.8581 -0.7993
13593TIP3    H262195   4.646   3.346   0.449 -0.4408  0.9731  1.2592
13594TIP3   OH262196   1.408   4.908  12.099 -0.1191 -0.3489 -0.3093
13594TIP3    H162197   1.434   4.937  12.187  1.2929  0.3520 -0.9299
13594TIP3    H262198   1.398   4.813  12.107  1.0289 -0.4318  0.3749
13595TIP3   OH262199   4.158   4.237   6.337  0.0622  0.1413  0.3693
13595TIP3    H162200   4.084   4.297   6.344 -0.8361 -0.6627 -1.4392
13595TIP3    H262201   4.121   4.158   6.296  1.6790 -0.7355  0.5278
13596TIP3   OH262202   5.728   2.773   4.884  0.4004  0.9504 -0.1849
13596TIP3    H162203   5.640   2.805   4.862 -0.0245  0.1186  0.2765
13596TIP3    H262204   5.732   2.778   4.979  0.3004 -0.4117 -0.0937
13597TIP3   OH262205   4.106   5.582   1.700  0.0716  0.3567  0.1358
13597TIP3    H162206   4.020   5.552   1.671  0.4212 -0.3512 -0.2010
13597TIP3    H262207   4.088   5.635   1.777 -0.4798 -1.8612  1.6398
13598TIP3   OH262208   4.113   5.451   0.558  0.1608 -0.1661  0.0995
13598TIP3    H162209   4.137   5.509   0.486  0.0478  0.5329  0.6214
13598TIP3    H262210   4.113   5.363   0.518 -0.5789  0.2726 -0.9245
13599TIP3   OH262211   4.245   5.638  12.418 -0.0700  0.3800  0.3367
13599TIP3    H162212   4.248   5.559  12.472 -0.5017  1.6342  2.3189
13599TIP3    H262213   4.153   5.665  12.420 -0.3550 -0.2181 -2.1500
13600TIP3   OH262214   5.808   1.649   1.686  0.5030 -0.0958  0.3022
13600TIP3    H162215   5.784   1.648   1.593 -0.3205 -0.5773  0.5113
13600TIP3    H262216   5.778   1.734   1.718  1.5231  0.4103 -0.0481
13601TIP3   OH262217   5.731   6.448  11.940  0.1092 -0.3114  0.0726
13601TIP3    H162218   5.693   6.370  11.899  2.0482 -1.5915  0.5754
13601TIP3    H262219   5.659   6.486  11.990 -1.0379 -1.4620 -0.6346
13602TIP3   OH262220   6.748   5.472  11.130  0.0467  0.2500  0.0292
13602TIP3    H162221   6.728   5.565  11.130  0.1793  0.2793  0.2393
13602TIP3    H262222   6.666   5.430  11.107  0.7418  0.5604 -3.5337
13603TIP3   OH262223   6.086   3.467  14.375  0.4114  0.1403 -0.7392
13603TIP3    H162224   6.140   3.534  14.332 -1.0236  0.2720 -2.4563
13603TIP3    H262225   6.001   3.473  14.330 -0.7109 -0.7571  1.1777
13604TIP3   OH262226   5.706   3.039   3.264 -0.2471 -0.6575 -0.4946
13604TIP3    H162227   5.796   3.062   3.240 -0.1649  0.0817  0.4737
13604TIP3    H262228   5.713   2.955   3.309 -0.1442 -0.9926 -1.1271
13605TIP3   OH262229   4.317   5.457   3.905 -0.0771 -0.3251 -0.0210
13605TIP3    H162230   4.226   5.450   3.876 -0.2650  0.5109  0.3643
13605TIP3    H262231   4.353   5.531   3.856  0.1232 -0.0542  0.5274
13606TIP3   OH262232   5.575   1.746  16.825 -0.5759  0.1693 -0.6105
13606TIP3    H162233   5.512   1.787  16.885 -1.7317 -2.4936  0.1537
13606TIP3    H262234   5.603   1.667  16.871  3.2459  1.0638 -1.0215
13607TIP3   OH262235   2.785   1.279   6.485  0.6208  0.4363  0.3792
13607TIP3    H162236   2.790   1.215   6.414  1.5435  1.6121 -0.6675
13607TIP3    H262237   2.703   1.259   6.530  0.1289 -0.4871 -0.8760
13608TIP3   OH262238   0.017   2.128   1.917 -0.3204  0.3673 -0.4986
13608TIP3    H162239  -0.075   2.103   1.933  0.2687 -0.2437  2.5392
13608TIP3    H262240   0.015   2.224   1.915 -0.8598  0.4048  0.9425
13609TIP3   OH262241   2.264   0.392  11.391 -0.0358 -0.7191  0.5014
13609TIP3    H162242   2.184   0.366  11.346  0.6587 -0.8816 -0.6728
13609TIP3    H262243   2.333   0.379  11.327  0.4363  3.8986 -0.2904
13610TIP3   OH262244   6.673   2.242   0.140  0.0440  0.1835 -0.5386
13610TIP3    H162245   6.666   2.264   0.233 -0.7568  2.0942 -1.0091
13610TIP3    H262246   6.628   2.313   0.095  0.0581 -0.9168 -2.3872
13611TIP3   OH262247   6.144   3.637   2.623  0.1155  0.3701  0.5763
13611TIP3    H162248   6.079   3.592   2.676 -0.0716  0.1953  0.1996
13611TIP3    H262249   6.214   3.573   2.611 -0.2813  0.0725 -0.2040
13612TIP3   OH262250   3.223   0.554  10.954 -0.2073 -0.3366 -0.1096
13612TIP3    H162251   3.190   0.634  10.995 -0.3847 -0.5880  0.2449
13612TIP3    H262252   3.280   0.585  10.883  0.1490  0.1028  0.3599
13613TIP3   OH262253   1.146   3.593   5.318  0.6723 -0.3572  0.3454
13613TIP3    H162254   1.108   3.679   5.330 -1.2452 -1.3263  1.5798
13613TIP3    H262255   1.122   3.569   5.228 -1.5635 -0.8593  1.0243
13614TIP3   OH262256   0.800   4.850  13.882 -0.0433 -0.2097  0.2117
13614TIP3    H162257   0.872   4.913  13.885  0.4392 -0.5975 -1.5970
13614TIP3    H262258   0.755   4.860  13.966  0.8472  1.5426  0.5284
13615TIP3   OH262259   2.474   0.757   1.628  0.0071  0.3026  0.5792
13615TIP3    H162260   2.556   0.723   1.664 -0.8571 -1.7371  0.7300
13615TIP3    H262261   2.412   0.754   1.701 -0.5408  0.6038  0.1364
13616TIP3   OH262262   2.969   3.978  12.985 -0.9752  0.5544 -0.4871
13616TIP3    H162263   2.987   3.886  13.001 -3.0686  0.0696 -0.6150
13616TIP3    H262264   3.041   4.025  13.027 -0.7133 -1.0846  0.9849
13617TIP3   OH262265   2.705   1.562   1.150  0.0101  0.3641 -0.0534
13617TIP3    H162266   2.635   1.550   1.085 -1.1502  0.7992  1.0755
13617TIP3    H262267   2.764   1.625   1.109  0.3375 -0.7940 -1.4652
13618TIP3   OH262268   1.091   6.718  15.145 -0.3304  0.3423  0.2313
13618TIP3    H162269   1.018   6.655  15.144 -0.6208  0.6734  0.4133
13618TIP3    H262270   1.089   6.756  15.232  0.7867 -0.4699  0.6262
13619TIP3   OH262271   4.340   6.338  13.987 -0.1064 -0.3570  0.3719
13619TIP3    H162272   4.295   6.319  13.905  0.5984 -0.6605  0.0511
13619TIP3    H262273   4.279   6.393  14.035  0.3077  1.6031 -1.2265
13620TIP3   OH262274   0.937   0.526  16.282 -0.4670 -0.1914  0.1299
13620TIP3    H162275   0.914   0.618  16.291 -0.2287 -0.1638  0.4877
13620TIP3    H262276   0.893   0.498  16.203 -2.1848 -0.2859  1.0810
13621TIP3   OH262277   1.961   6.420   6.482 -0.7482 -0.1484  0.8666
13621TIP3    H162278   2.036   6.394   6.536  1.4518  1.0192 -1.4026
13621TIP3    H262279   1.945   6.511   6.506 -1.9807 -0.6008  1.8570
13622TIP3   OH262280   4.562   4.341   2.020  0.3164  0.5131 -0.2509
13622TIP3    H162281   4.510   4.404   2.070 -0.8788  0.5823 -1.5220
13622TIP3    H262282   4.527   4.256   2.045  0.3726  0.4919 -0.2445
13623TIP3   OH262283   4.523   6.136  13.995 -0.3282 -0.4205 -0.2217
13623TIP3    H162284   4.613   6.145  14.027  0.1513 -0.4311 -1.5097
13623TIP3    H262285   4.484   6.223  14.005  0.5309  0.1655 -1.6506
13624TIP3   OH262286   3.082   6.240  12.162  0.0492  0.3997  0.2943
13624TIP3    H162287   2.999   6.254  12.116 -0.3649  1.0570  1.1988
13624TIP3    H262288   3.062   6.260  12.253  1.0200 -0.2029  0.6532
13625TIP3   OH262289   3.181   2.523  10.599 -0.4120  0.0228 -0.3075
13625TIP3    H162290   3.153   2.493  10.685 -0.8778 -0.5273 -0.6460
13625TIP3    H262291   3.102   2.519  10.545 -0.3242  1.1724 -0.5522
13626TIP3   OH262292   6.555   2.523  15.173  0.1278  0.4806  0.3760
13626TIP3    H162293   6.571   2.485  15.259 -0.5479 -0.5913  0.0492
13626TIP3    H262294   6.543   2.448  15.115  1.2351  1.1663 -0.8055
13627TIP3   OH262295   5.111   5.578  14.761  0.8181  0.9099  0.0329
13627TIP3    H162296   5.048   5.507  14.750  0.9517  0.7113  0.5248
13627TIP3    H262297   5.123   5.584  14.856  1.5838  0.9101 -0.0645
13628TIP3   OH262298   6.605   6.435  12.356  0.5470 -0.4568 -0.2593
13628TIP3    H162299   6.568   6.520  12.379  1.6204 -0.4274  1.5347
13628TIP3    H262300   6.585   6.379  12.430  1.0836 -1.3793 -0.7903
13629TIP3   OH262301   2.386   6.120   1.587 -0.3151  0.5706 -0.0456
13629TIP3    H162302   2.461   6.121   1.647  1.2152  0.3005 -1.8681
13629TIP3    H262303   2.378   6.028   1.561 -2.0581  0.3838  0.9829
13630TIP3   OH262304   0.479   1.058  16.289  0.1712  0.0949 -0.3214
13630TIP3    H162305   0.516   0.983  16.242 -0.5311  0.2034 -1.0817
13630TIP3    H262306   0.444   1.020  16.370  0.4186 -0.2865 -0.3880
13631TIP3   OH262307   3.440   3.533  16.744 -0.1205 -0.0799  0.0257
13631TIP3    H162308   3.377   3.593  16.786  1.0165  0.7526  0.5974
13631TIP3    H262309   3.449   3.568  16.655  0.5820  0.6744  0.3728
13632TIP3   OH262310   2.215   6.546  10.480 -0.4011  0.2719 -0.3080
13632TIP3    H162311   2.126   6.514  10.497 -0.3309  0.6202  0.7624
13632TIP3    H262312   2.265   6.468  10.457 -0.4085 -0.3064  1.5422
13633TIP3   OH262313   4.612   4.475  13.213  0.3979  0.0368 -0.2217
13633TIP3    H162314   4.690   4.427  13.240  0.1211 -0.6880 -0.6801
13633TIP3    H262315   4.645   4.547  13.160  0.7941  0.1355  0.1519
13634TIP3   OH262316   6.331   4.788  11.906  0.2174 -0.0571  0.1943
13634TIP3    H162317   6.267   4.859  11.913 -0.8347 -0.8957 -0.6002
13634TIP3    H262318   6.296   4.730  11.838  1.9735 -0.3942 -0.4818
13635TIP3   OH262319   2.661   3.172   5.750  0.2268  0.4211  1.1440
13635TIP3    H162320   2.730   3.124   5.705 -2.9060 -0.3688 -3.5437
13635TIP3    H262321   2.637   3.116   5.824  0.1980 -2.7801 -1.1061
13636TIP3   OH262322   2.604   3.607   1.925 -0.2136  0.2091 -0.6748
13636TIP3    H162323   2.691   3.595   1.888  0.0032 -0.8419  0.1252
13636TIP3    H262324   2.544   3.579   1.855  0.0545  1.1669 -1.3149
13637TIP3   OH262325   3.424   2.131  13.135  0.2307 -0.2968  0.2124
13637TIP3    H162326   3.506   2.140  13.086 -1.0492 -0.0958 -2.0302
13637TIP3    H262327   3.389   2.046  13.109 -1.5015  0.7000 -0.9438
13638TIP3   OH262328   0.756   2.975   2.167  0.7344  0.3125  0.1637
13638TIP3    H162329   0.786   2.888   2.192  1.3968 -0.1075 -1.8870
13638TIP3    H262330   0.835   3.020   2.137 -0.1270  0.2191 -2.4890
13639TIP3   OH262331   6.480   1.887  13.439 -0.1621 -0.4071  0.4713
13639TIP3    H162332   6.575   1.877  13.440 -0.0731 -0.1127  3.1649
13639TIP3    H262333   6.464   1.968  13.391  1.2671  1.2126  2.5237
13640TIP3   OH262334   3.139   0.878  13.517 -0.1503  0.1676 -0.4104
13640TIP3    H162335   3.188   0.922  13.447 -0.8083  0.4354 -0.7040
13640TIP3    H262336   3.182   0.908  13.598  0.5802 -0.1095 -0.6905
13641TIP3   OH262337   5.894   6.302   5.625 -0.8524 -0.3329 -0.3962
13641TIP3    H162338   5.930   6.367   5.685 -0.1349 -1.7048  0.7574
13641TIP3    H262339   5.968   6.278   5.569 -0.9560 -0.5551 -0.4388
13642TIP3   OH262340   4.885   4.717   3.976 -0.0415  0.2347  0.0192
13642TIP3    H162341   4.810   4.659   3.990 -0.7023  1.3022  1.0598
13642TIP3    H262342   4.848   4.805   3.978  1.2550  0.7874  0.6434
13643TIP3   OH262343   6.781   1.089  13.686 -0.0507 -0.0664 -0.4287
13643TIP3    H162344   6.777   0.998  13.658  0.7702 -0.2109 -0.0899
13643TIP3    H262345   6.745   1.139  13.613 -0.6144 -0.6691 -0.5663
13644TIP3   OH262346   1.767   4.568   5.656 -0.0321  0.4540  0.2554
13644TIP3    H162347   1.827   4.608   5.592 -3.0038  1.9085 -1.8253
13644TIP3    H262348   1.797   4.477   5.662  1.6740  0.8111 -1.5711
13645TIP3   OH262349   2.253   1.276  12.487  0.2039 -0.0322 -0.1841
13645TIP3    H162350   2.179   1.214  12.492 -1.0953  1.5106  0.4876
13645TIP3    H262351   2.215   1.354  12.448  0.9980  1.4635  1.8814
13646TIP3   OH262352   3.715   2.389   0.160 -0.2857  0.0470 -0.0519
13646TIP3    H162353   3.690   2.465   0.108  0.3055 -1.1258 -2.2223
13646TIP3    H262354   3.636   2.335   0.165 -0.2808  0.0490  0.0524
13647TIP3   OH262355   0.639   2.038   5.269  0.0679 -0.2007  0.2390
13647TIP3    H162356   0.614   1.952   5.237 -1.3919  0.1027  0.5168
13647TIP3    H262357   0.691   2.020   5.348 -0.8536 -0.8172  0.7222
13648TIP3   OH262358   4.251   5.200   3.674 -0.4215  0.0971 -0.0747
13648TIP3    H162359   4.253   5.223   3.767 -1.2830  1.8404 -0.4439
13648TIP3    H262360   4.158   5.204   3.651 -0.3151 -1.1862 -0.8454
13649TIP3   OH262361   5.008   0.150   1.744  0.3940 -0.6461 -0.0934
13649TIP3    H162362   4.975   0.239   1.758 -0.6085 -0.8880 -0.7903
13649TIP3    H262363   5.098   0.152   1.777  0.9276  1.0639 -1.4989
13650TIP3   OH262364   4.984   2.630   4.614  0.1693  0.1822 -0.3510
13650TIP3    H162365   5.058   2.608   4.670 -1.0686 -1.5625  0.6869
13650TIP3    H262366   4.974   2.555   4.556 -1.1805  0.0728 -0.0223
13651TIP3   OH262367   2.274   3.947   1.161  0.3249  0.2712  0.3655
13651TIP3    H162368   2.297   4.021   1.105  0.3419 -0.7357 -1.0175
13651TIP3    H262369   2.179   3.937   1.150  0.3100  0.1338  0.6087
13652TIP3   OH262370   5.312   5.262  12.826 -0.2360  0.0349 -0.1935
13652TIP3    H162371   5.289   5.300  12.911  0.2603  0.2092 -0.1381
13652TIP3    H262372   5.400   5.228  12.837 -1.3511 -2.9482  0.3530
13653TIP3   OH262373   0.657   3.028  15.217 -0.3287  0.3977  0.4107
13653TIP3    H162374   0.660   2.971  15.294  0.2865  0.0595  0.1415
13653TIP3    H262375   0.722   3.096  15.234  0.0845  0.1006  0.0159
13654TIP3   OH262376   1.530   0.859   1.690  0.1022 -0.3245  0.5931
13654TIP3    H162377   1.491   0.819   1.768  0.3433 -0.8921  0.4332
13654TIP3    H262378   1.624   0.838   1.697 -0.1957 -2.7969 -1.1835
13655TIP3   OH262379   1.351   4.979  11.367 -0.0095 -0.3942 -0.1249
13655TIP3    H162380   1.308   5.027  11.296  0.2254 -1.4067 -0.9811
13655TIP3    H262381   1.281   4.927  11.407 -0.1290  0.1260  0.3451
13656TIP3   OH262382   0.121   1.668   2.182 -0.4386 -0.2946 -0.2799
13656TIP3    H162383   0.078   1.588   2.211  0.7402 -0.9405 -0.2281
13656TIP3    H262384   0.192   1.682   2.245 -0.5010  0.6859 -0.4034
13657TIP3   OH262385   3.527   6.194  14.906 -0.1557  0.3611 -0.3454
13657TIP3    H162386   3.561   6.259  14.845 -0.0677  0.0246 -0.6632
13657TIP3    H262387   3.501   6.244  14.983  1.7591  0.5457  0.2150
13658TIP3   OH262388   0.286   5.838   2.631 -0.5563 -0.1329  0.0429
13658TIP3    H162389   0.253   5.804   2.714  0.2673 -3.7097 -0.9183
13658TIP3    H262390   0.304   5.930   2.648 -1.3248 -0.4971  3.5246
13659TIP3   OH262391   1.717   3.945  16.065 -0.3597 -0.1697 -0.0349
13659TIP3    H162392   1.628   3.938  16.030  0.8574  0.7164 -3.9211
13659TIP3    H262393   1.770   3.895  16.003  2.1622  1.7729  0.4005
13660TIP3   OH262394   3.130   1.410  15.316  0.0156 -0.4337  0.3885
13660TIP3    H162395   3.170   1.433  15.233  0.9095 -0.3219  0.8393
13660TIP3    H262396   3.161   1.321  15.334 -2.6001 -1.7011 -0.8462
13661TIP3   OH262397   2.399   4.781   4.818 -0.1322  0.3673 -0.3166
13661TIP3    H162398   2.336   4.815   4.754  0.4955  1.0872 -0.5708
13661TIP3    H262399   2.439   4.860   4.855  0.4805 -0.0777 -0.0224
13662TIP3   OH262400   4.984   0.768  16.378  0.1765  0.4299 -0.4949
13662TIP3    H162401   4.988   0.847  16.325  2.1093  0.0324 -0.9941
13662TIP3    H262402   5.068   0.726  16.366 -0.0071 -0.6346  1.4459
13663TIP3   OH262403   0.266   3.757  13.281 -0.4225 -0.5173 -0.1855
13663TIP3    H162404   0.342   3.792  13.328 -0.9617 -0.6024  0.7641
13663TIP3    H262405   0.302   3.724  13.199  0.2699  1.3020 -0.6552
13664TIP3   OH262406   5.774   0.604   0.593 -0.0010 -0.2391 -0.2639
13664TIP3    H162407   5.730   0.590   0.509  0.1431 -1.9083 -0.0999
13664TIP3    H262408   5.861   0.565   0.582  0.6075  0.9198  0.1821
13665TIP3   OH262409   1.089   5.629  13.752 -0.4060 -0.3564 -0.2434
13665TIP3    H162410   1.038   5.694  13.800 -0.8159 -0.9271  0.0955
13665TIP3    H262411   1.105   5.670  13.667 -0.1498  0.4266  0.1751
13666TIP3   OH262412   3.785   0.865   2.691 -0.0143  0.6291  0.2774
13666TIP3    H162413   3.803   0.938   2.751 -1.9252  1.9443 -0.6413
13666TIP3    H262414   3.689   0.864   2.683  0.0895 -0.7902 -1.1988
13667TIP3   OH262415   2.565   0.522  14.164  0.1637 -0.3643 -0.4229
13667TIP3    H162416   2.510   0.532  14.086 -1.1020 -0.7680  0.3890
13667TIP3    H262417   2.589   0.611  14.189 -0.4344 -0.1577 -0.5755
13668TIP3   OH262418   5.112   2.312  11.800 -0.1467 -0.1367  0.3462
13668TIP3    H162419   5.108   2.332  11.707 -0.9369  0.7114  0.5412
13668TIP3    H262420   5.030   2.266  11.818 -0.2845  0.2524  0.7361
13669TIP3   OH262421   5.693   4.810   5.470  0.7981  0.0205 -0.0637
13669TIP3    H162422   5.647   4.727   5.460  0.9182 -0.3022  1.6233
13669TIP3    H262423   5.703   4.844   5.381  0.2926 -1.5174 -0.7404
13670TIP3   OH262424   2.521   0.910   5.484 -0.7407 -0.6715  0.1682
13670TIP3    H162425   2.469   0.836   5.516 -1.5211  0.6641  2.1415
13670TIP3    H262426   2.457   0.976   5.459 -0.0991 -0.9634 -2.6878
13671TIP3   OH262427   3.159   4.319   1.169  0.0569  0.0205 -0.4271
13671TIP3    H162428   3.242   4.285   1.199  0.1448  0.1810 -0.4851
13671TIP3    H262429   3.126   4.373   1.241 -0.6831 -1.1870  0.1644
13672TIP3   OH262430   0.012   1.447  13.439 -0.0778  0.1296  0.2571
13672TIP3    H162431   0.093   1.419  13.396 -0.5410 -0.0996 -0.4943
13672TIP3    H262432  -0.021   1.368  13.481  0.3570  0.3459  1.0276
13673TIP3   OH262433   3.868   4.876  15.650  0.5163 -0.7624  0.4146
13673TIP3    H162434   3.806   4.950  15.654  2.3871  0.9793 -0.7963
13673TIP3    H262435   3.883   4.853  15.742 -1.2610 -0.6750  0.7618
13674TIP3   OH262436   4.543   6.210  14.323  0.3761  0.5135 -0.7534
13674TIP3    H162437   4.619   6.153  14.336  0.3815 -0.4131 -3.9890
13674TIP3    H262438   4.578   6.299  14.336  1.3139 -0.0222  0.5699
13675TIP3   OH262439   5.940   2.040   1.955  0.3750  0.1364  0.1411
13675TIP3    H162440   5.996   2.116   1.939 -0.6774  0.7463 -0.7543
13675TIP3    H262441   5.975   2.001   2.035  1.5056  1.0211  0.1004
13676TIP3   OH262442   2.609   4.255  11.199 -0.2962 -0.1360 -0.1661
13676TIP3    H162443   2.647   4.239  11.285 -0.5955  2.8886  0.6615
13676TIP3    H262444   2.645   4.186  11.143  0.3088 -1.8845  2.2391
13677TIP3   OH262445   5.391   1.228   5.616  0.4906  0.2532  0.8949
13677TIP3    H162446   5.317   1.178   5.581  2.5175 -1.0197 -2.0280
13677TIP3    H262447   5.352   1.309   5.649 -2.1442  0.0247 -1.2940
13678TIP3   OH262448   4.105   5.303  13.325 -0.0786  0.2638  0.2447
13678TIP3    H162449   4.050   5.225  13.315  0.0898  0.2872 -0.9967
13678TIP3    H262450   4.045   5.371  13.356 -0.3821 -0.1580  0.5881
13679TIP3   OH262451   3.902   0.584   1.218 -0.0333 -0.3188 -0.4854
13679TIP3    H162452   3.910   0.582   1.123  0.8840  0.8357 -0.4679
13679TIP3    H262453   3.935   0.499   1.247  0.1626 -0.4840 -1.1748
13680TIP3   OH262454   4.486   1.321  15.852  0.1497  0.1975 -0.4921
13680TIP3    H162455   4.541   1.336  15.929 -0.2512  2.0649 -0.5154
13680TIP3    H262456   4.415   1.385  15.861 -1.1208 -1.0361 -1.3101
13681TIP3   OH262457   0.998   2.187   1.842  0.0232  0.5529 -0.4761
13681TIP3    H162458   0.914   2.176   1.885  1.5865 -1.8558  2.2959
13681TIP3    H262459   1.051   2.237   1.904  1.8473 -1.5411 -0.2353
13682TIP3   OH262460   5.668   5.968  16.812 -0.6475  0.7695  0.2301
13682TIP3    H162461   5.705   6.047  16.851 -0.1094  0.0885  1.1561
13682TIP3    H262462   5.736   5.936  16.753 -0.2899  0.2555  0.9065
13683TIP3   OH262463   0.446   1.164  16.644 -0.0433  0.5836 -0.0950
13683TIP3    H162464   0.350   1.165  16.648  0.0116  0.3580  1.8644
13683TIP3    H262465   0.473   1.231  16.707  1.1066 -0.3695  0.4532
13684TIP3   OH262466   4.234   5.829   3.438 -0.3322 -0.3209 -0.1253
13684TIP3    H162467   4.229   5.739   3.468 -0.4673 -0.2003  0.2186
13684TIP3    H262468   4.274   5.824   3.351 -0.2171 -0.6962 -0.0484
13685TIP3   OH262469   4.325   3.025  16.809 -0.0293  0.5747  0.3101
13685TIP3    H162470   4.248   2.979  16.842  0.4636 -0.0619  0.6018
13685TIP3    H262471   4.328   3.003  16.716 -0.8539  1.5564  0.0370
13686TIP3   OH262472   1.357   2.240  13.402 -0.0907 -0.0197 -0.0722
13686TIP3    H162473   1.289   2.269  13.341  0.6777 -1.1722 -1.5095
13686TIP3    H262474   1.308   2.198  13.473 -1.1800  3.5077  1.5250
13687TIP3   OH262475   3.753   0.937  13.357  0.3898  0.2713  0.7626
13687TIP3    H162476   3.773   0.975  13.272  0.2946  0.8663  1.0049
13687TIP3    H262477   3.831   0.884  13.378  1.1468  1.4860  1.0799
13688TIP3   OH262478   3.440   2.841  11.378 -0.0180  0.3773  0.1378
13688TIP3    H162479   3.478   2.824  11.464  0.2683 -1.4970 -0.3123
13688TIP3    H262480   3.515   2.867  11.324 -0.1036  0.9957  0.3166
13689TIP3   OH262481   3.570   4.471   4.909  0.0129  0.3107 -0.4853
13689TIP3    H162482   3.576   4.376   4.900  0.0808  0.2515  0.1687
13689TIP3    H262483   3.605   4.490   4.995 -1.7753  0.7264  0.2048
13690TIP3   OH262484   4.944   2.031   3.429  0.4373  0.5277  0.2815
13690TIP3    H162485   4.857   2.027   3.470 -0.1490 -2.3488 -1.0317
13690TIP3    H262486   4.935   1.981   3.348  3.2632  0.4280 -0.0778
13691TIP3   OH262487   5.054   2.121  12.525  0.4642  0.3094 -0.9221
13691TIP3    H162488   5.046   2.216  12.514 -1.2540  0.2168 -0.8332
13691TIP3    H262489   4.970   2.086  12.495  1.1872 -1.2281 -1.2882
13692TIP3   OH262490   2.152   2.591   2.675 -0.3733 -0.4083 -0.2409
13692TIP3    H162491   2.170   2.686   2.674 -2.0168 -0.0718 -0.4857
13692TIP3    H262492   2.085   2.579   2.608 -2.0473 -1.3397  1.5247
13693TIP3   OH262493   0.645   2.374  17.186  0.1945  0.8422  0.3460
13693TIP3    H162494   0.563   2.371  17.137  0.3856  1.0751  0.0095
13693TIP3    H262495   0.689   2.453  17.155  2.2438 -1.1444 -2.2416
13694TIP3   OH262496   2.382   5.151  14.281 -0.1888 -0.1850  0.2755
13694TIP3    H162497   2.332   5.081  14.238  0.7331 -0.1196 -0.9513
13694TIP3    H262498   2.430   5.106  14.350 -0.7794 -0.4987  0.4925
13695TIP3   OH262499   5.303   1.928  16.550  0.0118 -0.5046 -0.1462
13695TIP3    H162500   5.211   1.928  16.575  0.3997  0.8354  1.4294
13695TIP3    H262501   5.340   2.005  16.593  2.0298 -1.4051 -0.1534
13696TIP3   OH262502   0.094   3.047   0.225 -0.0536 -0.0289  0.1779
13696TIP3    H162503   0.101   2.954   0.205 -0.3063  0.1265 -0.6378
13696TIP3    H262504   0.180   3.070   0.262 -0.6743 -1.0576  2.4819
13697TIP3   OH262505   4.408   4.597   2.199 -0.3347 -0.8647  0.3075
13697TIP3    H162506   4.373   4.643   2.275 -0.6210  0.9297 -0.8483
13697TIP3    H262507   4.503   4.604   2.209 -0.3215  1.5463 -0.6307
13698TIP3   OH262508   5.293   3.239  17.134  0.4049 -0.1502  0.1085
13698TIP3    H162509   5.382   3.248  17.166  1.3022 -1.6084 -1.7748
13698TIP3    H262510   5.271   3.146  17.146 -0.1790 -0.1849 -0.9803
13699TIP3   OH262511   3.881   5.957  16.900  0.4792  0.0110  0.1973
13699TIP3    H162512   3.852   6.037  16.858 -0.5503  1.1178  2.8215
13699TIP3    H262513   3.961   5.981  16.947  0.4342 -0.6314  0.6216
13700TIP3   OH262514   5.289   6.397  16.351  0.0636  0.3811 -0.0045
13700TIP3    H162515   5.335   6.358  16.425  2.0911  2.3706 -0.1031
13700TIP3    H262516   5.252   6.323  16.303  1.0418 -1.1269  1.4714
13701TIP3   OH262517   0.076   4.767  16.759 -0.0332 -0.2769  0.0401
13701TIP3    H162518   0.027   4.847  16.743 -0.3661  0.0089  2.2093
13701TIP3    H262519   0.161   4.781  16.718 -0.2199  1.0358  0.0830
13702TIP3   OH262520   4.002   2.410   2.026  0.0869 -0.4586 -0.4925
13702TIP3    H162521   3.994   2.321   1.990 -0.5088 -0.7823  0.4133
13702TIP3    H262522   3.920   2.424   2.073  0.6730  0.1226  0.3795
13703TIP3   OH262523   0.138   3.958   2.426 -0.0863 -0.0808 -0.8952
13703TIP3    H162524   0.184   4.000   2.499 -1.1004 -0.2478 -0.1310
13703TIP3    H262525   0.207   3.926   2.369  0.7261  0.6842 -0.3686
13704TIP3   OH262526   3.733   6.365  12.156 -0.1059 -0.2143 -0.1341
13704TIP3    H162527   3.721   6.367  12.061  1.9398  0.1190 -0.4264
13704TIP3    H262528   3.811   6.311  12.169  1.3249  2.0227  1.1237
13705TIP3   OH262529   1.965   1.356   2.413  0.1132  0.0848 -0.1219
13705TIP3    H162530   1.934   1.265   2.412  0.1053  0.0895 -0.8651
13705TIP3    H262531   1.963   1.383   2.321  1.4425  0.3971 -0.0716
13706TIP3   OH262532   1.282   0.381   5.262 -0.2117 -0.3916 -0.7170
13706TIP3    H162533   1.359   0.325   5.264 -0.2169 -0.3893 -0.4729
13706TIP3    H262534   1.308   0.456   5.208 -0.1407 -0.5331 -0.8799
13707TIP3   OH262535   5.916   5.147   4.157 -1.0601  0.6669  0.3269
13707TIP3    H162536   5.841   5.191   4.198 -0.7162 -1.4408  3.6177
13707TIP3    H262537   5.878   5.097   4.085 -2.8303 -0.0501  1.6845
13708TIP3   OH262538   6.623   4.401   0.904  0.5320  0.1532 -0.4302
13708TIP3    H162539   6.688   4.364   0.963 -1.7503 -0.8282  1.6728
13708TIP3    H262540   6.563   4.328   0.886  0.5879  0.6869 -3.2766
13709TIP3   OH262541   2.118   4.757  14.370 -0.2686  0.5132 -0.0497
13709TIP3    H162542   2.160   4.747  14.455 -0.5315 -2.4187 -0.1348
13709TIP3    H262543   2.092   4.668  14.346 -1.3577  1.4185 -2.6226
13710TIP3   OH262544   6.757   6.084  15.615  0.3777  0.3150 -0.3260
13710TIP3    H162545   6.845   6.107  15.584  0.3655 -0.4774 -0.9961
13710TIP3    H262546   6.762   5.990  15.632  0.2599  0.6404  1.7274
13711TIP3   OH262547   1.077   0.387  14.364 -0.0246 -0.2021 -0.1271
13711TIP3    H162548   1.107   0.299  14.389 -0.0904 -0.7849 -1.9479
13711TIP3    H262549   1.091   0.440  14.443  3.0704 -1.0956  0.0573
13712TIP3   OH262550   4.896   0.521   5.215  0.2152  0.4125  0.2600
13712TIP3    H162551   4.850   0.603   5.198 -1.8094 -0.4876  1.0184
13712TIP3    H262552   4.929   0.529   5.304 -0.9709 -0.0042  0.7494
13713TIP3   OH262553   2.398   5.052   4.184  0.6832  0.1962 -0.2522
13713TIP3    H162554   2.414   4.963   4.217  0.0926  0.3096  0.3678
13713TIP3    H262555   2.469   5.068   4.121  1.0557 -0.5395 -0.0268
13714TIP3   OH262556   6.200   4.471   4.711  0.1501  0.3577  0.1253
13714TIP3    H162557   6.109   4.490   4.732 -0.1600 -0.0627 -0.8165
13714TIP3    H262558   6.201   4.379   4.686  0.4307  0.8781 -1.9534
13715TIP3   OH262559   4.592   5.030  13.590 -0.1543 -0.0722 -0.2081
13715TIP3    H162560   4.635   4.949  13.565 -1.7010 -0.8313 -0.5201
13715TIP3    H262561   4.499   5.012  13.581 -0.5268  1.8983 -0.7727
13716TIP3   OH262562   4.302   6.708   4.659 -0.1843 -0.2265  0.3682
13716TIP3    H162563   4.315   6.613   4.667  4.0256  0.0187 -1.0465
13716TIP3    H262564   4.341   6.744   4.739 -1.2293  0.3641  0.6230
13717TIP3   OH262565   6.763   1.142  14.370 -0.6550 -0.0465  0.1023
13717TIP3    H162566   6.832   1.140  14.303  0.2429  1.7639  0.9118
13717TIP3    H262567   6.787   1.072  14.431 -0.3724 -0.4037 -0.4104
13718TIP3   OH262568   6.507   3.257   4.627 -0.0384  0.0019  0.0921
13718TIP3    H162569   6.496   3.217   4.713  1.4015 -1.3597 -0.2993
13718TIP3    H262570   6.472   3.193   4.565 -0.4266  0.6648 -0.3988
13719TIP3   OH262571   6.706   0.998  16.658  0.2092 -0.3912 -0.2539
13719TIP3    H162572   6.676   1.089  16.660  0.5451 -0.2722 -0.4259
13719TIP3    H262573   6.678   0.966  16.572  2.6647  0.4747 -1.4788
13720TIP3   OH262574   0.779   2.923  12.802 -0.1064 -0.2208  0.2293
13720TIP3    H162575   0.746   2.964  12.722 -1.5270 -0.2339  0.7769
13720TIP3    H262576   0.721   2.848  12.816 -0.7083  0.5227  1.9474
13721TIP3   OH262577   3.099   3.034   6.622  0.3850  0.2348  0.1820
13721TIP3    H162578   3.107   3.082   6.540  0.4913  0.9704  0.6146
13721TIP3    H262579   3.027   2.973   6.606  0.8977 -0.1565 -0.7057
13722TIP3   OH262580   2.380   2.816  15.088  0.2869  0.1356  0.1624
13722TIP3    H162581   2.371   2.728  15.125 -0.8837 -0.7444 -1.9861
13722TIP3    H262582   2.469   2.818  15.052 -0.2697 -0.8993 -1.3744
13723TIP3   OH262583   0.817   6.418   3.577  0.1515  0.2287 -0.3377
13723TIP3    H162584   0.782   6.465   3.502 -2.0276 -2.5336 -1.1842
13723TIP3    H262585   0.740   6.389   3.626  1.3996 -1.5741  0.6702
13724TIP3   OH262586   2.735   2.979   2.925  0.2834  0.1289 -0.2541
13724TIP3    H162587   2.742   2.909   2.860 -1.0832  1.4983 -1.9701
13724TIP3    H262588   2.821   3.021   2.924  1.1245 -1.4894  0.8090
13725TIP3   OH262589   5.484   1.417  16.418  0.4774 -0.2382  0.3372
13725TIP3    H162590   5.403   1.392  16.463 -0.9923 -0.3864 -2.1998
13725TIP3    H262591   5.467   1.505  16.386  1.1099 -0.4573 -0.6233
13726TIP3   OH262592   2.716   4.042   2.403  0.3862 -0.1730  0.0803
13726TIP3    H162593   2.788   4.005   2.454  1.3087  0.4483 -0.7337
13726TIP3    H262594   2.757   4.075   2.323 -0.2536  3.0126  0.9308
13727TIP3   OH262595   5.728   1.691   2.043 -0.0544 -0.2990 -0.3375
13727TIP3    H162596   5.821   1.709   2.054  0.1064 -1.5282  0.5734
13727TIP3    H262597   5.708   1.722   1.955  1.3033 -0.3361 -0.6823
13728TIP3   OH262598   4.131   1.821  16.603 -0.4350 -0.1526  0.2393
13728TIP3    H162599   4.061   1.757  16.588 -0.7550  0.3734 -0.5953
13728TIP3    H262600   4.165   1.799  16.689 -0.9618 -1.0516  0.2337
13729TIP3   OH262601   0.609   2.040   4.798  0.0195  0.4659 -0.5534
13729TIP3    H162602   0.704   2.048   4.809  0.0186 -0.6804  0.5262
13729TIP3    H262603   0.594   1.946   4.791 -1.0116  0.6631 -1.1835
13730TIP3   OH262604   0.187   2.073  13.237  0.4330 -0.1060 -0.2420
13730TIP3    H162605   0.105   2.030  13.211  0.0467  0.3437  0.2125
13730TIP3    H262606   0.249   2.048  13.169  0.2215 -1.3596 -0.0184
13731TIP3   OH262607   3.572   6.348   1.637 -0.0577 -0.0061  0.0605
13731TIP3    H162608   3.556   6.441   1.620 -0.6922 -0.2317 -0.6368
13731TIP3    H262609   3.530   6.331   1.721 -0.5528  0.1842 -0.1451
13732TIP3   OH262610   3.391   3.364   1.252 -0.2881 -0.1470  0.0849
13732TIP3    H162611   3.426   3.390   1.337  0.2019  2.0521 -0.7241
13732TIP3    H262612   3.433   3.423   1.189  0.5305 -2.6504 -1.9204
13733TIP3   OH262613   6.408   2.839  14.187 -0.0246 -0.3642  0.6155
13733TIP3    H162614   6.336   2.803  14.134 -0.3833 -0.1345  0.9389
13733TIP3    H262615   6.368   2.858  14.272 -0.1356  1.7439  0.1670
13734TIP3   OH262616   4.961   6.173  13.314  0.2362 -0.3726  0.6815
13734TIP3    H162617   4.927   6.256  13.281  0.6453 -0.5186 -0.1347
13734TIP3    H262618   5.007   6.196  13.394  1.4704  0.4045 -0.2100
13735TIP3   OH262619   5.040   2.603   1.433 -0.3156  0.0982 -0.2186
13735TIP3    H162620   5.032   2.591   1.527 -1.2905  1.3580 -0.1176
13735TIP3    H262621   4.980   2.675   1.412  2.2150  2.0468 -1.3025
13736TIP3   OH262622   6.220   0.864   2.853  0.1847  0.4249 -0.0017
13736TIP3    H162623   6.307   0.903   2.865 -0.0951  0.8475  0.7506
13736TIP3    H262624   6.162   0.939   2.842 -0.4093  0.2899  1.7985
13737TIP3   OH262625   1.494   3.874   5.441  0.1096 -0.3874 -0.1241
13737TIP3    H162626   1.462   3.811   5.505 -0.2584  0.5583  0.6469
13737TIP3    H262627   1.437   3.950   5.451  1.0542  0.3849 -0.4507
13738TIP3   OH262628   5.037   3.501   4.179 -0.2848  0.3097  0.2304
13738TIP3    H162629   4.984   3.470   4.252  1.8550 -0.7461  1.4288
13738TIP3    H262630   5.120   3.527   4.219 -0.1159  2.7024 -1.4547
13739TIP3   OH262631   5.578   2.789   0.766 -0.0678 -0.1725 -0.0354
13739TIP3    H162632   5.488   2.772   0.738 -0.3357  0.6966  0.2708
13739TIP3    H262633   5.569   2.832   0.851  0.6398 -0.1467  0.0308
13740TIP3   OH262634   0.051   1.797   1.389 -0.3414  0.1281 -0.6456
13740TIP3    H162635   0.017   1.712   1.360  0.0331 -0.5935  0.9023
13740TIP3    H262636   0.025   1.858   1.321 -0.5251 -1.2506 -1.8499
13741TIP3   OH262637   1.878   4.233  16.487 -0.6647  0.0581  0.2825
13741TIP3    H162638   1.859   4.319  16.525 -1.3106 -0.0118  0.1292
13741TIP3    H262639   1.800   4.212  16.435  0.4021  0.4092 -1.5518
13742TIP3   OH262640   4.875   1.739  16.415 -0.2116  0.2647 -0.4598
13742TIP3    H162641   4.873   1.725  16.321 -0.3374  1.2924 -0.6250
13742TIP3    H262642   4.867   1.651  16.453 -0.1904 -0.1531 -1.3979
13743TIP3   OH262643   3.989   2.954  16.265  0.3750  0.3221  0.4582
13743TIP3    H162644   3.994   2.903  16.346  0.8007  0.9260  0.8268
13743TIP3    H262645   4.030   3.038  16.288 -0.0393  0.7139 -0.2163
13744TIP3   OH262646   4.321   0.780   4.106  0.4475 -0.4876  0.3281
13744TIP3    H162647   4.271   0.857   4.134  0.2367 -0.8527  0.9751
13744TIP3    H262648   4.338   0.732   4.186  1.4983 -0.5798  0.0591
13745TIP3   OH262649   3.984   3.068   1.162  0.2431  0.5167  0.3104
13745TIP3    H162650   3.939   3.072   1.078  1.2736  1.7331 -0.2140
13745TIP3    H262651   3.955   3.146   1.208 -0.3891 -0.1903  1.1567
13746TIP3   OH262652   3.354   1.977   1.817 -0.2244  0.6111  0.4118
13746TIP3    H162653   3.322   2.058   1.856 -0.7503  0.0962  1.1038
13746TIP3    H262654   3.323   1.979   1.727  0.9308  1.7863  0.0169
13747TIP3   OH262655   0.821   6.578  17.103 -0.0522 -0.4668 -1.1165
13747TIP3    H162656   0.787   6.547  17.020 -1.9133  0.7237 -0.8610
13747TIP3    H262657   0.776   6.526  17.170  1.2510 -1.2514 -0.8028
13748TIP3   OH262658   2.815   6.225  16.979 -0.1267  0.7627 -0.4911
13748TIP3    H162659   2.857   6.140  16.964  0.3355  0.7572  0.7297
13748TIP3    H262660   2.883   6.278  17.020 -0.2064  1.9576 -1.8235
13749TIP3   OH262661   2.485   1.455  16.220  0.2431  0.4724  0.1101
13749TIP3    H162662   2.454   1.531  16.171 -0.3405 -0.4808 -1.0660
13749TIP3    H262663   2.411   1.431  16.277 -0.8472 -1.0348 -1.7791
13750TIP3   OH262664   5.687   5.873   1.706 -0.0361 -0.1686 -0.5179
13750TIP3    H162665   5.662   5.928   1.780  0.2943  0.2807 -0.7417
13750TIP3    H262666   5.741   5.804   1.745  1.3637  0.8953 -0.5421
13751TIP3   OH262667   1.346   5.304  12.397  0.1699 -0.8513  0.0775
13751TIP3    H162668   1.400   5.229  12.421  1.7859  0.1100 -0.4664
13751TIP3    H262669   1.341   5.358  12.476  1.3446 -0.1637 -0.2985
13752TIP3   OH262670   1.152   1.207   3.706 -0.0317 -0.4359 -0.1456
13752TIP3    H162671   1.088   1.278   3.707  0.8957  0.5705 -2.8344
13752TIP3    H262672   1.109   1.136   3.659 -0.3313 -1.0320  0.9990
13753TIP3   OH262673   5.566   3.579  16.540 -0.1998  0.0960  0.0222
13753TIP3    H162674   5.642   3.579  16.482 -0.1769  1.1192  0.0413
13753TIP3    H262675   5.493   3.556  16.482  0.0648 -0.5838 -0.0574
13754TIP3   OH262676   0.041   0.286   2.820 -0.2387 -0.8048  0.2609
13754TIP3    H162677  -0.032   0.305   2.879 -0.3185  1.6975 -0.5344
13754TIP3    H262678   0.003   0.231   2.752 -0.5492 -2.2916  1.5832
13755TIP3   OH262679   2.554   0.918  13.184 -0.1608  0.7113  0.1479
13755TIP3    H162680   2.610   0.852  13.225 -1.3404  0.2898  1.1520
13755TIP3    H262681   2.588   1.001  13.216  0.0469  0.4727  0.5566
13756TIP3   OH262682   1.494   5.527   2.203 -0.5763  0.3282  0.0364
13756TIP3    H162683   1.571   5.540   2.259 -0.6819  0.0682  0.2455
13756TIP3    H262684   1.422   5.563   2.254 -0.8933 -1.1060  0.6766
13757TIP3   OH262685   4.602   6.693  14.612 -0.5717 -0.4819  0.0244
13757TIP3    H162686   4.549   6.760  14.568 -1.3612 -1.4513 -0.5356
13757TIP3    H262687   4.545   6.660  14.681 -0.3949 -0.9562 -0.0551
13758TIP3   OH262688   5.496   2.009   4.583  1.0142  0.4849  0.3111
13758TIP3    H162689   5.545   1.929   4.566 -1.0456 -0.7526 -0.0773
13758TIP3    H262690   5.479   2.045   4.495  0.5025  0.4501  0.3956
13759TIP3   OH262691   0.965   5.737  15.270 -0.2391 -0.2237  1.0469
13759TIP3    H162692   0.908   5.749  15.345 -0.1555  0.7770  0.9606
13759TIP3    H262693   0.954   5.645  15.245 -2.7201  0.2103  0.2893
13760TIP3   OH262694   5.394   3.909   4.794 -0.3595 -0.6364 -0.2246
13760TIP3    H162695   5.310   3.913   4.750 -0.9138 -0.7384  0.7984
13760TIP3    H262696   5.373   3.916   4.887  0.7133 -1.2711  0.0810
13761TIP3   OH262697   5.506   4.907   2.091 -0.2220 -0.2483 -0.4991
13761TIP3    H162698   5.471   4.982   2.140 -0.3856 -0.0684 -0.8857
13761TIP3    H262699   5.515   4.939   2.001  0.0820 -0.5727 -0.5880
13762TIP3   OH262700   6.479   6.165  11.119  0.2896  0.4511 -0.3295
13762TIP3    H162701   6.395   6.209  11.105  0.4430  0.6822 -0.5369
13762TIP3    H262702   6.482   6.098  11.051 -0.0821 -0.0930  0.1818
13763TIP3   OH262703   4.657   5.269   1.656 -0.0313  0.0947  0.2306
13763TIP3    H162704   4.730   5.277   1.594 -1.2513 -1.8685 -1.5962
13763TIP3    H262705   4.591   5.331   1.623  0.1585  0.6704  0.9121
13764TIP3   OH262706   6.133   0.743  11.685  0.1194 -0.4549  0.6008
13764TIP3    H162707   6.111   0.772  11.596 -0.5390 -1.1962  0.5169
13764TIP3    H262708   6.083   0.801  11.742 -1.3605 -1.5077  0.4290
13765TIP3   OH262709   4.180   2.003   5.506  0.0147  0.1009 -0.4583
13765TIP3    H162710   4.263   1.971   5.472  1.4301  0.6539  2.1843
13765TIP3    H262711   4.136   1.925   5.540  0.9354  0.1569  0.9540
13766TIP3   OH262712   4.340   6.774   2.763  0.1759  0.6318  0.5084
13766TIP3    H162713   4.263   6.801   2.812  0.2496 -0.2474  1.1327
13766TIP3    H262714   4.353   6.682   2.786  0.2890  0.2221 -1.0754
13767TIP3   OH262715   1.969   2.246  16.437  0.0836 -0.0534  0.4880
13767TIP3    H162716   2.044   2.210  16.484 -0.1141 -1.2741 -0.1060
13767TIP3    H262717   1.897   2.186  16.455  0.3445 -1.4494 -2.5098
13768TIP3   OH262718   6.662   4.569   2.246 -0.2989  0.1511  0.1945
13768TIP3    H162719   6.638   4.568   2.154  0.3993  0.1952  0.0050
13768TIP3    H262720   6.753   4.600   2.247 -0.4846  0.6958  0.9408
13769TIP3   OH262721   2.059   5.716   5.996 -0.1377 -0.2221  0.3774
13769TIP3    H162722   2.065   5.623   5.973 -2.4558 -0.4843  0.6205
13769TIP3    H262723   2.150   5.745   6.000  0.6455 -2.4159  0.0520
13770TIP3   OH262724   3.456   0.759  15.089 -0.7110 -0.0982 -0.0181
13770TIP3    H162725   3.479   0.721  15.004 -2.6318 -1.3387 -0.0530
13770TIP3    H262726   3.398   0.694  15.129 -0.4882  0.8286  1.9095
13771TIP3   OH262727   4.074   3.243  16.332 -0.0552  0.3578 -0.6568
13771TIP3    H162728   4.109   3.285  16.254 -2.8979  1.5995 -1.4186
13771TIP3    H262729   4.034   3.314  16.382 -0.0861 -0.6986  0.9059
13772TIP3   OH262730   2.864   0.881  12.000  0.3725 -0.0707  0.1646
13772TIP3    H162731   2.877   0.893  11.906 -0.5103  0.6231  0.1247
13772TIP3    H262732   2.943   0.834  12.029  0.0623 -1.4329 -1.1280
13773TIP3   OH262733   4.959   2.687   2.894  0.2176  0.0687 -0.0538
13773TIP3    H162734   4.984   2.656   2.981 -1.8240 -0.8422  0.2595
13773TIP3    H262735   5.025   2.649   2.836  0.0366 -1.6297  0.7836
13774TIP3   OH262736   6.523   1.543  12.615  0.2439 -0.2168 -0.3878
13774TIP3    H162737   6.447   1.485  12.611 -1.2537  1.6243 -0.4253
13774TIP3    H262738   6.524   1.575  12.706  0.3330  0.5594 -0.6547
13775TIP3   OH262739   4.247   1.538  14.761  0.1616 -0.3613  0.3786
13775TIP3    H162740   4.171   1.519  14.706  0.5540 -3.4926  0.7541
13775TIP3    H262741   4.319   1.551  14.700  0.3103 -2.4556  0.0331
13776TIP3   OH262742   0.125   1.500  16.840  0.3361 -0.2341 -0.3204
13776TIP3    H162743   0.140   1.578  16.786  3.0276 -0.5490 -0.1881
13776TIP3    H262744   0.033   1.504  16.864 -0.3138  1.3069 -2.7719
13777TIP3   OH262745   0.399   2.972  11.857 -0.3386  0.1335 -0.3581
13777TIP3    H162746   0.363   2.898  11.808 -1.8941  0.7148 -0.1202
13777TIP3    H262747   0.447   3.023  11.791 -0.3503 -0.3901 -0.7799
13778TIP3   OH262748   1.455   1.682   4.920  0.2569  0.1415 -0.1901
13778TIP3    H162749   1.386   1.682   4.986  0.2649 -0.5406 -0.1747
13778TIP3    H262750   1.535   1.663   4.968  0.4093  0.6118 -0.2553
13779TIP3   OH262751   4.409   3.400  13.049 -0.9975  0.0162 -0.0571
13779TIP3    H162752   4.335   3.366  12.998 -1.1347 -0.9216  0.7465
13779TIP3    H262753   4.368   3.450  13.119 -0.8268  0.5793 -0.3524
13780TIP3   OH262754   4.378   6.338  15.972 -0.5018  0.0978  0.0514
13780TIP3    H162755   4.318   6.395  15.924  0.3145  2.7657  1.9593
13780TIP3    H262756   4.331   6.317  16.053  0.1294  0.0563  0.4123
13781TIP3   OH262757   6.417   0.813  13.707  0.3353 -0.1715  0.1359
13781TIP3    H162758   6.488   0.862  13.666  1.4146 -1.1409  0.8153
13781TIP3    H262759   6.455   0.777  13.787 -0.9199 -0.7211  0.5124
13782TIP3   OH262760   4.435   5.062   5.691  0.5688  0.2959 -0.2397
13782TIP3    H162761   4.456   4.980   5.736  1.7051  0.7696  0.1207
13782TIP3    H262762   4.346   5.083   5.720  1.4857  0.9173  2.3561
13783TIP3   OH262763   4.358   2.081  13.118  0.4425  0.5722  0.2658
13783TIP3    H162764   4.418   2.109  13.188  1.3733  0.7902 -0.6039
13783TIP3    H262765   4.290   2.149  13.117  0.2726  0.4344  1.1124
13784TIP3   OH262766   3.383   0.106   3.615 -1.0645  0.2877 -0.6380
13784TIP3    H162767   3.401   0.111   3.709 -0.2999  1.5194 -0.8145
13784TIP3    H262768   3.312   0.043   3.606 -1.4812  0.5343  0.8134
13785TIP3   OH262769   1.940   1.423  14.018  0.3513 -0.7717  0.3390
13785TIP3    H162770   1.900   1.476  14.087  2.3624 -0.2461  1.1612
13785TIP3    H262771   1.955   1.338  14.058 -0.4438 -1.1602 -0.1555
13786TIP3   OH262772   4.575   3.726   6.832 -0.4461 -0.0656 -0.1633
13786TIP3    H162773   4.505   3.766   6.884  0.3646  0.4107  0.5872
13786TIP3    H262774   4.654   3.774   6.856  0.0184 -0.0371 -1.6171
13787TIP3   OH262775   0.593   0.169   4.024 -0.0693  0.5222 -0.7642
13787TIP3    H162776   0.545   0.252   4.014  2.2794  2.3011  1.5196
13787TIP3    H262777   0.662   0.174   3.958  0.6893  0.8965  0.0433
13788TIP3   OH262778   0.875   1.767  12.313  0.1963 -0.1671  0.5072
13788TIP3    H162779   0.845   1.677  12.299  0.1020 -0.4138  2.1111
13788TIP3    H262780   0.798   1.821  12.295  0.9978 -0.0480 -3.5364
13789TIP3   OH262781   1.512   0.192  12.041 -0.5494 -0.0735 -0.3250
13789TIP3    H162782   1.452   0.213  11.970 -1.2230  0.2283  0.3217
13789TIP3    H262783   1.593   0.237  12.018  0.1918 -2.2618 -2.3130
13790TIP3   OH262784   0.534   1.449   4.057 -0.1234 -0.3694 -0.3696
13790TIP3    H162785   0.559   1.457   4.149 -0.4559  0.8606 -0.3746
13790TIP3    H262786   0.464   1.384   4.057 -0.5186  0.0505  0.3246
13791TIP3   OH262787   1.665   1.216   2.370 -0.6499 -0.3729 -0.0074
13791TIP3    H162788   1.636   1.256   2.287  0.8186  0.0527 -0.3359
13791TIP3    H262789   1.645   1.281   2.436  0.4107  0.3243 -0.3570
13792TIP3   OH262790   6.214   1.552   0.432 -0.8671  0.3912 -0.2017
13792TIP3    H162791   6.231   1.466   0.395 -0.1187 -0.4569  1.9593
13792TIP3    H262792   6.221   1.612   0.357  1.2233 -1.1167 -1.3261
13793TIP3   OH262793   5.386   2.936   4.372 -0.2393 -0.2084  0.6750
13793TIP3    H162794   5.420   2.985   4.297  1.2925  0.4989  1.7737
13793TIP3    H262795   5.337   2.863   4.333  1.6218 -0.6251 -1.0398
13794TIP3   OH262796   0.531   2.760   2.067  0.0496 -0.3590  0.1343
13794TIP3    H162797   0.569   2.684   2.024 -0.4969 -1.1333  0.9851
13794TIP3    H262798   0.605   2.818   2.084  0.2200  0.2750 -2.3597
13795TIP3   OH262799   2.638   5.736   4.364 -0.8645  0.1107 -0.6527
13795TIP3    H162800   2.583   5.735   4.286  1.6531  0.3639 -2.5512
13795TIP3    H262801   2.669   5.646   4.372 -2.1111 -0.2351  0.9197
13796TIP3   OH262802   3.402   4.658   4.759  0.1969  0.0531  0.3964
13796TIP3    H162803   3.399   4.588   4.694 -0.0872  0.8947 -0.5220
13796TIP3    H262804   3.482   4.641   4.809  0.7582 -0.2656 -0.5837
13797TIP3   OH262805   4.974   0.036  15.913 -0.5903 -0.4558  0.0420
13797TIP3    H162806   5.062   0.001  15.927  0.4914  1.1032 -2.2647
13797TIP3    H262807   4.932  -0.027  15.855 -0.3689 -0.3531 -0.2326
13798TIP3   OH262808   4.162   2.442   4.965  0.5482 -0.8347 -0.0504
13798TIP3    H162809   4.160   2.531   4.929  3.2789 -0.5930  0.2371
13798TIP3    H262810   4.077   2.405   4.940  0.4458  0.8805 -2.6821
13799TIP3   OH262811   0.802   5.609  12.345 -0.0062 -0.2561  0.1465
13799TIP3    H162812   0.847   5.574  12.268 -1.4704  2.1956 -2.0009
13799TIP3    H262813   0.712   5.577  12.337 -0.4121  0.8043  0.2723
13800TIP3   OH262814   0.486   4.502  16.089  0.0632  0.3308 -0.2507
13800TIP3    H162815   0.510   4.592  16.068  1.0201  0.4512  1.2196
13800TIP3    H262816   0.555   4.472  16.148 -0.6556 -1.1126 -0.1034
13801TIP3   OH262817   0.370   0.488   0.512  0.4405 -0.1537  0.4000
13801TIP3    H162818   0.285   0.444   0.510 -0.3639  1.3372 -0.3417
13801TIP3    H262819   0.414   0.454   0.590 -0.6681 -1.2546  0.5591
13802TIP3   OH262820   5.523   0.963   6.396 -0.1866  0.3969  0.2785
13802TIP3    H162821   5.611   0.991   6.419  0.0838 -0.2242 -0.0019
13802TIP3    H262822   5.533   0.876   6.357 -1.0256 -0.1545  1.2269
13803TIP3   OH262823   2.732   5.236   6.584  0.7498  0.0540  0.1901
13803TIP3    H162824   2.726   5.144   6.556 -1.0969 -0.1988  1.2759
13803TIP3    H262825   2.735   5.285   6.502 -2.3820 -0.7754 -0.5465
13804TIP3   OH262826   4.969   3.100  13.868  0.3779 -0.3779  0.1076
13804TIP3    H162827   4.953   3.030  13.930 -1.2373 -0.7740 -0.7070
13804TIP3    H262828   5.044   3.148  13.904  1.0856 -2.1065  1.0110
13805TIP3   OH262829   2.710   5.835   3.029  0.2137  0.1809  0.5164
13805TIP3    H162830   2.784   5.839   2.968 -0.6723  0.7634 -0.5508
13805TIP3    H262831   2.729   5.903   3.093  1.0954 -0.3491  0.8390
13806TIP3   OH262832   3.276   2.661   3.949  0.1991  1.0145  0.1245
13806TIP3    H162833   3.313   2.580   3.983 -0.0142  1.2639  0.9847
13806TIP3    H262834   3.317   2.673   3.863 -1.6529 -1.3266 -1.1942
13807TIP3   OH262835   5.105   0.884   3.635  0.2091 -0.0062 -0.4748
13807TIP3    H162836   5.022   0.930   3.644  0.5281  0.3524  0.7752
13807TIP3    H262837   5.081   0.791   3.633 -0.2751  0.1257 -0.8837
13808TIP3   OH262838   4.598   5.153  16.878 -0.3948 -0.5604 -0.3614
13808TIP3    H162839   4.544   5.128  16.803 -1.3166 -0.8210  0.3796
13808TIP3    H262840   4.642   5.072  16.904 -1.2481 -0.8124  0.3183
13809TIP3   OH262841   6.751   4.346  15.347  0.2399  0.5636 -0.1098
13809TIP3    H162842   6.831   4.394  15.327  0.4747  0.4134  0.4495
13809TIP3    H262843   6.781   4.262  15.382 -0.1673  0.0948 -0.8768
13810TIP3   OH262844   5.198   2.105   2.048  0.3594 -0.5136 -0.4224
13810TIP3    H162845   5.190   2.175   1.983  0.7860 -0.6859 -0.6659
13810TIP3    H262846   5.259   2.140   2.113 -0.3712 -0.1889  0.0962
13811TIP3   OH262847   0.641   6.163   1.178  0.1323  0.6104  0.0767
13811TIP3    H162848   0.651   6.248   1.220  0.0696 -0.5011  2.5232
13811TIP3    H262849   0.730   6.129   1.173  0.1358  0.7246 -0.7233
13812TIP3   OH262850   6.416   1.531   1.058 -0.3116 -0.1509 -0.5763
13812TIP3    H162851   6.490   1.503   1.004 -0.6433 -0.0320 -1.0949
13812TIP3    H262852   6.368   1.593   1.003 -0.1832  0.6318  0.1626
13813TIP3   OH262853   3.452   3.651   3.613  0.1995 -0.1226 -0.0248
13813TIP3    H162854   3.532   3.693   3.583 -0.2946  0.9301  0.1109
13813TIP3    H262855   3.478   3.601   3.690  0.6766  0.3752  0.1371
13814TIP3   OH262856   3.790   2.516   0.600 -0.3215  0.2034  0.0887
13814TIP3    H162857   3.842   2.438   0.582  0.6727  1.1228 -1.2208
13814TIP3    H262858   3.706   2.499   0.558  0.1092  0.0789 -0.7452
13815TIP3   OH262859   6.551   5.730   3.471  0.0489  0.1848  0.2580
13815TIP3    H162860   6.494   5.667   3.426 -0.3129  1.9856 -1.9758
13815TIP3    H262861   6.504   5.752   3.551  0.0558 -2.1179  0.9705
13816TIP3   OH262862   2.043   4.234   5.614 -0.0893 -0.9196  0.3654
13816TIP3    H162863   2.082   4.220   5.528 -0.7230  0.5640 -0.1940
13816TIP3    H262864   2.092   4.307   5.652 -0.0174 -1.3565  1.1343
13817TIP3   OH262865   5.056   1.957   3.668  0.0915 -0.2165  0.2809
13817TIP3    H162866   5.004   1.977   3.590 -0.4346 -0.1797  0.6340
13817TIP3    H262867   5.088   2.042   3.697  1.6196 -0.3903 -0.7918
13818TIP3   OH262868   1.387   3.848  11.943  0.0765  0.5531 -0.0751
13818TIP3    H162869   1.396   3.786  12.016 -1.5747  0.8060  0.3770
13818TIP3    H262870   1.461   3.907  11.952  1.6840 -1.2904 -0.4882
13819TIP3   OH262871   3.504   5.507  15.057  0.0837 -0.2508  0.0874
13819TIP3    H162872   3.499   5.509  14.962  0.7041 -0.3516  0.0450
13819TIP3    H262873   3.597   5.494  15.076 -0.3520 -3.1490  0.6707
13820TIP3   OH262874   3.992   0.009   4.914  0.5711 -0.5061  0.3017
13820TIP3    H162875   4.065   0.003   4.975  0.8567 -1.1039 -0.0979
13820TIP3    H262876   3.975   0.103   4.907  1.6900 -0.3180 -0.0585
13821TIP3   OH262877   5.348   4.078  11.772 -0.1496  0.1105 -0.4538
13821TIP3    H162878   5.364   4.028  11.851 -0.3269  0.4411 -0.2019
13821TIP3    H262879   5.258   4.111  11.782  0.2987  1.3117 -0.1343
13822TIP3   OH262880   4.905   4.859  12.279  0.5451  0.3913  0.2915
13822TIP3    H162881   4.945   4.840  12.194  0.0528 -0.5430  0.2515
13822TIP3    H262882   4.961   4.812  12.342  0.3846  0.3290  0.3878
13823TIP3   OH262883   4.594   4.942  15.436  0.0242  0.2429  0.5353
13823TIP3    H162884   4.573   4.921  15.528 -0.6604 -0.1253  0.3027
13823TIP3    H262885   4.642   4.865  15.405 -1.9186 -0.7792 -0.1256
13824TIP3   OH262886   6.525   2.050   3.195  0.1047  0.5425 -0.7246
13824TIP3    H162887   6.467   1.980   3.165  0.3891 -1.7078  3.2307
13824TIP3    H262888   6.469   2.107   3.247  0.6160  0.8533 -0.5041
13825TIP3   OH262889   3.868   4.061  16.918 -0.1451  0.4420  0.4463
13825TIP3    H162890   3.928   3.992  16.890 -0.1388  1.2265 -1.5990
13825TIP3    H262891   3.922   4.140  16.920 -0.9801  1.0845 -1.0421
13826TIP3   OH262892   3.434   0.016  16.516 -0.9707  0.0694  0.0415
13826TIP3    H162893   3.471   0.088  16.463  1.0020 -0.3084  0.8152
13826TIP3    H262894   3.383   0.060  16.584 -1.0885  0.6664 -0.4221
13827TIP3   OH262895   3.962   5.509   0.783 -0.2969 -0.6135  0.7946
13827TIP3    H162896   3.992   5.459   0.708 -0.9117 -1.2738  0.9844
13827TIP3    H262897   3.913   5.582   0.745  0.2931 -0.3495  0.5295
13828TIP3   OH262898   4.385   1.571   2.781  0.7786 -0.5074 -0.1186
13828TIP3    H162899   4.292   1.552   2.786  0.8713 -2.1354 -2.9262
13828TIP3    H262900   4.428   1.487   2.802  1.4765 -0.6379 -1.8691
13829TIP3   OH262901   2.482   6.034   0.800 -0.2560  0.3761  0.4858
13829TIP3    H162902   2.396   6.045   0.761  0.4686 -1.2747 -1.7618
13829TIP3    H262903   2.536   6.103   0.760  0.0520 -0.1875 -0.0935
13830TIP3   OH262904   6.228   0.545  11.478 -0.0067 -0.2080 -0.3717
13830TIP3    H162905   6.153   0.545  11.419 -0.3022 -2.3480 -0.0589
13830TIP3    H262906   6.194   0.576  11.561 -0.5324 -1.0131 -0.2755
13831TIP3   OH262907   1.017   5.370  16.500  0.0367 -0.0238  0.6372
13831TIP3    H162908   1.046   5.461  16.502  3.1609 -0.8544 -0.7466
13831TIP3    H262909   0.945   5.369  16.437  0.9980  1.2786 -0.5424
13832TIP3   OH262910   2.290   5.366  11.108  0.1562 -0.0687  0.0296
13832TIP3    H162911   2.297   5.414  11.026  0.8284  0.9983  0.6700
13832TIP3    H262912   2.221   5.302  11.093 -0.2283  0.5803 -1.1332
13833TIP3   OH262913   4.171   4.841  14.720  0.5401 -0.0763 -0.3756
13833TIP3    H162914   4.234   4.874  14.656 -1.6830  0.6285 -2.3509
13833TIP3    H262915   4.117   4.779  14.671 -0.2078 -0.8073  1.2886
13834TIP3   OH262916   3.406   3.093  13.242 -0.6334  0.0677  0.4616
13834TIP3    H162917   3.499   3.099  13.261 -0.1526  1.2515 -1.8554
13834TIP3    H262918   3.368   3.174  13.277 -0.7731 -0.3341  1.2509
13835TIP3   OH262919   4.966   0.701   4.370  0.6779  0.2952 -0.0462
13835TIP3    H162920   5.056   0.733   4.368  1.6594 -2.0952  1.3699
13835TIP3    H262921   4.974   0.609   4.394 -2.1621 -0.0154  0.0427
13836TIP3   OH262922   2.816   0.457   1.033  0.1610  0.5238 -0.3754
13836TIP3    H162923   2.881   0.412   0.978 -0.9317 -2.2135  0.4324
13836TIP3    H262924   2.742   0.472   0.974 -0.6059 -1.4825 -0.0046
13837TIP3   OH262925   1.777   1.353   0.688  0.0686 -0.2189 -0.8785
13837TIP3    H162926   1.862   1.370   0.728  0.7178 -0.4416 -2.0883
13837TIP3    H262927   1.724   1.430   0.709  1.0627  0.6169 -1.3448
13838TIP3   OH262928   1.386   3.727   1.716  0.2259 -0.7062  0.1976
13838TIP3    H162929   1.457   3.667   1.738  0.1173 -0.7213  0.5105
13838TIP3    H262930   1.428   3.811   1.700  0.3621 -0.8271 -0.0806
13839TIP3   OH262931   6.194   4.031  16.925 -0.5337  0.3823  0.1955
13839TIP3    H162932   6.252   4.030  17.001  0.3034 -0.4055 -0.4345
13839TIP3    H262933   6.236   4.091  16.863 -1.7276  1.8057  0.7189
13840TIP3   OH262934   4.503   0.998   2.683  0.0151 -0.6650  0.3442
13840TIP3    H162935   4.415   1.026   2.658  0.1192 -0.0485  0.6270
13840TIP3    H262936   4.514   0.913   2.642 -1.1624 -1.3049  1.2911
13841TIP3   OH262937   1.591   4.502   6.304 -0.4736  0.1563  0.2170
13841TIP3    H162938   1.650   4.553   6.360 -0.4404  0.1367  0.2002
13841TIP3    H262939   1.537   4.567   6.261 -0.0036  0.2209 -0.2899
13842TIP3   OH262940   0.551   2.652   3.631  0.2470 -0.5307  0.4221
13842TIP3    H162941   0.523   2.589   3.564  1.2687 -0.6895  0.1258
13842TIP3    H262942   0.646   2.656   3.621  0.4265 -0.6281  1.9505
13843TIP3   OH262943   3.510   2.734  10.565  0.2811 -0.0261 -0.0959
13843TIP3    H162944   3.572   2.807  10.560  0.4697 -0.0414  1.4835
13843TIP3    H262945   3.552   2.664  10.515 -0.4738  1.2586 -2.7426
13844TIP3   OH262946   6.106   3.783   3.925  0.2994  0.2994  0.6841
13844TIP3    H162947   6.130   3.798   3.833 -0.9187  1.1394  0.4789
13844TIP3    H262948   6.054   3.702   3.923  0.8531 -0.0602  0.7392
13845TIP3   OH262949   4.438   4.023  12.361 -0.5477  0.3233 -0.8198
13845TIP3    H162950   4.431   4.106  12.314 -0.9038  1.3231  0.9217
13845TIP3    H262951   4.532   4.011  12.375 -0.5246  0.6871 -0.6604
13846TIP3   OH262952   2.867   4.409  13.696 -0.7963  0.3356 -0.5095
13846TIP3    H162953   2.838   4.473  13.631 -0.2211  2.6002  1.3058
13846TIP3    H262954   2.956   4.387  13.669 -1.3914 -0.6367 -1.7789
13847TIP3   OH262955   4.890   5.472   3.511 -0.3502 -0.2656 -0.1934
13847TIP3    H162956   4.798   5.462   3.533  0.0135 -0.4471  1.3484
13847TIP3    H262957   4.921   5.544   3.567  0.1642  0.6862 -1.6244
13848TIP3   OH262958   6.330   4.740  16.417  0.5295 -0.1714 -0.3870
13848TIP3    H162959   6.364   4.751  16.505  1.1164 -1.5760 -0.4210
13848TIP3    H262960   6.383   4.799  16.363  0.2153  0.6345  0.1680
13849TIP3   OH262961   1.259   1.444   4.360 -0.0592 -0.0575 -0.2965
13849TIP3    H162962   1.167   1.429   4.337  0.0574  0.6777 -1.3446
13849TIP3    H262963   1.270   1.539   4.352  0.1994  0.1787  2.2009
13850TIP3   OH262964   3.521   2.646   4.071  0.5864  0.0981 -0.4202
13850TIP3    H162965   3.571   2.694   4.006  1.2264 -1.8509 -1.4662
13850TIP3    H262966   3.539   2.554   4.052  1.2598 -0.5907  2.8441
13851TIP3   OH262967   1.425   3.720   5.713 -0.2505 -0.1098  0.2783
13851TIP3    H162968   1.494   3.714   5.780 -0.5484 -0.6020  0.5476
13851TIP3    H262969   1.439   3.644   5.657 -0.1268  0.1913 -0.1035
13852TIP3   OH262970   1.878   6.297  12.004 -0.6488  0.6562  0.3009
13852TIP3    H162971   1.827   6.315  12.083 -2.4213  0.4378 -0.7420
13852TIP3    H262972   1.814   6.264  11.942  1.2994 -3.0859  0.0177
13853TIP3   OH262973   6.522   6.409   5.331 -0.1133 -0.7561 -0.3234
13853TIP3    H162974   6.452   6.351   5.361 -0.2160 -0.4281  0.0854
13853TIP3    H262975   6.565   6.361   5.260  1.1632 -2.2781  1.3855
13854TIP3   OH262976   0.739   1.204   4.310 -0.8335  0.2080 -0.5111
13854TIP3    H162977   0.777   1.148   4.378  0.2450  0.1845 -1.1015
13854TIP3    H262978   0.748   1.153   4.230 -1.4787  0.5067 -0.7781
13855TIP3   OH262979   5.558   3.361  16.196  0.0419  0.2325  0.0641
13855TIP3    H162980   5.491   3.398  16.140  0.1031 -0.8156 -0.7288
13855TIP3    H262981   5.521   3.277  16.225  1.4084 -0.8526 -1.2331
13856TIP3   OH262982   2.654   3.469   5.294  0.2710  0.0046  0.5217
13856TIP3    H162983   2.632   3.546   5.241  0.4572  0.1445  0.6431
13856TIP3    H262984   2.730   3.431   5.250  0.5710  0.2533  0.8091
13857TIP3   OH262985   2.491   1.081  14.094  0.1205 -0.1346 -0.2496
13857TIP3    H162986   2.427   1.038  14.150  0.8960  0.1890  0.9252
13857TIP3    H262987   2.572   1.081  14.146  1.4191 -1.5526 -2.0874
13858TIP3   OH262988   3.948   2.309   0.301 -0.0349  0.1336  0.1429
13858TIP3    H162989   3.996   2.392   0.305 -0.1150  0.1802  0.1419
13858TIP3    H262990   3.865   2.332   0.260  0.5691 -0.2362 -1.3626
13859TIP3   OH262991   1.697   3.595   2.124  1.3727  0.0901 -0.1144
13859TIP3    H162992   1.611   3.559   2.142  1.6141 -0.4803 -0.0844
13859TIP3    H262993   1.683   3.690   2.117  0.9853  0.1689  1.4037
13860TIP3   OH262994   1.065   4.875   4.117 -0.1385  0.5368  0.6013
13860TIP3    H162995   1.050   4.935   4.191 -0.6833  1.0589  0.0749
13860TIP3    H262996   1.121   4.807   4.153  1.3200  1.8818  0.9699
13861TIP3   OH262997   4.950   4.590  12.626 -0.2065  0.1058 -0.2659
13861TIP3    H162998   4.942   4.616  12.718  0.7277  0.4103 -0.2504
13861TIP3    H262999   4.894   4.514  12.617 -0.9530  0.5693  0.3557
13862TIP3   OH263000   1.377   4.564  13.010 -0.3851 -0.1200  0.0076
13862TIP3    H163001   1.435   4.541  13.082  0.2287  1.3801  0.0232
13862TIP3    H263002   1.303   4.609  13.051 -0.9081 -0.8033 -0.1504
13863TIP3   OH263003   5.459   1.465   1.263 -0.0492 -0.4541 -0.1051
13863TIP3    H163004   5.500   1.381   1.284  0.4908 -0.5551 -1.4430
13863TIP3    H263005   5.526   1.513   1.214 -0.6385  0.4341 -0.0737
13864TIP3   OH263006   6.574   0.215  10.731  0.2129  0.3256 -0.3049
13864TIP3    H163007   6.661   0.243  10.705  1.3641 -0.8667  1.9856
13864TIP3    H263008   6.555   0.141  10.674  0.5590  0.7754 -1.0165
13865TIP3   OH263009   5.356   2.505  16.973  0.0084  0.2662 -0.8321
13865TIP3    H163010   5.442   2.538  16.943 -0.0967  1.2718 -0.0804
13865TIP3    H263011   5.294   2.570  16.940 -0.4789 -0.4806 -1.4010
13866TIP3   OH263012   5.159   6.526  14.053  0.6452 -0.2497 -0.8556
13866TIP3    H163013   5.086   6.550  13.996 -0.1207 -1.5539 -0.4692
13866TIP3    H263014   5.227   6.495  13.993  0.3801 -0.2698 -1.1509
13867TIP3   OH263015   4.951   3.165   1.256 -0.5363  0.5587 -0.1261
13867TIP3    H163016   5.026   3.163   1.196  0.5468  0.6272  1.1809
13867TIP3    H263017   4.923   3.073   1.262 -0.6383  0.5498 -0.7119
13868TIP3   OH263018   5.700   4.329  12.705 -0.3754  0.0034  0.3661
13868TIP3    H163019   5.641   4.344  12.631  0.9040 -1.9158 -1.1596
13868TIP3    H263020   5.770   4.394  12.692 -1.3127  1.2341  1.2834
13869TIP3   OH263021   4.507   0.285  17.123 -0.4267 -0.2597 -0.2001
13869TIP3    H163022   4.553   0.344  17.064 -1.2939  0.1060 -0.5282
13869TIP3    H263023   4.508   0.201  17.077  0.6983 -0.4927  0.2104
13870TIP3   OH263024   5.919   2.584  14.362 -0.0885  0.2376 -0.1877
13870TIP3    H163025   5.907   2.574  14.456  1.1343 -0.7329 -0.1032
13870TIP3    H263026   5.875   2.666  14.340 -1.9767 -0.4369  0.8910
13871TIP3   OH263027   5.142   3.883  11.978 -0.5193  0.3015 -0.1094
13871TIP3    H163028   5.097   3.964  11.953  0.4484  1.0991  0.6574
13871TIP3    H263029   5.230   3.910  12.003 -0.7842 -0.6660  2.1941
13872TIP3   OH263030   5.838   5.010  14.060  0.8611  0.2993 -0.0452
13872TIP3    H163031   5.824   4.929  14.108  0.6145  0.0469 -0.5408
13872TIP3    H263032   5.934   5.016  14.051  0.8536 -0.2051 -0.4669
13873TIP3   OH263033   1.888   2.586   5.847 -0.4386  0.3737 -0.5554
13873TIP3    H163034   1.898   2.627   5.933 -1.3328 -2.5467  1.0776
13873TIP3    H263035   1.820   2.638   5.804 -2.1786  0.1575  1.7458
13874TIP3   OH263036   4.124   6.306  15.193  0.3421 -0.2502  0.0248
13874TIP3    H163037   4.200   6.347  15.151 -0.6650  0.5528 -1.0478
13874TIP3    H263038   4.125   6.216  15.160  0.7086 -0.1969 -0.1223
13875TIP3   OH263039   1.171   1.645   0.122 -0.4064  0.4169  0.4384
13875TIP3    H163040   1.124   1.666   0.041 -0.7100  0.4144  0.6125
13875TIP3    H263041   1.254   1.692   0.115 -1.4871  2.5603  1.2930
13876TIP3   OH263042   1.485   3.718  16.813  0.2249  0.4344 -0.4780
13876TIP3    H163043   1.564   3.769  16.795 -0.0813  0.6851 -1.1516
13876TIP3    H263044   1.500   3.635  16.767  1.2278 -0.5716  1.5714
13877TIP3   OH263045   3.552   4.050   6.110  0.0471 -0.5335  0.6077
13877TIP3    H163046   3.604   4.081   6.184 -1.0061  1.3362  0.6259
13877TIP3    H263047   3.485   3.994   6.149  0.0924 -0.3521  0.9452
13878TIP3   OH263048   1.902   2.956   0.247 -0.4311 -0.0735 -0.2200
13878TIP3    H163049   1.907   2.984   0.338  2.4282  2.1581 -0.9291
13878TIP3    H263050   1.940   2.869   0.245 -1.2493 -0.4703  0.7751
13879TIP3   OH263051   0.031   4.649   0.899 -0.2764 -0.0038  0.1119
13879TIP3    H163052   0.072   4.735   0.901  0.2971 -0.2741  0.9568
13879TIP3    H263053  -0.057   4.663   0.934  0.3177  0.0191  1.6782
13880TIP3   OH263054   0.164   2.332   5.560 -0.5596 -0.0766 -0.3673
13880TIP3    H163055   0.079   2.316   5.601  0.0182 -0.6136  0.6370
13880TIP3    H263056   0.146   2.325   5.466 -1.7775  0.5912 -0.2030
13881TIP3   OH263057   2.222   4.728   2.807 -0.6154  0.3554  0.0097
13881TIP3    H163058   2.268   4.683   2.878 -2.0527  0.8499  1.3053
13881TIP3    H263059   2.291   4.758   2.749  0.5200 -1.3135  0.4367
13882TIP3   OH263060   5.864   0.351  13.533  0.1358 -0.1645 -0.5958
13882TIP3    H163061   5.815   0.377  13.455 -1.4341 -2.5549 -0.5160
13882TIP3    H263062   5.804   0.292  13.580  1.6917 -0.1585  1.5299
13883TIP3   OH263063   2.948   4.364  16.634 -0.3962  0.4439  0.3928
13883TIP3    H163064   2.898   4.405  16.705 -1.0827  0.3369 -0.0164
13883TIP3    H263065   2.884   4.352  16.564 -0.2215 -1.2982  0.4885
13884TIP3   OH263066   6.231   0.129  15.237 -0.2602  0.1381 -0.1108
13884TIP3    H163067   6.326   0.142  15.242 -0.1757 -0.8747  1.7769
13884TIP3    H263068   6.209   0.145  15.145  1.8316 -0.2899 -0.7298
13885TIP3   OH263069   4.732   3.781   2.420 -0.3717  0.3123  0.4861
13885TIP3    H163070   4.735   3.843   2.347 -0.8989 -0.1191  0.0908
13885TIP3    H263071   4.758   3.833   2.496 -0.7275  1.0074  0.1427
13886TIP3   OH263072   3.723   0.169   4.442 -0.0878  0.4972  0.6617
13886TIP3    H163073   3.642   0.211   4.412  0.1153  0.8222  0.5623
13886TIP3    H263074   3.757   0.125   4.365 -1.3318 -1.5641  1.2143
13887TIP3   OH263075   3.864   5.224  11.162 -0.2663 -0.0107 -0.0372
13887TIP3    H163076   3.903   5.186  11.083  0.0078 -0.0487  0.1180
13887TIP3    H263077   3.878   5.319  11.152  0.1091 -0.0482  0.1536
13888TIP3   OH263078   4.014   5.694   1.047  0.0683  0.0697 -0.4332
13888TIP3    H163079   4.034   5.632   1.117  1.0356 -0.0572 -0.8014
13888TIP3    H263080   4.079   5.675   0.979 -0.0200  1.0702 -0.8158
13889TIP3   OH263081   0.492   1.010   3.776  0.2068  0.0871 -0.6847
13889TIP3    H163082   0.490   1.052   3.862  1.3667 -3.0294  1.0526
13889TIP3    H263083   0.582   0.979   3.767 -0.6966 -2.6631 -1.3127
13890TIP3   OH263084   6.289   3.170   1.717  0.1564 -0.2384 -0.0440
13890TIP3    H163085   6.224   3.210   1.659  0.4985 -1.1553 -1.1027
13890TIP3    H263086   6.265   3.077   1.719  1.1108 -0.4920 -0.0216
13891TIP3   OH263087   5.810   5.051  13.242 -0.1877 -0.6548 -1.1576
13891TIP3    H163088   5.727   5.099  13.245 -0.0798 -0.3944 -2.0610
13891TIP3    H263089   5.877   5.118  13.258 -0.0729 -0.6049 -1.8213
13892TIP3   OH263090   2.214   2.792  12.433 -0.2986  0.3372 -0.6961
13892TIP3    H163091   2.266   2.770  12.355  0.5549 -0.7262  0.1334
13892TIP3    H263092   2.161   2.714  12.448  0.4409  0.0290  0.4749
13893TIP3   OH263093   1.924   3.151  12.054 -0.0618  0.4860  0.4639
13893TIP3    H163094   1.931   3.140  12.149  0.2017 -0.2379  0.3637
13893TIP3    H263095   1.845   3.203  12.042 -0.8150 -0.5085  1.0169
13894TIP3   OH263096   6.436   1.078  14.879  0.4799 -0.4303 -0.6291
13894TIP3    H163097   6.530   1.092  14.886  0.2246  1.3616 -0.4509
13894TIP3    H263098   6.402   1.158  14.839 -0.8350 -1.5357 -1.8691
13895TIP3   OH263099   6.416   3.981  12.689 -0.0276 -0.0135 -0.2633
13895TIP3    H163100   6.480   3.911  12.678  0.6127  0.3635  0.8310
13895TIP3    H263101   6.331   3.938  12.682  0.3511 -0.6798 -0.8376
13896TIP3   OH263102   2.485   2.128  11.677 -0.6360 -0.3056  0.3047
13896TIP3    H163103   2.428   2.076  11.622 -1.7017  2.2576 -1.1740
13896TIP3    H263104   2.426   2.185  11.727  0.4993  0.1086  1.2344
13897TIP3   OH263105   4.579   3.338   1.232 -0.0570  0.0268 -0.3140
13897TIP3    H163106   4.636   3.339   1.309 -0.4775  0.3234 -0.0050
13897TIP3    H263107   4.529   3.419   1.238 -1.8896 -1.0973  0.4596
13898TIP3   OH263108   4.765   5.693  12.518  0.2731  0.1805  0.3322
13898TIP3    H163109   4.671   5.680  12.533  0.0133  1.7144  0.1746
13898TIP3    H263110   4.772   5.708  12.424  0.6733  0.1201  0.3546
13899TIP3   OH263111   5.064   1.657   4.367 -0.4021  0.8727 -0.2494
13899TIP3    H163112   4.997   1.632   4.305 -2.0547 -0.3422  1.8959
13899TIP3    H263113   5.147   1.639   4.322 -1.5143 -1.5139 -1.4928
13900TIP3   OH263114   5.550   5.292   4.893  0.9035 -0.3144  0.5735
13900TIP3    H163115   5.460   5.263   4.898  1.1853 -1.5929 -0.9322
13900TIP3    H263116   5.580   5.263   4.807  2.0116  2.2578  0.0027
13901TIP3   OH263117   6.676   1.732  12.392  0.3578  0.1520  0.4965
13901TIP3    H163118   6.633   1.814  12.416  0.1134  0.4247 -0.7712
13901TIP3    H263119   6.624   1.664  12.435 -0.3671  0.5799  0.3153
13902TIP3   OH263120   1.671   0.540  13.099 -0.2704 -0.2572 -0.5126
13902TIP3    H163121   1.723   0.509  13.025  0.1114  1.2399 -0.8997
13902TIP3    H263122   1.652   0.632  13.079 -1.1510 -0.1432  0.7016
13903TIP3   OH263123   5.459   5.504   2.671 -0.2988  0.1433  0.4493
13903TIP3    H163124   5.533   5.454   2.704 -0.2026  1.1732  1.8697
13903TIP3    H263125   5.481   5.595   2.689 -0.8216  0.6737 -1.3815
13904TIP3   OH263126   4.778   0.678   1.397  0.2028 -0.2397 -0.3721
13904TIP3    H163127   4.852   0.656   1.340  0.5425 -0.6046  0.1952
13904TIP3    H263128   4.797   0.632   1.479  0.0800  0.8413  0.2764
13905TIP3   OH263129   6.312   0.689  12.734  0.8066 -0.2112  0.1585
13905TIP3    H163130   6.340   0.740  12.658  0.4734 -0.9640 -0.4921
13905TIP3    H263131   6.216   0.693  12.732  0.7457 -1.3952 -0.3051
13906TIP3   OH263132   3.889   1.011  12.082 -0.0176 -0.2109 -0.1565
13906TIP3    H163133   3.977   1.041  12.105  0.0083  0.5237 -1.1530
13906TIP3    H263134   3.900   0.971  11.995 -0.5736 -0.6029 -0.0516
13907TIP3   OH263135   1.876   1.059   4.567  0.1639  0.9894 -0.6370
13907TIP3    H163136   1.925   1.142   4.567 -2.0459  2.3979  0.9835
13907TIP3    H263137   1.788   1.084   4.595 -0.0614 -2.2246  2.0423
13908TIP3   OH263138   1.269   5.341   4.414  0.0935 -0.6824  0.2080
13908TIP3    H163139   1.235   5.259   4.449 -1.6743 -0.3843 -0.6798
13908TIP3    H263140   1.347   5.317   4.365  0.1598 -1.6703  0.7789
13909TIP3   OH263141   1.200   4.836   2.691  0.0105  0.1292 -0.2169
13909TIP3    H163142   1.153   4.784   2.626 -0.8249  0.8664 -0.2293
13909TIP3    H263143   1.277   4.869   2.644 -0.6766  0.7958 -0.8901
13910TIP3   OH263144   2.285   6.249  12.728 -0.0915  0.2808  0.2360
13910TIP3    H163145   2.248   6.204  12.653 -0.8307  0.6878  0.3424
13910TIP3    H263146   2.377   6.221  12.731  0.0921  0.6709 -1.1261
13911TIP3   OH263147   3.325   2.824  14.454 -0.4127 -0.2342  0.0912
13911TIP3    H163148   3.326   2.900  14.512  2.1209  1.1748 -1.6124
13911TIP3    H263149   3.255   2.843  14.391 -0.2307  0.3611  0.0667
13912TIP3   OH263150   1.129   6.506  11.806  0.3066  0.3297  0.3883
13912TIP3    H163151   1.058   6.564  11.834 -1.2439 -0.7677 -1.0883
13912TIP3    H263152   1.193   6.564  11.764 -0.3788  1.1727  0.4936
13913TIP3   OH263153   5.817   4.018  12.318  0.3394  0.4096  0.7597
13913TIP3    H163154   5.890   4.075  12.293 -0.4031  1.1058  0.1292
13913TIP3    H263155   5.758   4.075  12.367 -0.4666  0.2267  0.0257
13914TIP3   OH263156   2.591   5.482  14.961 -0.0515 -0.3791 -0.3095
13914TIP3    H163157   2.567   5.397  15.000 -0.8915  0.1604  0.3910
13914TIP3    H263158   2.512   5.511  14.916  0.4652 -0.3034 -1.1838
13915TIP3   OH263159   1.787   0.669   4.590 -0.0848  0.5215 -0.1940
13915TIP3    H163160   1.799   0.636   4.680  0.0191  0.0882 -0.3650
13915TIP3    H263161   1.715   0.731   4.597  0.2033  0.8135  0.2713
13916TIP3   OH263162   1.165   1.307  16.110  0.2493  0.1693  0.1354
13916TIP3    H163163   1.079   1.318  16.069 -0.4840  0.6570  1.7117
13916TIP3    H263164   1.154   1.344  16.198  1.8092 -0.6054  0.6872
13917TIP3   OH263165   1.611   2.029   2.564 -0.6572  0.0630 -0.0840
13917TIP3    H163166   1.600   2.045   2.470 -0.9529 -0.5117 -0.1533
13917TIP3    H263167   1.545   1.963   2.585 -0.4386  0.0171  0.4816
13918TIP3   OH263168   6.431   0.726  11.653  0.0746  0.0551 -0.2143
13918TIP3    H163169   6.339   0.702  11.658  0.6579 -2.5788 -0.5779
13918TIP3    H263170   6.441   0.769  11.568 -0.8148  0.3610 -0.1657
13919TIP3   OH263171   3.972   4.520  14.081  0.0517  0.1284 -0.1950
13919TIP3    H163172   3.929   4.520  13.996  0.8206 -0.6694 -0.5994
13919TIP3    H263173   4.025   4.600  14.081  0.1524  0.0637 -0.5165
13920TIP3   OH263174   4.760   5.162  11.889  0.2054 -0.3947 -0.0812
13920TIP3    H163175   4.742   5.116  11.807 -1.0242 -0.3742  0.1584
13920TIP3    H263176   4.842   5.125  11.920 -0.5603 -2.1769 -0.0674
13921TIP3   OH263177   1.292   3.434   4.722 -0.1637 -0.3993 -0.3181
13921TIP3    H163178   1.379   3.429   4.761  0.6181 -0.6338 -2.0131
13921TIP3    H263179   1.307   3.426   4.628 -1.8493  1.3567 -0.8073
13922TIP3   OH263180   2.772   4.655  14.187  0.1065 -0.1760  0.1595
13922TIP3    H163181   2.686   4.694  14.205  0.2717  0.0717  0.4110
13922TIP3    H263182   2.767   4.568  14.227  0.0380 -0.0901  0.3393
13923TIP3   OH263183   2.025   4.055  16.660  0.9023 -0.4309 -0.5811
13923TIP3    H163184   1.965   4.098  16.600 -3.7768 -1.7924  2.5931
13923TIP3    H263185   2.039   4.119  16.730  0.5088 -1.1941  0.2215
13924TIP3   OH263186   6.528   4.474  17.155  0.2243 -0.4811 -0.0959
13924TIP3    H163187   6.533   4.446  17.064 -2.7365 -0.1209 -0.4868
13924TIP3    H263188   6.436   4.459  17.179 -0.1318  3.2180  1.5025
13925TIP3   OH263189   0.151   0.757  14.259  0.1436 -0.3436 -0.3197
13925TIP3    H163190   0.082   0.694  14.278 -0.3543  0.5601  0.9173
13925TIP3    H263191   0.107   0.826  14.209 -0.1630  0.8227  1.4790
13926TIP3   OH263192   4.740   4.418   0.167 -0.2400 -0.5108  0.6867
13926TIP3    H163193   4.793   4.373   0.232 -0.9804 -2.3816  0.0721
13926TIP3    H263194   4.747   4.363   0.089 -0.3018  1.0612 -0.4750
13927TIP3   OH263195   3.953   4.464  15.941  0.4992  0.4216 -0.5674
13927TIP3    H163196   4.013   4.389  15.938 -0.0146  0.0212 -2.7882
13927TIP3    H263197   3.877   4.431  15.990  0.6392 -0.2489 -0.7835
13928TIP3   OH263198   3.897   5.816   1.560 -0.1623 -0.0710 -0.0301
13928TIP3    H163199   3.991   5.832   1.545 -0.9190  2.7613 -2.9521
13928TIP3    H263200   3.874   5.873   1.633  0.2376 -0.2040  0.2047
13929TIP3   OH263201   6.356   2.948   3.245  0.9030  0.0272 -0.0862
13929TIP3    H163202   6.289   2.921   3.183 -0.2020  1.1111  0.5699
13929TIP3    H263203   6.388   2.867   3.283 -2.2971 -0.5209  1.8469
13930TIP3   OH263204   1.383   4.035  10.959  0.2437  0.1882 -0.5839
13930TIP3    H163205   1.323   3.976  11.005  0.9079  0.4274  0.6413
13930TIP3    H263206   1.464   3.984  10.950  1.4257  1.4119  2.0583
13931TIP3   OH263207   6.554   1.187   6.604  0.8846  0.4427 -0.4504
13931TIP3    H163208   6.471   1.178   6.557  0.0247  3.1764  0.3676
13931TIP3    H263209   6.619   1.148   6.546 -0.5774  0.8276 -2.4526
13932TIP3   OH263210   5.373   6.351  13.991  0.1892 -0.2469  0.4730
13932TIP3    H163211   5.350   6.336  14.083  0.8428  0.7465  0.8169
13932TIP3    H263212   5.457   6.397  13.994 -0.4471  1.0782 -0.5645
13933TIP3   OH263213   0.427   6.653  16.910 -0.3064 -0.4564  0.5717
13933TIP3    H163214   0.352   6.697  16.869 -0.7372 -0.9725  0.7843
13933TIP3    H263215   0.460   6.593  16.843  0.1841  0.0759  0.3343
13934TIP3   OH263216   1.481   4.721   3.922  0.0098 -0.4885 -0.4154
13934TIP3    H163217   1.451   4.732   4.012  0.1557  1.3680 -0.5593
13934TIP3    H263218   1.554   4.659   3.929 -0.5612 -1.0725  0.6049
13935TIP3   OH263219   2.314   2.461  12.941  0.0418 -0.4710  0.5405
13935TIP3    H163220   2.293   2.550  12.914  1.3279 -0.5816 -0.9707
13935TIP3    H263221   2.272   2.451  13.026  0.6009  1.8652  1.1433
13936TIP3   OH263222   5.775   0.152   3.944 -0.4531  0.1125  0.0582
13936TIP3    H163223   5.753   0.228   3.997  4.4068  1.3486  0.7660
13936TIP3    H263224   5.760   0.180   3.853 -1.4261  0.8230  0.4305
13937TIP3   OH263225   4.158   6.465  15.854  0.5332  0.4933  0.0514
13937TIP3    H163226   4.105   6.475  15.934 -0.9438  1.3605 -0.9855
13937TIP3    H263227   4.104   6.411  15.796  2.1047 -1.1529  0.0366
13938TIP3   OH263228   2.608   3.643  10.977 -0.2311  0.2733  0.3773
13938TIP3    H163229   2.594   3.729  11.018  0.0215  0.4412  0.1215
13938TIP3    H263230   2.671   3.600  11.033 -1.9032 -0.5965  1.6896
13939TIP3   OH263231   5.084   5.031  15.289 -0.2497  0.2090  0.3088
13939TIP3    H163232   5.017   5.094  15.262  0.2890  0.4218 -0.5974
13939TIP3    H263233   5.163   5.085  15.301 -0.4307  0.1134  2.2890
13940TIP3   OH263234   4.838   0.174   5.672 -0.3441 -0.0524  0.4799
13940TIP3    H163235   4.916   0.141   5.717 -0.6253  0.0354  1.0350
13940TIP3    H263236   4.828   0.264   5.705 -0.9003 -0.1925  0.7068
13941TIP3   OH263237   1.866   4.772   5.921 -0.6759  0.5346  0.1451
13941TIP3    H163238   1.791   4.745   5.868 -2.0220  2.8321  0.7595
13941TIP3    H263239   1.889   4.693   5.971 -1.4945 -0.7255 -1.3628
13942TIP3   OH263240   2.862   2.658   3.134  0.3566 -0.2033  0.5662
13942TIP3    H163241   2.886   2.594   3.201  0.3024 -1.1300 -0.2775
13942TIP3    H263242   2.769   2.674   3.148  0.0226 -1.4132 -0.0894
13943TIP3   OH263243   5.494   2.555  13.823 -0.2737 -0.1259  0.5185
13943TIP3    H163244   5.517   2.516  13.739 -0.4818 -1.2488  0.9536
13943TIP3    H263245   5.456   2.640  13.801 -0.1074 -0.3033 -0.5042
13944TIP3   OH263246   0.078   4.197   2.987  0.2553  0.5504  0.1558
13944TIP3    H163247   0.049   4.274   3.035  0.1031  0.9633 -0.5856
13944TIP3    H263248   0.135   4.231   2.918  1.3210 -0.1201  0.6686
13945TIP3   OH263249   5.459   2.154  13.504  0.3519 -0.1367 -0.3477
13945TIP3    H163250   5.490   2.245  13.499 -1.5568  0.6542  0.7509
13945TIP3    H263251   5.443   2.140  13.598 -1.3977 -0.8491 -0.7200
13946TIP3   OH263252   3.487   1.531   3.994 -0.0947  0.1204  0.1464
13946TIP3    H163253   3.484   1.437   3.977  2.5274  0.1220 -0.6690
13946TIP3    H263254   3.432   1.570   3.926  0.9276 -0.6886 -1.1904
13947TIP3   OH263255   1.046   3.584   4.708 -0.6915 -0.2211  0.2173
13947TIP3    H163256   1.122   3.535   4.679  0.3186  0.7936  1.0486
13947TIP3    H263257   0.978   3.518   4.722  0.9661 -1.5847  2.4360
13948TIP3   OH263258   0.119   4.876  15.106 -0.6652 -0.2523 -0.4004
13948TIP3    H163259   0.059   4.801  15.101  0.7534 -1.5861  1.0351
13948TIP3    H263260   0.075   4.938  15.164 -0.8360 -1.0612  0.3602
13949TIP3   OH263261   2.258   2.900  15.568 -0.0100 -0.4509 -0.4097
13949TIP3    H163262   2.201   2.844  15.515 -0.0217 -1.6888  0.8488
13949TIP3    H263263   2.346   2.880  15.539 -0.0869 -0.1365 -0.8683
13950TIP3   OH263264   2.147   6.593  11.012 -0.1842  0.0845 -0.9234
13950TIP3    H163265   2.082   6.590  11.082  0.0651 -2.7258 -0.6783
13950TIP3    H263266   2.095   6.602  10.932 -0.5948  1.5243 -0.5113
13951TIP3   OH263267   4.738   3.538  11.189 -0.4898  0.0806 -0.6203
13951TIP3    H163268   4.787   3.472  11.236 -0.6712 -0.5930 -1.3570
13951TIP3    H263269   4.789   3.554  11.109 -0.2212  1.1515 -0.2619
13952TIP3   OH263270   0.695   1.887  16.772 -0.6348 -0.5000  0.6595
13952TIP3    H163271   0.646   1.958  16.813 -1.2244 -0.6264  0.2000
13952TIP3    H263272   0.787   1.908  16.788 -0.8199  0.1089  0.9438
13953TIP3   OH263273   1.921   0.536   2.585 -0.2946  0.1829  0.5275
13953TIP3    H163274   1.832   0.567   2.605 -0.4429 -0.6325  1.2043
13953TIP3    H263275   1.911   0.441   2.576  0.4371  0.1390  0.1689
13954TIP3   OH263276   6.124   5.559   3.053 -0.5302 -0.3944 -0.5593
13954TIP3    H163277   6.077   5.475   3.052  0.9359 -1.2448 -0.2549
13954TIP3    H263278   6.073   5.614   3.112  0.3724 -2.2405  2.1019
13955TIP3   OH263279   4.171   5.793   1.298  0.0421  0.2064 -0.2501
13955TIP3    H163280   4.249   5.838   1.266  1.8168 -1.9561  0.7494
13955TIP3    H263281   4.102   5.818   1.237  1.4483  2.3233 -1.0810
13956TIP3   OH263282   2.294   3.112   3.107 -0.0540  0.5079  0.9010
13956TIP3    H163283   2.287   3.191   3.054  1.0144  1.2076  1.7660
13956TIP3    H263284   2.388   3.094   3.112 -0.2808 -0.8677  0.6517
13957TIP3   OH263285   6.006   6.751  12.673  0.0404 -0.7095  0.5778
13957TIP3    H163286   5.921   6.715  12.700 -0.3504 -0.6245 -0.5151
13957TIP3    H263287   6.019   6.718  12.584  1.2698 -0.9137  0.8180
13958TIP3   OH263288   0.230   0.061   5.546 -0.4384  0.1129  0.1636
13958TIP3    H163289   0.307   0.025   5.503 -0.9676  0.6172 -1.2657
13958TIP3    H263290   0.265   0.106   5.624  0.7650  0.6995 -0.6842
13959TIP3   OH263291   5.008   5.569  10.770  0.1601 -0.5532 -0.3269
13959TIP3    H163292   4.995   5.621  10.849  1.1753  0.0791 -0.5494
13959TIP3    H263293   5.085   5.515  10.788  0.4687 -0.3252 -0.9019
13960TIP3   OH263294   5.798   3.936  16.572  0.0945  0.3625  0.2878
13960TIP3    H163295   5.825   3.861  16.625 -1.0137  0.1649  0.5940
13960TIP3    H263296   5.879   3.966  16.531  0.2080 -2.6938 -2.0880
13961TIP3   OH263297   0.491   6.407  12.370  0.0740 -0.3677 -0.3948
13961TIP3    H163298   0.487   6.361  12.454  2.7435  0.3237  0.2128
13961TIP3    H263299   0.542   6.348  12.314  0.1609  0.1221 -0.8295
13962TIP3   OH263300   6.434   5.476  11.696 -0.2541 -0.2147  0.1221
13962TIP3    H163301   6.345   5.509  11.705  0.3953  1.6882  0.1312
13962TIP3    H263302   6.488   5.540  11.743  1.5701  1.2456 -3.5576
13963TIP3   OH263303   4.197   0.575  11.959  0.0291 -0.5584 -0.0647
13963TIP3    H163304   4.107   0.596  11.986  0.1779 -1.1932  0.9801
13963TIP3    H263305   4.231   0.657  11.923 -0.8580 -0.2265 -0.1734
13964TIP3   OH263306   2.158   0.136  11.548  0.3873 -0.1528 -0.2425
13964TIP3    H163307   2.215   0.080  11.496  1.5936  0.0743  0.7981
13964TIP3    H263308   2.210   0.215  11.565  0.3751 -0.5801  2.0270
13965TIP3   OH263309   0.900   6.385  13.221  0.5041  0.2214 -0.2684
13965TIP3    H163310   0.982   6.381  13.271 -0.2908 -2.0148  1.0570
13965TIP3    H263311   0.834   6.356  13.284 -0.8500 -0.8314 -2.1029
13966TIP3   OH263312   0.297   4.917  16.981  0.6450  0.2085 -0.0060
13966TIP3    H163313   0.233   4.983  16.958 -0.1466 -0.3695  0.4759
13966TIP3    H263314   0.381   4.963  16.982 -0.1373  1.7905  2.5967
13967TIP3   OH263315   2.406   3.704  14.740 -1.0970 -0.2226 -0.3104
13967TIP3    H163316   2.466   3.632  14.719 -0.6114 -0.2917  1.1764
13967TIP3    H263317   2.319   3.667  14.726 -0.8469 -1.0092  0.1275
13968TIP3   OH263318   2.414   1.526   0.311 -0.3387  0.4888  0.1722
13968TIP3    H163319   2.463   1.609   0.314  0.4650  0.0043  0.6951
13968TIP3    H263320   2.334   1.543   0.360 -0.0584  0.8816  0.4958
13969TIP3   OH263321   0.508   1.460  11.465  0.3234 -0.1825 -0.0737
13969TIP3    H163322   0.522   1.547  11.501  0.4093  0.5593 -1.7914
13969TIP3    H263323   0.581   1.447  11.404  0.4204 -1.5397  0.3062
13970TIP3   OH263324   3.037   5.383   3.118  0.2539  0.1100 -0.0930
13970TIP3    H163325   2.946   5.371   3.090  0.0870 -0.0691  0.4997
13970TIP3    H263326   3.043   5.334   3.201  0.8485  0.2455 -0.0501
13971TIP3   OH263327   4.379   0.917  16.049 -0.1506  0.2090 -0.1484
13971TIP3    H163328   4.311   0.928  16.116 -0.5036 -1.0209 -0.2692
13971TIP3    H263329   4.331   0.911  15.967  0.2724  1.5253 -0.5025
13972TIP3   OH263330   4.477   2.658   5.210  0.0674  0.3891  0.4401
13972TIP3    H163331   4.501   2.714   5.136 -1.5765 -1.8982 -2.0363
13972TIP3    H263332   4.410   2.708   5.257 -0.5738  0.9836 -1.0396
13973TIP3   OH263333   3.863   6.631  12.761 -0.6474  0.1705  0.1268
13973TIP3    H163334   3.943   6.591  12.726 -1.1786  0.3078 -1.3222
13973TIP3    H263335   3.796   6.564  12.749 -0.2126 -1.3198  4.4718
13974TIP3   OH263336   5.037   0.254   0.583 -0.1388 -0.1269 -0.0858
13974TIP3    H163337   5.111   0.300   0.542 -0.3045  0.8964  0.7119
13974TIP3    H263338   5.070   0.167   0.603  1.1290  0.5566  0.9725
13975TIP3   OH263339   4.793   0.582   1.990  0.1702 -0.9620 -0.8353
13975TIP3    H163340   4.765   0.560   2.079 -0.6283  2.4362 -0.1216
13975TIP3    H263341   4.848   0.660   2.001  1.0759 -1.1792 -3.2572
13976TIP3   OH263342   5.406   1.458  13.079  0.0891  0.1996  0.1726
13976TIP3    H163343   5.362   1.375  13.061 -1.0340  0.6814  0.5975
13976TIP3    H263344   5.496   1.445  13.049  0.1184 -1.3983  0.9026
13977TIP3   OH263345   6.057   4.827   3.721 -0.4475  0.3807  1.0764
13977TIP3    H163346   6.124   4.825   3.788 -0.4857  1.5937  1.1800
13977TIP3    H263347   6.087   4.766   3.654  2.1576  2.7816 -0.1372
13978TIP3   OH263348   5.134   5.141   3.049 -0.2884  0.0957  0.9039
13978TIP3    H163349   5.156   5.189   2.968 -0.2461 -0.3666  0.6386
13978TIP3    H263350   5.048   5.103   3.031 -0.4860  0.3719  1.2530
13979TIP3   OH263351   2.197   2.443  13.211 -0.4668  0.1408  0.5410
13979TIP3    H163352   2.175   2.401  13.294  0.6750  0.7079  1.1696
13979TIP3    H263353   2.143   2.522  13.209 -0.6624  0.0085  0.6519
13980TIP3   OH263354   6.576   3.743   5.715 -0.0235 -0.1860 -0.2025
13980TIP3    H163355   6.624   3.725   5.796 -0.8231  0.0828  0.3421
13980TIP3    H263356   6.494   3.781   5.744 -0.4288 -0.3244 -1.1384
13981TIP3   OH263357   0.973   3.474   5.776  0.5000  0.8934 -0.1474
13981TIP3    H163358   0.884   3.508   5.788 -0.0070  0.4616 -2.2350
13981TIP3    H263359   1.018   3.542   5.726  0.5703  0.0567 -1.2525
13982TIP3   OH263360   6.013   0.104   3.671 -0.4136  0.3089 -0.1534
13982TIP3    H163361   6.005   0.038   3.740 -0.5890 -0.0801 -0.5421
13982TIP3    H263362   6.002   0.187   3.717  0.9277  0.1401  0.5205
13983TIP3   OH263363   5.964   5.914  16.177  0.2421 -0.3233  0.2661
13983TIP3    H163364   5.935   6.006  16.175  0.7689 -0.1118 -2.6750
13983TIP3    H263365   6.004   5.904  16.263  0.4371  2.3185  0.5899
13984TIP3   OH263366   1.060   4.788   4.620 -0.5434 -0.4394  0.0682
13984TIP3    H163367   1.053   4.752   4.708  2.7487 -1.5921 -0.0201
13984TIP3    H263368   1.094   4.716   4.566  0.9946  1.1980 -1.3071
13985TIP3   OH263369   3.540   5.181   4.823  0.0242 -0.2825 -0.2025
13985TIP3    H163370   3.618   5.131   4.846  1.1626  0.7457 -1.6175
13985TIP3    H263371   3.516   5.148   4.736 -0.7104 -0.1167 -0.0665
13986TIP3   OH263372   6.122   3.182  14.268 -0.0525 -0.3571 -0.3119
13986TIP3    H163373   6.120   3.272  14.302  2.1290 -0.6124  0.6607
13986TIP3    H263374   6.212   3.170  14.238 -0.0483 -2.4880  0.4004
13987TIP3   OH263375   4.477   5.964   1.924  0.6513 -0.7868  0.0819
13987TIP3    H163376   4.505   6.034   1.983  3.4323 -2.8027  1.3965
13987TIP3    H263377   4.512   5.989   1.839 -0.5281  0.5303 -0.0664
13988TIP3   OH263378   1.954   4.194  13.299  0.6977  0.1409  0.7135
13988TIP3    H163379   2.010   4.189  13.221  0.2478  1.0006  0.3111
13988TIP3    H263380   1.993   4.264  13.351  0.2764  0.4312  0.6476
13989TIP3   OH263381   2.339   5.131   4.880 -0.0176  0.2101 -0.0707
13989TIP3    H163382   2.256   5.083   4.889  0.2023 -0.6751 -2.0501
13989TIP3    H263383   2.377   5.131   4.967 -1.4022 -0.7200  0.5707
13990TIP3   OH263384   1.904   1.348   2.152  0.7062 -0.1407  0.1232
13990TIP3    H163385   1.836   1.414   2.144  0.3987 -0.3083  1.3092
13990TIP3    H263386   1.926   1.326   2.061 -1.2340 -0.5238 -0.3034
13991TIP3   OH263387   4.674   2.611  12.416 -0.1812 -0.2415 -0.2329
13991TIP3    H163388   4.601   2.559  12.450 -0.9818  0.5525 -0.6747
13991TIP3    H263389   4.643   2.641  12.330  0.6625  0.1298 -0.4154
13992TIP3   OH263390   5.017   2.824   5.088  0.6657  0.0866  0.2317
13992TIP3    H163391   4.986   2.740   5.054  0.8902 -0.3399  1.0360
13992TIP3    H263392   4.940   2.880   5.090  0.3478 -0.3544  0.4203
13993TIP3   OH263393   0.503   6.222   4.578  0.3979  0.4153  0.0907
13993TIP3    H163394   0.456   6.305   4.585  2.6147  1.6956  0.9396
13993TIP3    H263395   0.520   6.197   4.669 -1.9636 -2.1154 -0.0393
13994TIP3   OH263396   3.291   2.342   2.437 -0.1520 -1.0105 -0.3049
13994TIP3    H163397   3.203   2.319   2.410 -0.5678  0.2027 -0.0451
13994TIP3    H263398   3.332   2.379   2.358 -0.6467  0.5047  0.1014
13995TIP3   OH263399   6.104   5.453   4.028 -0.2465 -0.1246  0.4773
13995TIP3    H163400   6.090   5.461   4.123  1.2114  0.7170  0.6617
13995TIP3    H263401   6.019   5.475   3.989 -0.5290  0.8457  1.5703
13996TIP3   OH263402   3.130   1.058   1.593  0.3627  1.1765  0.1553
13996TIP3    H163403   3.131   1.143   1.548  0.9810  1.2485  0.3001
13996TIP3    H263404   3.211   1.015   1.567  1.5709  1.8865  2.4345
13997TIP3   OH263405   2.568   0.362  14.494  0.1574  0.8631  0.0313
13997TIP3    H163406   2.476   0.357  14.520  0.3770  0.5386  0.7825
13997TIP3    H263407   2.617   0.344  14.575  0.9328  3.9527  0.3494
13998TIP3   OH263408   3.084   3.780  11.366 -0.3464 -0.2584  0.0945
13998TIP3    H163409   3.154   3.810  11.424  0.0918 -0.6251 -0.2417
13998TIP3    H263410   3.026   3.730  11.423  0.2958 -0.9552  0.1500
13999TIP3   OH263411   5.703   2.411  14.263 -0.0330 -0.0797 -0.3518
13999TIP3    H163412   5.768   2.344  14.283 -1.9081 -2.0298 -0.3992
13999TIP3    H263413   5.750   2.494  14.271  1.3496 -1.0211  4.3741
14000TIP3   OH263414   4.229   2.832  13.936  0.0753 -0.0011  0.1131
14000TIP3    H163415   4.315   2.797  13.960 -0.6073 -0.8732  1.4308
14000TIP3    H263416   4.189   2.857  14.019 -0.9563  0.3866 -0.4783
14001TIP3   OH263417   1.781   5.593  11.449  0.2054  0.1954 -0.0495
14001TIP3    H163418   1.865   5.590  11.496  0.5117  0.5241 -0.5646
14001TIP3    H263419   1.775   5.509  11.404  1.5159  1.1253 -2.1197
14002TIP3   OH263420   2.092   2.012  10.616  0.0538  0.1626 -0.3020
14002TIP3    H163421   1.996   2.011  10.623  0.0957  0.1094  0.3234
14002TIP3    H263422   2.121   2.054  10.697  0.5804 -0.2654 -0.2667
14003TIP3   OH263423   2.670   5.789  15.202 -0.2726 -0.0842  0.3974
14003TIP3    H163424   2.624   5.843  15.267  1.9858  0.8083  1.3347
14003TIP3    H263425   2.734   5.740  15.253 -0.1086 -1.2550 -0.8875
14004TIP3   OH263426   4.626   1.332  16.087  0.2834  0.6069  0.1035
14004TIP3    H163427   4.684   1.347  16.162  1.0834  0.0946 -0.3987
14004TIP3    H263428   4.619   1.237  16.080 -0.6020  0.6591  0.1290
14005TIP3   OH263429   4.467   3.349   3.184 -0.1707 -0.5660  0.5275
14005TIP3    H163430   4.525   3.338   3.109 -1.5543 -0.0317 -0.6942
14005TIP3    H263431   4.508   3.300   3.255  0.9788 -1.4226 -0.6908
14006TIP3   OH263432   1.547   4.814  10.465 -0.1488 -0.0666  0.3809
14006TIP3    H163433   1.565   4.908  10.473 -1.7923  0.2121  1.3356
14006TIP3    H263434   1.610   4.772  10.523  1.0961  0.3605 -0.6204
14007TIP3   OH263435   4.751   4.556  13.703 -0.3912 -0.0859 -0.1019
14007TIP3    H163436   4.810   4.509  13.761 -1.4467 -0.7229  0.4663
14007TIP3    H263437   4.758   4.648  13.730 -0.0906 -0.2360  0.3249
14008TIP3   OH263438   4.035   0.387   2.591  0.1028 -0.1357  0.8355
14008TIP3    H163439   4.012   0.459   2.650  0.8068  0.0846  0.8477
14008TIP3    H263440   3.980   0.314   2.620  2.1259 -0.8037  3.4215
14009TIP3   OH263441   1.667   0.142  15.209  0.0157 -0.0537  0.6162
14009TIP3    H163442   1.637   0.104  15.291 -0.3973 -0.2433  0.3804
14009TIP3    H263443   1.761   0.121  15.205 -0.5179 -2.5941 -0.3256
14010TIP3   OH263444   5.227   6.345   0.162  0.0165  0.2182  0.2041
14010TIP3    H163445   5.136   6.370   0.145  0.4130  0.6174 -1.5256
14010TIP3    H263446   5.224   6.301   0.247 -1.7591  0.3619  0.2611
14011TIP3   OH263447   6.426   2.182  12.974  0.1992  0.2415  0.8473
14011TIP3    H163448   6.371   2.246  12.928 -0.8515  0.3589  2.2341
14011TIP3    H263449   6.402   2.098  12.936 -1.2857  0.2388  1.7377
14012TIP3   OH263450   2.675   3.582  15.323  0.1901  0.5046  0.4621
14012TIP3    H163451   2.698   3.508  15.380  0.3777  1.3597  1.5276
14012TIP3    H263452   2.585   3.604  15.347 -0.5345 -0.5413 -1.1721
14013TIP3   OH263453   5.041   5.492  13.086  0.4755  0.0229  0.5939
14013TIP3    H163454   4.986   5.453  13.153  1.1549  0.2607  1.3036
14013TIP3    H263455   4.980   5.536  13.027 -0.3770 -2.5512 -0.5628
14014TIP3   OH263456   5.461   1.951   0.804 -0.1588  0.1045  0.2659
14014TIP3    H163457   5.366   1.962   0.796 -0.0572  0.1836 -1.2675
14014TIP3    H263458   5.498   2.032   0.768  0.4789 -0.4922 -0.4784
14015TIP3   OH263459   1.864   3.378   0.007  0.1746 -0.4862  0.0669
14015TIP3    H163460   1.932   3.328  -0.038  0.9767  1.7232 -1.3835
14015TIP3    H263461   1.823   3.430  -0.063 -1.1216  0.2712  1.3408
14016TIP3   OH263462   4.155   5.908  11.184  0.5500  0.3498  0.4415
14016TIP3    H163463   4.241   5.948  11.195  1.7753 -1.8777 -0.4592
14016TIP3    H263464   4.124   5.942  11.100  0.0565  1.9042  1.2033
14017TIP3   OH263465   5.378   3.929  12.594  0.8546  0.6260 -0.5145
14017TIP3    H163466   5.342   4.016  12.577 -1.5147 -0.2517 -0.3527
14017TIP3    H263467   5.389   3.927  12.689 -1.3723  0.0122 -0.2017
14018TIP3   OH263468   2.753   0.110  12.884 -0.6642 -0.5088  0.1736
14018TIP3    H163469   2.750   0.153  12.970  0.9786 -0.5640  0.2957
14018TIP3    H263470   2.844   0.118  12.857 -1.1203 -0.6382 -1.5102
14019TIP3   OH263471   1.428   5.321   4.904 -0.1741  0.3962  0.2526
14019TIP3    H163472   1.343   5.333   4.945 -0.2066  0.7329  0.0862
14019TIP3    H263473   1.437   5.395   4.844  0.9474  1.2619  1.4651
14020TIP3   OH263474   3.327   2.256   1.687 -0.4785 -0.0645  0.2017
14020TIP3    H163475   3.358   2.229   1.601 -0.9554 -3.4233  0.9428
14020TIP3    H263476   3.407   2.285   1.733 -0.0620  0.7100 -0.9526
14021TIP3   OH263477   3.515   2.413  11.873 -0.7378  0.0188  0.0258
14021TIP3    H163478   3.449   2.398  11.939  0.4065  1.5610  1.6351
14021TIP3    H263479   3.513   2.508  11.859 -0.3210 -0.1735 -1.4757
14022TIP3   OH263480   2.310   5.936  15.447  0.2872 -0.0139 -0.0696
14022TIP3    H163481   2.273   5.866  15.502  0.6380  1.2572  1.9155
14022TIP3    H263482   2.392   5.900  15.414  0.7073 -0.4059  1.3206
14023TIP3   OH263483   3.648   6.230  13.086 -0.0663  0.2338  0.8770
14023TIP3    H163484   3.682   6.295  13.148  1.8890  0.1332 -0.0279
14023TIP3    H263485   3.697   6.150  13.105  2.1466  0.7225 -2.0309
14024TIP3   OH263486   3.473   4.849   3.067  0.8057 -0.0860  0.3511
14024TIP3    H163487   3.405   4.784   3.082 -0.0885  0.7040 -0.1791
14024TIP3    H263488   3.455   4.883   2.979  0.6032  1.6255  1.0248
14025TIP3   OH263489   1.091   2.584   5.584 -0.5298 -0.6373  0.0009
14025TIP3    H163490   1.025   2.517   5.598 -0.0391 -1.1867 -0.2705
14025TIP3    H263491   1.162   2.561   5.643 -0.6918  0.1253  0.5147
14026TIP3   OH263492   6.789   6.777  16.223  0.0725 -0.3256 -0.0488
14026TIP3    H163493   6.709   6.797  16.174  0.4584 -0.8239 -0.8971
14026TIP3    H263494   6.813   6.859  16.265 -0.4159  0.0414 -0.4768
14027TIP3   OH263495   4.805   1.868   2.360 -0.4135  0.1278  0.8502
14027TIP3    H163496   4.746   1.938   2.387 -0.2707  0.3877  0.4847
14027TIP3    H263497   4.893   1.900   2.382 -0.1301  1.0492 -1.3672
14028TIP3   OH263498   3.694   1.634  13.740  0.3015  0.2615  0.0360
14028TIP3    H163499   3.724   1.544  13.751  0.3504  0.2799  0.0546
14028TIP3    H263500   3.740   1.666  13.662 -2.5976 -0.9809 -2.4123
14029TIP3   OH263501   3.857   2.871  11.632  0.0247  0.1064  0.0577
14029TIP3    H163502   3.937   2.820  11.626 -0.1730 -0.4950  1.8377
14029TIP3    H263503   3.878   2.942  11.692 -0.4913  0.5331 -0.2543
14030TIP3   OH263504   5.309   3.132   0.737  0.2343  0.0846  0.6029
14030TIP3    H163505   5.359   3.051   0.740  0.5235  0.0845 -2.0719
14030TIP3    H263506   5.219   3.105   0.758  0.6703 -0.5308  1.7864
14031TIP3   OH263507   3.124   3.785  15.236 -0.0432  0.3415 -0.3353
14031TIP3    H163508   3.080   3.821  15.313 -1.0198  3.6426 -2.2429
14031TIP3    H263509   3.053   3.748  15.183  0.4050 -0.3598 -0.4695
14032TIP3   OH263510   2.484   0.618  14.498 -0.1422  0.0833 -0.3948
14032TIP3    H163511   2.516   0.529  14.486 -0.0211  0.1400 -0.4978
14032TIP3    H263512   2.561   0.667  14.528 -0.6334 -0.2463  1.5399
14033TIP3   OH263513   3.084   6.245  12.432  0.4764 -0.1672  0.3751
14033TIP3    H163514   3.031   6.257  12.511  0.1597  0.1771  0.1146
14033TIP3    H263515   3.138   6.325  12.427 -0.9882  0.8045 -0.8732
14034TIP3   OH263516   5.343   4.665  13.219 -0.5479 -0.6446 -0.0847
14034TIP3    H163517   5.422   4.716  13.199 -0.3558 -0.6927  0.5416
14034TIP3    H263518   5.374   4.591  13.271 -0.8312 -1.4044 -0.9659
14035TIP3   OH263519   0.851   6.787  15.642  0.1131 -0.1267 -0.1871
14035TIP3    H163520   0.893   6.801  15.557  0.8874 -0.9078  0.0400
14035TIP3    H263521   0.771   6.738  15.622  0.6766 -0.9832 -0.4251
14036TIP3   OH263522   6.693   1.897  11.888 -0.2153  0.0679 -0.3027
14036TIP3    H163523   6.709   1.879  11.981 -1.2535  0.1717 -0.0936
14036TIP3    H263524   6.747   1.973  11.868 -0.0611  0.1032  0.2382
14037TIP3   OH263525   5.287   5.489   1.923 -0.3838 -0.3842 -0.3867
14037TIP3    H163526   5.358   5.551   1.938 -1.4331  0.8229 -0.2622
14037TIP3    H263527   5.290   5.470   1.830 -1.5444  1.8074 -0.9417
14038TIP3   OH263528   1.564   2.357  12.758  0.1276 -0.2277  0.0462
14038TIP3    H163529   1.618   2.433  12.779 -2.5577  1.5707  1.0019
14038TIP3    H263530   1.522   2.379  12.675 -1.6425 -0.0230  0.9469
14039TIP3   OH263531   4.672   4.095  14.748 -0.2799  0.4844  0.2409
14039TIP3    H163532   4.697   4.187  14.741  0.7172  0.1654 -0.5063
14039TIP3    H263533   4.577   4.098  14.765 -0.6626  1.6219 -1.7681
14040TIP3   OH263534   2.860   4.836  15.667  0.2683  0.2094 -0.1283
14040TIP3    H163535   2.897   4.786  15.740  0.1973  1.3047  0.6755
14040TIP3    H263536   2.858   4.926  15.698 -2.5537  0.2991 -0.3355
14041TIP3   OH263537   5.700   1.317  14.287 -0.1173 -0.4364  0.0530
14041TIP3    H163538   5.659   1.282  14.367 -0.6907  0.0500 -0.0174
14041TIP3    H263539   5.629   1.363  14.243  0.8305  1.7283  0.6613
14042TIP3   OH263540   2.054   4.219   1.648  0.4900  0.0125 -0.0951
14042TIP3    H163541   2.131   4.164   1.631  0.0796 -0.9891  1.1230
14042TIP3    H263542   2.046   4.220   1.743 -0.9224  0.2099 -0.1995
14043TIP3   OH263543   0.497   4.670  16.350 -0.3849 -0.2842  0.0566
14043TIP3    H163544   0.572   4.613  16.333 -1.0585 -0.6332 -2.0281
14043TIP3    H263545   0.426   4.610  16.375 -0.1449  0.0039  1.5388
14044TIP3   OH263546   2.154   0.420  12.785  0.2949  0.1232  0.2330
14044TIP3    H163547   2.083   0.413  12.722  0.5090 -0.6107  0.0635
14044TIP3    H263548   2.191   0.508  12.771  0.4981 -0.1210 -0.8339
14045TIP3   OH263549   1.701   6.493   1.708  0.2017 -0.0604  0.3163
14045TIP3    H163550   1.788   6.462   1.684  0.7297  0.8367  1.0083
14045TIP3    H263551   1.684   6.453   1.794 -0.0354 -0.1615  0.2239
14046TIP3   OH263552   3.047   3.672   1.326  0.2570 -0.0689 -0.3996
14046TIP3    H163553   3.029   3.666   1.232 -2.3752  0.6149 -0.0230
14046TIP3    H263554   3.072   3.763   1.341 -0.5393  0.1444 -0.2995
14047TIP3   OH263555   4.174   5.696  15.777 -0.0127  0.0903 -0.3370
14047TIP3    H163556   4.231   5.770  15.757  0.3782 -0.1427 -0.0886
14047TIP3    H263557   4.228   5.619  15.762  0.4954 -0.1085  2.1157
14048TIP3   OH263558   5.857   5.411  11.515 -0.0102 -0.6111 -0.3515
14048TIP3    H163559   5.819   5.327  11.490  0.4046 -1.2999  1.2123
14048TIP3    H263560   5.783   5.463  11.548 -0.1412 -0.6757 -0.5487
14049TIP3   OH263561   5.276   1.524   3.897  0.1285  0.5023 -0.0140
14049TIP3    H163562   5.231   1.566   3.824  0.0269 -0.4598 -0.5121
14049TIP3    H263563   5.368   1.549   3.887  0.2499 -0.2897 -0.9487
14050TIP3   OH263564   0.283   6.741   3.800 -0.2196 -0.8077 -0.0222
14050TIP3    H163565   0.206   6.706   3.845  0.7738 -0.7357  1.8224
14050TIP3    H263566   0.357   6.699   3.844  0.8523  0.4829 -0.5556
14051TIP3   OH263567   1.594   4.902   1.915  0.6012 -0.2442  0.5115
14051TIP3    H163568   1.538   4.839   1.959  0.9747 -0.1583  1.1219
14051TIP3    H263569   1.675   4.904   1.967 -0.0803  2.0769  1.6236
14052TIP3   OH263570   0.027   6.284   0.447 -0.3854  0.5578 -0.3770
14052TIP3    H163571   0.075   6.254   0.524  0.9020  0.1693 -1.2925
14052TIP3    H263572   0.040   6.379   0.447 -1.0570  0.6608  0.2986
14053TIP3   OH263573   0.557   0.972  11.466 -0.0588 -0.0821  0.3188
14053TIP3    H163574   0.549   0.963  11.561  0.2251 -1.0612  0.2565
14053TIP3    H263575   0.648   0.951  11.448  0.3830  1.8857  0.0087
14054TIP3   OH263576   0.388   3.178   2.373  0.1227 -0.2094 -0.4349
14054TIP3    H163577   0.355   3.239   2.439 -0.7822 -0.4039 -0.7037
14054TIP3    H263578   0.311   3.131   2.342  0.4517  0.1773 -1.9334
14055TIP3   OH263579   0.952   6.208  14.423  0.0979 -0.2555  0.2469
14055TIP3    H163580   0.943   6.214  14.518  2.5375  1.5444  0.4691
14055TIP3    H263581   1.025   6.148  14.409  0.0791 -0.1280 -0.4765
14056TIP3   OH263582   0.292   0.764  12.905 -0.5487 -0.2793  0.5370
14056TIP3    H163583   0.349   0.837  12.883 -1.2377 -0.6928 -3.3459
14056TIP3    H263584   0.208   0.804  12.927 -1.0130  0.2230 -1.8593
14057TIP3   OH263585   1.725   0.092  11.833  0.6385  0.0831 -0.9050
14057TIP3    H163586   1.715   0.012  11.781  0.2991  0.1006 -0.8712
14057TIP3    H263587   1.686   0.071  11.917 -1.0960  0.8429 -1.4731
14058TIP3   OH263588   1.674   1.148   3.455  0.3338  0.0560  0.5536
14058TIP3    H163589   1.620   1.227   3.447 -2.6813 -1.8074  0.7581
14058TIP3    H263590   1.682   1.134   3.549 -1.3525 -1.1458  0.5739
14059TIP3   OH263591   6.748   6.244   4.109 -0.1062  0.1479 -0.0877
14059TIP3    H163592   6.696   6.280   4.037  0.1510 -0.1497 -0.4209
14059TIP3    H263593   6.778   6.159   4.078  2.7963  1.3806 -0.9601
14060TIP3   OH263594   4.932   2.444   3.802 -0.1032 -0.5508 -0.3155
14060TIP3    H163595   4.934   2.444   3.897  1.1490 -0.7036 -0.3194
14060TIP3    H263596   4.888   2.525   3.778 -0.9917 -0.8127  0.3806
14061TIP3   OH263597   2.840   5.600   0.183  0.0540 -0.0124 -0.0595
14061TIP3    H163598   2.884   5.528   0.228 -0.4685  0.0764  0.6132
14061TIP3    H263599   2.910   5.657   0.153  0.4220 -0.1016  0.6074
14062TIP3   OH263600   0.123   2.582  12.698  1.0042  0.0195  0.6049
14062TIP3    H163601   0.093   2.501  12.655 -1.2955  0.1110  1.9159
14062TIP3    H263602   0.154   2.553  12.784 -1.7408  0.6498  1.9157
14063TIP3   OH263603   6.228   5.617   2.113 -0.4273 -1.1111 -0.5118
14063TIP3    H163604   6.289   5.568   2.059  0.6913  0.6182 -0.8958
14063TIP3    H263605   6.256   5.599   2.203  1.1141  0.1767 -0.6996
14064TIP3   OH263606   5.660   3.425  12.008 -0.6811 -0.9441  0.0912
14064TIP3    H163607   5.696   3.381  12.085 -0.0394 -0.9159 -0.1833
14064TIP3    H263608   5.686   3.370  11.934 -0.9404 -0.7564 -0.1406
14065TIP3   OH263609   1.870   6.354   1.033 -0.3163 -0.0420 -0.0875
14065TIP3    H163610   1.790   6.307   1.057  0.2773 -0.9637  0.1643
14065TIP3    H263611   1.940   6.308   1.081  0.5406 -0.1786 -1.4095
14066TIP3   OH263612   6.689   2.999  15.845 -0.1376  0.5183  0.0609
14066TIP3    H163613   6.636   2.925  15.817  1.1805  0.2391 -1.8951
14066TIP3    H263614   6.778   2.965  15.850  0.2300  1.5385  0.9485
14067TIP3   OH263615   3.510   5.338   2.192  0.8091  0.0202  0.3075
14067TIP3    H163616   3.573   5.302   2.254 -0.1919 -1.5950  0.4473
14067TIP3    H263617   3.515   5.280   2.116  1.4375  1.5013 -0.8520
14068TIP3   OH263618   1.856   2.444  13.590  0.1959  0.4623  0.5340
14068TIP3    H163619   1.885   2.444  13.498 -2.8261  2.9673 -0.6102
14068TIP3    H263620   1.909   2.510  13.633 -0.5933  1.7267 -0.3561
14069TIP3   OH263621   5.367   6.712  15.581  0.2229 -0.5875 -0.1214
14069TIP3    H163622   5.443   6.746  15.534 -0.2970  0.0568 -0.5042
14069TIP3    H263623   5.396   6.705  15.672  0.4866  0.4254 -0.1230
14070TIP3   OH263624   2.769   6.021   3.260  0.5986 -0.3354 -0.5859
14070TIP3    H163625   2.782   6.050   3.350  0.2044  0.1921 -0.7009
14070TIP3    H263626   2.842   5.960   3.245  1.3065  0.4208 -0.2776
14071TIP3   OH263627   1.413   2.742   0.825  0.4057 -0.5978  0.1518
14071TIP3    H163628   1.500   2.780   0.813  0.2219 -0.5086 -1.0928
14071TIP3    H263629   1.416   2.661   0.773 -0.1494 -0.7490  0.3528
14072TIP3   OH263630   4.821   4.310   2.042 -0.5245 -0.1278  0.1545
14072TIP3    H163631   4.737   4.335   2.079 -0.6219  1.5862 -1.0967
14072TIP3    H263632   4.803   4.232   1.990 -1.6572  0.9911 -1.1940
14073TIP3   OH263633   1.113   5.191   2.614 -0.0839 -0.4884  0.0311
14073TIP3    H163634   1.055   5.263   2.640 -0.4772 -0.2546 -1.4122
14073TIP3    H263635   1.055   5.115   2.608 -0.6587  0.0615 -2.9547
14074TIP3   OH263636   0.842   2.384   3.686 -0.3447  0.2182  0.0069
14074TIP3    H163637   0.831   2.476   3.660 -0.3123 -0.1485 -1.4037
14074TIP3    H263638   0.915   2.353   3.632 -1.7467 -1.2048 -1.1865
14075TIP3   OH263639   2.485   1.895  13.122  0.0717  0.5201  0.2036
14075TIP3    H163640   2.459   1.912  13.032 -1.3312 -0.0024  0.4697
14075TIP3    H263641   2.558   1.834  13.116 -0.2865  0.1583 -0.5823
14076TIP3   OH263642   6.516   2.697  13.778 -0.1041 -0.5037  0.2552
14076TIP3    H163643   6.505   2.640  13.854  1.3672  0.7557  1.4819
14076TIP3    H263644   6.443   2.674  13.721  1.2576 -4.7172 -0.1168
14077TIP3   OH263645   2.949   1.892  11.834  1.0937 -0.2961  0.0075
14077TIP3    H163646   2.971   1.799  11.846  1.2638 -0.0198  2.1256
14077TIP3    H263647   2.884   1.910  11.901 -2.2240  0.1296 -3.0727
14078TIP3   OH263648   2.129   6.765  16.844  0.0542  0.1498  0.4068
14078TIP3    H163649   2.070   6.822  16.893 -0.3130 -1.5049  1.9714
14078TIP3    H263650   2.212   6.768  16.892  0.2347 -0.1511  0.1191
14079TIP3   OH263651   5.796   2.446  13.749 -0.5501 -0.6469  0.2572
14079TIP3    H163652   5.717   2.421  13.702 -0.1160  0.7345 -1.3035
14079TIP3    H263653   5.774   2.433  13.841 -2.2229 -1.2523 -0.1850
14080TIP3   OH263654   4.553   5.451   5.710  0.9831 -0.2618  0.3442
14080TIP3    H163655   4.467   5.482   5.738  0.4910  1.1470 -2.3185
14080TIP3    H263656   4.557   5.360   5.739 -0.5372  0.2317  2.2888
14081TIP3   OH263657   5.857   5.281  16.401  0.2187  0.1940 -0.3900
14081TIP3    H163658   5.821   5.281  16.312 -0.5444 -0.3503 -0.0882
14081TIP3    H263659   5.817   5.357  16.443 -0.4867 -0.3201 -0.1037
14082TIP3   OH263660   1.611   4.006   4.644 -0.1749 -0.0888 -0.2651
14082TIP3    H163661   1.547   4.053   4.698  1.2515  3.4553 -1.3809
14082TIP3    H263662   1.586   4.027   4.554  1.7320  0.2832 -0.7520
14083TIP3   OH263663   6.181   5.196  12.587  0.4045 -0.5227 -0.1211
14083TIP3    H163664   6.123   5.123  12.611  0.2732 -0.2428  0.4276
14083TIP3    H263665   6.171   5.204  12.492  0.6480 -1.4102 -0.2330
14084TIP3   OH263666   0.724   1.795  11.887  0.0800  0.3375  0.8181
14084TIP3    H163667   0.804   1.830  11.847 -0.2336 -0.9602 -1.0944
14084TIP3    H263668   0.755   1.723  11.942  0.1766 -1.0993 -1.0361
14085TIP3   OH263669   6.752   4.847   5.743  0.3699  0.2432 -0.5801
14085TIP3    H163670   6.810   4.920   5.765 -0.6625  0.6337  1.0079
14085TIP3    H263671   6.788   4.772   5.790  0.1980  0.2382 -0.4551
14086TIP3   OH263672   5.099   5.852  15.693 -0.0927  0.2244  0.1794
14086TIP3    H163673   5.142   5.847  15.608  0.0842  0.2697  0.2671
14086TIP3    H263674   5.158   5.905  15.747  0.1151 -0.3634  0.5303
14087TIP3   OH263675   3.821   5.237   0.448 -0.5058  0.4290 -0.2256
14087TIP3    H163676   3.864   5.316   0.416  0.4513 -0.2512 -0.6808
14087TIP3    H263677   3.890   5.188   0.493 -1.5494  0.7994  1.9053
14088TIP3   OH263678   2.433   4.156   3.633 -0.7427  0.1742 -0.0754
14088TIP3    H163679   2.498   4.090   3.611 -1.1181  0.2560 -1.5506
14088TIP3    H263680   2.358   4.106   3.665 -0.5648 -0.0316  0.0222
14089TIP3   OH263681   2.051   1.425   2.932  0.6175 -0.6660  0.0482
14089TIP3    H163682   2.144   1.443   2.945  0.2474  0.9263  0.6602
14089TIP3    H263683   2.009   1.511   2.933 -0.6336 -1.1611 -2.3248
14090TIP3   OH263684   6.663   2.921  14.125 -0.9948  0.6993  0.1263
14090TIP3    H163685   6.573   2.897  14.148 -0.4748 -2.0196 -0.3409
14090TIP3    H263686   6.708   2.930  14.209 -1.9000  3.3516  0.4256
14091TIP3   OH263687   4.280   4.340  12.037 -0.1442  0.2720 -0.2563
14091TIP3    H163688   4.339   4.405  12.000 -0.7254  1.0818  0.2273
14091TIP3    H263689   4.320   4.256  12.013  0.3598  0.7872 -1.2944
14092TIP3   OH263690   0.939   6.256  14.697 -0.4749  0.0607  0.4983
14092TIP3    H163691   0.923   6.336  14.747  0.0173 -0.7560  2.0289
14092TIP3    H263692   1.024   6.224  14.729 -0.3396 -0.7234 -0.5754
14093TIP3   OH263693   5.489   5.373   4.456  0.2607 -0.0424  0.3348
14093TIP3    H163694   5.417   5.319   4.489 -0.0793  1.4228  2.1485
14093TIP3    H263695   5.454   5.462   4.456  1.7260  0.5582  0.2180
14094TIP3   OH263696   0.419   2.738   0.992  0.0246  0.0896  0.2380
14094TIP3    H163697   0.489   2.691   0.945  0.3997 -1.2263  2.0218
14094TIP3    H263698   0.340   2.722   0.940  0.7052  0.0907 -0.8349
14095TIP3   OH263699   2.081   4.125   3.454 -0.0362  0.3161 -0.1846
14095TIP3    H163700   2.110   4.055   3.512  1.5933  0.6009 -0.5946
14095TIP3    H263701   2.136   4.200   3.477  0.8937  0.3542 -2.2596
14096TIP3   OH263702   6.388   3.532  17.112 -0.5716  0.2493  0.1149
14096TIP3    H163703   6.380   3.575  17.027  0.6394  1.2833  0.4935
14096TIP3    H263704   6.368   3.601  17.176 -2.2202 -0.6963  0.6951
14097TIP3   OH263705   6.659   0.498   1.120 -0.0870 -0.5124  0.0148
14097TIP3    H163706   6.649   0.404   1.136  1.2092 -1.0657 -1.9742
14097TIP3    H263707   6.735   0.524   1.173 -1.1055 -0.2929  1.4222
14098TIP3   OH263708   0.445   2.838   6.252 -0.2989  0.6197 -0.1744
14098TIP3    H163709   0.403   2.922   6.232 -0.5833  0.4926 -0.1134
14098TIP3    H263710   0.380   2.772   6.227 -0.7112  0.4482  1.2191
14099TIP3   OH263711   4.882   5.275  10.840  0.3520 -0.4050 -0.0216
14099TIP3    H163712   4.937   5.340  10.795 -1.2448  0.9226 -0.1657
14099TIP3    H263713   4.924   5.191  10.820  1.4739  0.4112 -1.3559
14100TIP3   OH263714   1.739   5.332  12.175  0.9119 -0.5305  0.7142
14100TIP3    H163715   1.709   5.273  12.106  1.0196  0.9062 -0.6112
14100TIP3    H263716   1.677   5.317  12.247 -1.6343  0.6195 -1.0640
14101TIP3   OH263717   5.366   1.882  15.649  0.0813  0.1785  0.3813
14101TIP3    H163718   5.389   1.832  15.571 -1.8397  0.7564 -0.6159
14101TIP3    H263719   5.381   1.974  15.625 -0.0074  0.3305  0.8836
14102TIP3   OH263720   2.678   1.613   4.781  0.0634 -0.5375  0.3462
14102TIP3    H163721   2.637   1.598   4.867  0.6117 -1.5302  0.4485
14102TIP3    H263722   2.612   1.662   4.732  0.2711  1.2990  1.7780
14103TIP3   OH263723   0.475   2.886  14.088  0.0299  0.3949  0.0357
14103TIP3    H163724   0.499   2.882  13.996  0.6962  2.9031  0.0270
14103TIP3    H263725   0.529   2.819  14.130  1.5698  0.8929 -1.0753
14104TIP3   OH263726   6.072   5.965   2.950 -0.1620  0.0503 -0.0477
14104TIP3    H163727   6.118   5.926   2.875  0.5239  1.8767 -0.6140
14104TIP3    H263728   6.125   5.941   3.026  0.7025  0.5354 -0.4831
14105TIP3   OH263729   2.827   4.664  16.722  0.2607  0.4104 -0.2822
14105TIP3    H163730   2.798   4.719  16.649 -0.9944 -1.5978 -1.3884
14105TIP3    H263731   2.809   4.717  16.800  1.7797  2.6745 -1.3683
14106TIP3   OH263732   4.532   2.682  12.173  0.1641  0.0641 -0.0250
14106TIP3    H163733   4.563   2.632  12.097  0.8129  0.8360 -0.2797
14106TIP3    H263734   4.449   2.641  12.196 -1.2271  1.2531 -2.5825
14107TIP3   OH263735   5.694   0.602  12.610 -0.6869 -0.7687 -0.7301
14107TIP3    H163736   5.708   0.507  12.619  0.7810 -0.4162  2.1075
14107TIP3    H263737   5.782   0.638  12.599 -0.8381  0.4458  1.4887
14108TIP3   OH263738   1.709   2.826  10.903 -0.0679 -0.4160 -1.3778
14108TIP3    H163739   1.702   2.731  10.910  1.7458 -0.5389 -0.5138
14108TIP3    H263740   1.661   2.849  10.824 -1.9780 -1.8369 -0.7048
14109TIP3   OH263741   3.816   2.155   6.084  0.7386 -0.5683  0.0036
14109TIP3    H163742   3.732   2.201   6.090  0.8328 -0.2382 -1.0098
14109TIP3    H263743   3.860   2.175   6.166  0.1201 -0.1416  0.2390
14110TIP3   OH263744   1.881   3.778   0.347  0.1438  0.4464 -0.2970
14110TIP3    H163745   1.863   3.729   0.268 -2.0734 -1.0169  1.0189
14110TIP3    H263746   1.896   3.712   0.415  1.3091  1.6378  0.6830
14111TIP3   OH263747   1.429   2.588  16.508  0.0831 -0.4226 -0.7987
14111TIP3    H163748   1.363   2.554  16.448 -0.2363 -0.3545 -0.4931
14111TIP3    H263749   1.379   2.624  16.581  0.4186  0.6183 -1.0643
14112TIP3   OH263750   5.816   5.672  14.577  1.2973 -0.5631  0.4328
14112TIP3    H163751   5.830   5.588  14.532  0.3971 -0.6979  0.3935
14112TIP3    H263752   5.893   5.724  14.554  1.5912 -1.1769 -0.0072
14113TIP3   OH263753   1.593   2.786   2.858 -0.2535 -0.1574 -0.4756
14113TIP3    H163754   1.624   2.864   2.903  0.2747  0.1522 -1.3493
14113TIP3    H263755   1.655   2.773   2.787 -0.3183 -1.4004 -0.3249
14114TIP3   OH263756   6.776   2.561  13.081 -0.1556  0.1618 -0.4471
14114TIP3    H163757   6.753   2.469  13.070  0.2258  0.2177 -1.8770
14114TIP3    H263758   6.699   2.600  13.122 -0.7984 -0.5626 -0.9323
14115TIP3   OH263759   2.024   2.716  12.748  0.4428  0.1869 -0.1793
14115TIP3    H163760   2.004   2.651  12.681  0.2074 -0.4746  0.5176
14115TIP3    H263761   2.002   2.800  12.707  1.1116 -0.1228 -1.2238
14116TIP3   OH263762   5.290   1.935   3.487  0.1880 -0.2635 -0.3058
14116TIP3    H163763   5.309   1.997   3.416 -0.4094 -0.1930 -0.4073
14116TIP3    H263764   5.266   1.991   3.561 -0.8445 -0.3687 -0.5411
14117TIP3   OH263765   6.660   0.013   6.533 -0.3127 -0.2621 -0.3315
14117TIP3    H163766   6.653   0.095   6.485  0.7799  0.3355  0.4933
14117TIP3    H263767   6.754  -0.006   6.535 -0.4002 -0.6579  0.9254
14118TIP3   OH263768   5.075   0.658  17.205 -0.6302 -0.8424  0.0914
14118TIP3    H163769   4.986   0.670  17.173 -0.6876 -2.5180 -0.4817
14118TIP3    H263770   5.089   0.564  17.203  1.0742 -0.6387  0.4251
14119TIP3   OH263771   2.208   3.639   1.714 -0.3225  0.0236  0.2331
14119TIP3    H163772   2.199   3.734   1.726 -1.6051  0.0387 -0.6051
14119TIP3    H263773   2.234   3.606   1.800  0.2487  1.1357  0.5098
14120TIP3   OH263774   1.919   6.158  14.053  0.6398  0.3291  0.0112
14120TIP3    H163775   2.014   6.147  14.055  0.6674  0.6260  0.6091
14120TIP3    H263776   1.888   6.094  13.988  1.2215  0.0493  0.0080
14121TIP3   OH263777   0.057   6.339  16.076  0.0903 -0.0023  0.0000
14121TIP3    H163778  -0.000   6.283  16.025  0.3093  0.6931 -1.0574
14121TIP3    H263779   0.101   6.394  16.011 -0.5055  1.7594  1.0016
14122TIP3   OH263780   0.271   3.756   0.741 -0.3325 -0.3077  0.0047
14122TIP3    H163781   0.314   3.778   0.823  2.2017 -0.1291 -1.2568
14122TIP3    H263782   0.227   3.836   0.714  2.3792  1.0470 -0.7937
14123TIP3   OH263783   2.756   5.549  16.837  0.0319  0.1384 -0.2679
14123TIP3    H163784   2.795   5.633  16.811  0.5008 -0.1895 -0.6532
14123TIP3    H263785   2.758   5.496  16.757 -3.6048  0.9561 -1.0881
14124TIP3   OH263786   6.780   5.632  12.060 -0.1249 -0.0357 -0.5072
14124TIP3    H163787   6.748   5.596  12.143  0.2699 -0.3224 -0.4777
14124TIP3    H263788   6.708   5.687  12.028 -2.1158 -3.2805 -2.1456
14125TIP3   OH263789   6.162   5.445   5.278 -0.1205 -0.1174 -0.4828
14125TIP3    H163790   6.185   5.501   5.352 -0.5237  1.1819 -1.2881
14125TIP3    H263791   6.066   5.444   5.277 -0.1497 -1.8676  0.2356
14126TIP3   OH263792   5.691   1.824   0.413  0.0113  0.0805 -0.1719
14126TIP3    H163793   5.617   1.885   0.404  0.7409  0.7784 -1.9345
14126TIP3    H263794   5.656   1.740   0.383  0.3118  0.7713 -2.7291
14127TIP3   OH263795   5.589   1.205  14.534  0.0499  0.0694  0.1384
14127TIP3    H163796   5.665   1.186  14.589  0.3936  1.0932  0.0411
14127TIP3    H263797   5.541   1.273  14.583 -0.5272 -0.2024 -0.0466
14128TIP3   OH263798   4.766   0.519  11.424  0.4313 -0.4033  0.2405
14128TIP3    H163799   4.772   0.558  11.511  0.1665  1.4860 -0.5243
14128TIP3    H263800   4.854   0.530  11.387 -0.1225  1.3852 -0.6926
14129TIP3   OH263801   6.399   5.297  12.354  0.8518 -0.2059  0.0432
14129TIP3    H163802   6.334   5.260  12.413 -0.1829  0.7974 -0.4398
14129TIP3    H263803   6.382   5.255  12.270  0.2519  0.6826 -0.2912
14130TIP3   OH263804   4.023   3.608  12.373  0.8913 -0.3110  0.0534
14130TIP3    H163805   4.061   3.673  12.432 -0.9017  1.4900 -0.6704
14130TIP3    H263806   4.060   3.629  12.287 -2.7509  2.6080 -1.0206
14131TIP3   OH263807   6.216   6.298   5.440 -0.0218 -0.2079  0.4788
14131TIP3    H163808   6.291   6.257   5.484  0.8695 -1.2159 -1.8172
14131TIP3    H263809   6.158   6.225   5.420  0.2395 -0.0045 -1.1605
14132TIP3   OH263810   5.540   4.184  13.600 -0.2030  0.2617  0.3394
14132TIP3    H163811   5.471   4.120  13.583 -1.6898  1.8301  0.1544
14132TIP3    H263812   5.587   4.191  13.517 -0.0690 -0.5250  0.3427
14133TIP3   OH263813   1.238   3.220   4.917  0.2388  0.0033 -0.0592
14133TIP3    H163814   1.230   3.155   4.848  1.8381  0.0672 -0.3395
14133TIP3    H263815   1.254   3.302   4.871 -1.9341  0.6949  0.2794
14134TIP3   OH263816   3.344   5.179   4.448  0.0673 -0.0775  0.0609
14134TIP3    H163817   3.297   5.253   4.486  2.3082  0.3465  2.2374
14134TIP3    H263818   3.305   5.101   4.488 -2.0191 -0.1540 -1.9299
14135TIP3   OH263819   6.577   3.867   2.977  0.2842 -0.1341  0.5443
14135TIP3    H163820   6.665   3.850   3.011  0.5311 -1.4864 -0.6212
14135TIP3    H263821   6.586   3.854   2.882 -1.3003 -0.9551  0.4763
14136TIP3   OH263822   5.542   2.781  12.266 -0.1457  0.3069 -0.2334
14136TIP3    H163823   5.572   2.871  12.282  1.1152  0.1039 -1.2242
14136TIP3    H263824   5.463   2.791  12.213  0.5328  0.8542 -1.1828
14137TIP3   OH263825   0.296   1.861   0.452 -0.2689 -0.4998 -0.3215
14137TIP3    H163826   0.373   1.812   0.421  1.4273  1.4069  0.6240
14137TIP3    H263827   0.284   1.832   0.542 -0.6537 -0.7633 -0.4549
14138TIP3   OH263828   4.117   3.371   2.880  0.7241  0.0621 -0.3826
14138TIP3    H163829   4.213   3.368   2.884  0.7260  0.8982  1.9798
14138TIP3    H263830   4.089   3.359   2.970 -1.3462  1.2815 -0.7950
14139TIP3   OH263831   3.116   5.142  11.838  1.1968 -0.0935 -0.2673
14139TIP3    H163832   3.049   5.114  11.900  0.3995  2.8885  0.3606
14139TIP3    H263833   3.194   5.158  11.891  1.1450  0.4304 -0.3406
14140TIP3   OH263834   5.365   4.674   3.795 -0.0748  0.2540 -0.4915
14140TIP3    H163835   5.285   4.661   3.846 -0.7072 -1.1754 -1.7820
14140TIP3    H263836   5.391   4.586   3.767  1.9588  0.6862 -0.1225
14141TIP3   OH263837   5.893   3.522  13.925  0.3834 -0.3728  0.0462
14141TIP3    H163838   5.890   3.521  14.021 -1.4750  0.0414  0.0382
14141TIP3    H263839   5.913   3.613  13.904  3.1148 -0.9085  0.0047
14142TIP3   OH263840   5.019   2.374  16.700 -0.4008 -0.2244  0.0537
14142TIP3    H163841   4.986   2.395  16.787  1.6560 -0.3851  0.9402
14142TIP3    H263842   5.110   2.403  16.701  0.0789 -1.4750 -1.5755
14143TIP3   OH263843   3.275   5.707  16.674 -0.4778 -0.2476 -0.2303
14143TIP3    H163844   3.239   5.750  16.752 -0.0754  2.3276 -1.3835
14143TIP3    H263845   3.368   5.728  16.675 -0.6331  0.6744 -1.8926
14144TIP3   OH263846   3.222   0.783  15.790  0.6090 -0.1509 -0.6113
14144TIP3    H163847   3.252   0.810  15.703 -0.7760  1.3340 -0.6858
14144TIP3    H263848   3.296   0.737  15.828  2.2031  1.5038 -1.5553
14145TIP3   OH263849   2.137   3.068  13.522  0.2466 -0.0385 -0.4397
14145TIP3    H163850   2.101   3.103  13.603 -0.8796  0.3110 -1.0765
14145TIP3    H263851   2.172   3.145  13.477  1.2540 -0.2874 -0.1225
14146TIP3   OH263852   2.560   2.568  11.093 -0.0734 -0.0357 -0.3944
14146TIP3    H163853   2.588   2.499  11.032  1.5109  0.6334 -0.4770
14146TIP3    H263854   2.578   2.650  11.045  2.8696  0.5910  1.5214
14147TIP3   OH263855   1.943   3.909  11.724 -0.2784 -0.2693 -0.6393
14147TIP3    H163856   2.015   3.901  11.663  1.3464  1.5854  0.8951
14147TIP3    H263857   1.950   3.998  11.758 -1.1183 -1.1700  2.1842
14148TIP3   OH263858   5.440   0.081  11.355  0.2839  0.4585 -0.0229
14148TIP3    H163859   5.520   0.111  11.312  0.3719 -1.8555 -1.7218
14148TIP3    H263860   5.369   0.117  11.302  0.3856 -1.9027 -1.9486
14149TIP3   OH263861   3.934   4.060   1.552  0.0556  0.2358  0.2405
14149TIP3    H163862   3.857   4.100   1.513 -0.5545  0.7064  1.8782
14149TIP3    H263863   3.994   4.133   1.568  2.1760 -0.3466 -3.5735
14150TIP3   OH263864   3.935   0.660  16.947  0.0570  0.2039 -0.3851
14150TIP3    H163865   3.885   0.590  16.987 -1.0633  0.7956 -0.7045
14150TIP3    H263866   3.971   0.710  17.020  0.2651 -0.2768 -0.1576
14151TIP3   OH263867   6.540   2.803   0.556  0.0198  0.5348  0.0710
14151TIP3    H163868   6.509   2.713   0.551  1.4667 -0.0005  0.2976
14151TIP3    H263869   6.511   2.843   0.475  1.3475 -0.8221 -1.1400
14152TIP3   OH263870   2.556   2.578   4.092  0.1774  0.1877  0.1058
14152TIP3    H163871   2.548   2.551   4.000 -0.9710 -1.2123  0.5748
14152TIP3    H263872   2.562   2.495   4.140 -0.2112  0.8777  1.3692
14153TIP3   OH263873   0.342   1.326   0.981 -0.5977 -0.3966 -0.0421
14153TIP3    H163874   0.318   1.258   1.044 -0.7258  0.9366  1.4184
14153TIP3    H263875   0.437   1.334   0.990 -0.2441 -1.8614 -1.8330
14154TIP3   OH263876   6.280   4.363   4.144 -0.1392  0.3853  0.0582
14154TIP3    H163877   6.190   4.337   4.124  0.1921 -1.5743  0.9226
14154TIP3    H263878   6.278   4.459   4.142 -2.3131  0.3934  0.4144
14155TIP3   OH263879   5.898   0.503  14.420 -0.4293 -0.2530  0.1313
14155TIP3    H163880   5.987   0.508  14.456 -0.7137  0.7624  0.7366
14155TIP3    H263881   5.910   0.510  14.325  0.0446  1.6553  0.2816
14156TIP3   OH263882   6.590   3.934  14.547  0.4135  0.0564 -0.0097
14156TIP3    H163883   6.590   3.957  14.453 -0.9755  1.8734  0.3720
14156TIP3    H263884   6.681   3.950  14.574  0.6981  0.0851 -0.9166
14157TIP3   OH263885   5.959   3.111  14.803 -0.4286  0.3028 -0.0853
14157TIP3    H163886   5.924   3.115  14.892  0.0413  0.8139  0.0794
14157TIP3    H263887   5.953   3.200  14.770  2.1722  0.7998  0.5336
14158TIP3   OH263888   1.944   1.723  15.721  0.0161 -0.1473 -0.0531
14158TIP3    H163889   1.899   1.638  15.713  1.6381 -1.2196  1.4961
14158TIP3    H263890   1.874   1.786  15.736 -1.1930 -1.2731 -0.7709
14159TIP3   OH263891   6.091   3.924   3.483  0.8185 -0.1959 -0.7071
14159TIP3    H163892   6.047   4.003   3.451  1.1842  0.1649 -0.3269
14159TIP3    H263893   6.175   3.954   3.516  1.4906 -0.9286 -1.6886
14160TIP3   OH263894   3.401   1.219  11.535 -0.0091 -0.0372 -0.0965
14160TIP3    H163895   3.483   1.264  11.512  0.0927 -0.5633 -0.8108
14160TIP3    H263896   3.423   1.168  11.613  0.2719  0.0334 -0.1274
14161TIP3   OH263897   3.892   5.413   1.662 -0.0363  0.5173  0.6293
14161TIP3    H163898   3.888   5.397   1.567 -1.2812 -2.1621  1.0344
14161TIP3    H263899   3.928   5.333   1.698  0.4715  1.5193  2.4555
14162TIP3   OH263900   2.340   1.049  12.883  0.1100  0.2363 -0.2774
14162TIP3    H163901   2.370   1.108  12.814 -0.7584  0.4914 -0.4533
14162TIP3    H263902   2.384   0.966  12.864 -0.2551  0.2520 -1.2559
14163TIP3   OH263903   6.641   5.309   6.462 -0.0676 -0.0248  0.3837
14163TIP3    H163904   6.617   5.217   6.457  0.2972 -0.1460  0.8934
14163TIP3    H263905   6.585   5.345   6.531 -0.9540  0.3801 -0.4982
14164TIP3   OH263906   5.932   0.914   3.664  0.1861 -0.3267 -0.0267
14164TIP3    H163907   5.932   0.969   3.586  1.1858  0.5771  0.5945
14164TIP3    H263908   6.024   0.899   3.684 -0.0521 -0.4850  1.0270
14165TIP3   OH263909   5.049   6.677  14.271 -0.2636 -0.3970  0.2452
14165TIP3    H163910   5.070   6.770  14.269  1.0979 -0.6873  0.3548
14165TIP3    H263911   5.113   6.636  14.213  0.1264 -1.4331  1.3656
14166TIP3   OH263912   3.630   2.976   0.503 -1.2984  0.0848  0.0666
14166TIP3    H163913   3.616   3.031   0.580 -0.4011 -0.1338  0.4033
14166TIP3    H263914   3.676   2.899   0.537 -0.8575  0.0055 -0.6911
14167TIP3   OH263915   1.904   2.458   0.232  0.1237  0.0641  0.7754
14167TIP3    H163916   1.902   2.432   0.324  0.4288 -1.0143  0.4941
14167TIP3    H263917   1.976   2.408   0.195  0.1213  0.6312 -0.0167
14168TIP3   OH263918   2.929   6.646  14.657  0.7357  0.1347  0.0339
14168TIP3    H163919   2.903   6.556  14.639 -0.0109  0.5204 -0.9102
14168TIP3    H263920   2.974   6.642  14.742  1.5193 -1.2599 -0.4240
14169TIP3   OH263921   2.011   4.039  11.131  0.4266  0.4998 -0.0925
14169TIP3    H163922   1.933   4.032  11.076 -1.0266  1.3993  1.7589
14169TIP3    H263923   1.984   4.093  11.205  2.2595 -0.7705  1.6062
14170TIP3   OH263924   2.498   5.249   3.003 -0.1126 -0.2972 -0.3165
14170TIP3    H163925   2.442   5.258   3.080  1.1605  0.8612  0.5115
14170TIP3    H263926   2.437   5.248   2.929 -1.2222  0.9992  0.5371
14171TIP3   OH263927   6.084   4.906  13.985  0.3491  0.4956 -0.0155
14171TIP3    H163928   6.165   4.948  13.956  0.0875  0.9456 -0.1062
14171TIP3    H263929   6.105   4.869  14.071  0.8192  0.0946 -0.2993
14172TIP3   OH263930   0.597   0.406  16.897  0.0503 -0.3538 -0.4469
14172TIP3    H163931   0.517   0.382  16.849  0.7791 -1.2765 -1.2423
14172TIP3    H263932   0.637   0.475  16.843  1.7223 -2.5196 -2.1612
14173TIP3   OH263933   4.705   5.735  13.524  0.6351 -0.2759 -0.4791
14173TIP3    H163934   4.712   5.768  13.614  1.2270 -3.6107  0.8245
14173TIP3    H263935   4.729   5.810  13.470  1.8539  1.4434  2.2034
14174TIP3   OH263936   1.564   2.277   4.160 -0.1096 -0.0593  0.3399
14174TIP3    H163937   1.629   2.252   4.094  1.0392  0.3726  1.2726
14174TIP3    H263938   1.515   2.348   4.119  2.0476  1.7581  0.7153
14175TIP3   OH263939   5.721   2.190   3.121 -0.3169 -0.0176  0.0196
14175TIP3    H163940   5.716   2.111   3.067  0.5038 -1.7493  2.3283
14175TIP3    H263941   5.812   2.193   3.150 -0.8928  0.4124  1.8750
14176TIP3   OH263942   5.673   2.530   2.609  0.4340 -0.4098 -0.7527
14176TIP3    H163943   5.597   2.585   2.591  0.4639 -0.4176 -0.9040
14176TIP3    H263944   5.703   2.558   2.696 -0.2587 -0.9908 -0.3126
14177TIP3   OH263945   0.196   6.138  14.531  0.9438  0.0555 -0.2620
14177TIP3    H163946   0.287   6.167  14.520  1.9254 -3.3984 -3.4647
14177TIP3    H263947   0.156   6.151  14.445 -1.2024  0.1967  0.7076
14178TIP3   OH263948   4.620   1.210  16.769  0.3787 -0.4593 -0.5519
14178TIP3    H163949   4.528   1.233  16.757 -0.0014  0.3206  2.8065
14178TIP3    H263950   4.618   1.138  16.833  2.1053  0.5134  0.6746
14179TIP3   OH263951   2.059   1.400  16.926 -0.0461 -0.1949  0.2877
14179TIP3    H163952   2.010   1.418  16.846 -0.1819 -1.0349  0.1817
14179TIP3    H263953   2.103   1.483  16.946 -1.7747  0.6887  0.5805
14180TIP3   OH263954   1.455   6.652  10.864  0.0116 -0.1251 -0.6131
14180TIP3    H163955   1.476   6.560  10.846  0.7841 -0.0555 -0.1244
14180TIP3    H263956   1.494   6.701  10.792 -1.3245 -0.2451 -1.4585
14181TIP3   OH263957   0.989   0.106  15.870 -0.5313  0.3088 -0.5337
14181TIP3    H163958   0.935   0.068  15.801 -0.9406 -1.1578  0.5569
14181TIP3    H263959   1.079   0.088  15.843 -0.6693  0.2839 -0.9817
14182TIP3   OH263960   6.723   5.109   3.622  0.4828 -0.9399 -0.1855
14182TIP3    H163961   6.706   5.184   3.566 -0.6678 -0.4208  0.8105
14182TIP3    H263962   6.816   5.115   3.644  0.3197  0.4319  0.1962
14183TIP3   OH263963   2.687   0.057   4.295  0.3523  0.0727  0.2528
14183TIP3    H163964   2.624  -0.015   4.296  1.2762 -0.7980  2.5422
14183TIP3    H263965   2.690   0.087   4.386  0.6755  2.4383 -0.4601
14184TIP3   OH263966   2.280   2.001  16.047 -0.0419 -0.0793 -0.6762
14184TIP3    H163967   2.231   1.941  15.991 -0.6359 -0.8979  0.6586
14184TIP3    H263968   2.212   2.056  16.087 -0.1186 -1.9962  2.1047
14185TIP3   OH263969   5.269   2.243  16.961 -0.0373 -0.2250 -0.1763
14185TIP3    H163970   5.349   2.214  17.003 -0.1621 -0.9276 -0.4166
14185TIP3    H263971   5.277   2.338  16.958  0.6162 -0.2645  0.1332
14186TIP3   OH263972   2.872   2.993  16.672  0.4708  1.0320  0.3980
14186TIP3    H163973   2.916   2.965  16.591 -1.2623 -0.6638 -0.0332
14186TIP3    H263974   2.781   2.966  16.661  0.3429 -0.1440  3.2817
14187TIP3   OH263975   0.952   3.945   2.414 -0.1323  0.9132  0.2653
14187TIP3    H163976   0.910   3.911   2.493  1.9088 -0.0038  1.0164
14187TIP3    H263977   0.919   3.890   2.344  0.4489 -0.3725  0.9707
14188TIP3   OH263978   6.176   5.103   3.210  0.8160  0.6932 -0.0378
14188TIP3    H163979   6.175   5.030   3.148  0.7904 -0.5338  1.3535
14188TIP3    H263980   6.263   5.099   3.250  0.1906  0.2417  1.3500
14189TIP3   OH263981   5.262   6.445   4.085  0.4933  0.2302 -0.7308
14189TIP3    H163982   5.230   6.531   4.058 -2.9972 -0.3165  1.1330
14189TIP3    H263983   5.264   6.450   4.181  0.2499 -1.7480 -0.5988
14190TIP3   OH263984   5.783   4.034   1.629 -0.3275  0.8057 -0.7165
14190TIP3    H163985   5.857   4.032   1.568 -1.6173 -0.4393 -2.3562
14190TIP3    H263986   5.706   4.034   1.572 -1.6188 -1.4259  0.8769
14191TIP3   OH263987   4.650   4.484  16.270 -0.2209 -0.1337  0.6172
14191TIP3    H163988   4.628   4.408  16.217  0.6778 -0.6411  0.9469
14191TIP3    H263989   4.570   4.536  16.273 -0.7467 -0.9072  0.1168
14192TIP3   OH263990   1.896   3.475  13.166 -0.6513 -0.3294  0.1785
14192TIP3    H163991   1.967   3.436  13.116 -0.2874  1.6226 -0.9121
14192TIP3    H263992   1.818   3.461  13.113 -0.7518 -0.7781  0.4456
14193TIP3   OH263993   5.476   6.030  14.471 -0.3194  0.0682  0.1042
14193TIP3    H163994   5.494   6.124  14.467  1.0253 -0.1472  0.5331
14193TIP3    H263995   5.508   6.004  14.558  0.6556 -1.0439 -0.5728
14194TIP3   OH263996   5.149   5.706  12.059 -0.1956  0.5113 -0.1426
14194TIP3    H163997   5.066   5.729  12.019 -0.1728  1.4024  0.2930
14194TIP3    H263998   5.134   5.622  12.101 -0.7248  0.4329 -0.4826
14195TIP3   OH263999   1.297   1.328  15.479 -0.0237 -1.1297  0.1411
14195TIP3    H164000   1.301   1.235  15.497  2.3265 -0.9431  0.9228
14195TIP3    H264001   1.340   1.369  15.554 -1.3059  0.6219 -0.0188
14196TIP3   OH264002   3.514   2.767   6.154 -0.1354 -0.1067 -0.1010
14196TIP3    H164003   3.446   2.763   6.221 -0.6245 -0.2094 -0.6016
14196TIP3    H264004   3.520   2.678   6.120  1.0254 -0.3552  0.6978
14197TIP3   OH264005   6.136   4.222  14.590 -0.1919  0.4098 -0.0103
14197TIP3    H164006   6.126   4.304  14.637  2.1584  1.2211 -0.8081
14197TIP3    H264007   6.213   4.234  14.534 -1.0308 -1.5848 -1.7812
14198TIP3   OH264008   1.895   5.952  11.762 -0.2752  0.3715 -0.1457
14198TIP3    H164009   1.880   5.867  11.804 -1.9213 -0.0050 -1.3608
14198TIP3    H264010   1.943   6.003  11.827 -0.6494 -0.9507  1.2389
14199TIP3   OH264011   3.786   4.290  17.093  0.4663 -0.9146 -0.2806
14199TIP3    H164012   3.820   4.226  17.031  0.8577  0.7332 -1.8436
14199TIP3    H264013   3.701   4.316  17.056  0.2146 -0.6854  0.4441
14200TIP3   OH264014   4.075   6.045  15.104  0.1818 -0.2683 -0.2062
14200TIP3    H164015   3.998   5.990  15.111 -0.0936 -0.0144 -1.1950
14200TIP3    H264016   4.088   6.058  15.010  0.5491  0.9070 -0.0117
14201TIP3   OH264017   1.845   3.083   2.983  0.0481  0.2531 -0.3267
14201TIP3    H164018   1.939   3.065   2.973  0.2088  1.2067 -0.6444
14201TIP3    H264019   1.831   3.165   2.936 -0.4828  1.4120  1.7003
14202TIP3   OH264020   1.778   4.314  14.447  0.1941 -0.2190 -0.2436
14202TIP3    H164021   1.714   4.330  14.517  1.0388 -2.2232  1.0719
14202TIP3    H264022   1.862   4.328  14.489  0.7026 -0.6761 -1.0942
14203TIP3   OH264023   5.744   0.408  13.290  0.2787  0.0066  0.5706
14203TIP3    H164024   5.809   0.420  13.220 -0.6075  0.1438 -0.2517
14203TIP3    H264025   5.683   0.344  13.255 -1.4900  1.7774  0.2388
14204TIP3   OH264026   2.551   3.300  14.518  0.1503  0.2846 -0.3061
14204TIP3    H164027   2.647   3.298  14.512  0.1377 -0.9004 -0.3297
14204TIP3    H264028   2.533   3.274  14.609 -0.1415  1.0322 -0.1436
14205TIP3   OH264029   4.356   4.122   0.658  0.6055  0.1024 -0.3224
14205TIP3    H164030   4.430   4.173   0.626 -1.0907  1.7513 -1.9087
14205TIP3    H264031   4.322   4.078   0.581 -0.5818  0.0896  0.1855
14206TIP3   OH264032   0.874   2.157   5.136  0.3265  0.0046 -0.0853
14206TIP3    H164033   0.916   2.091   5.081  0.8153 -0.8269  1.2096
14206TIP3    H264034   0.787   2.121   5.155 -1.3384  1.9891 -3.2324
14207TIP3   OH264035   1.383   3.876  14.105  0.4522  0.0403  0.6595
14207TIP3    H164036   1.407   3.784  14.106 -0.9430 -0.3960 -1.2908
14207TIP3    H264037   1.463   3.921  14.079  1.0729 -0.6134  1.3764
14208TIP3   OH264038   4.596   1.471   1.952  0.3723 -0.1176 -0.5447
14208TIP3    H164039   4.640   1.414   2.015 -1.2176 -0.8128 -0.0106
14208TIP3    H264040   4.666   1.500   1.893  2.2264  1.6976  2.3131
14209TIP3   OH264041   5.717   2.823  11.948  0.8473  0.0948 -0.2420
14209TIP3    H164042   5.647   2.759  11.941  0.3117  0.8119 -1.8980
14209TIP3    H264043   5.795   2.776  11.919  1.0241 -0.5858  1.2294
14210TIP3   OH264044   2.662   4.698   1.215 -0.0341  0.0488 -0.3842
14210TIP3    H164045   2.756   4.692   1.225 -0.1831 -1.0020  0.5377
14210TIP3    H264046   2.648   4.782   1.171  1.0472  2.6805  3.7009
14211TIP3   OH264047   6.089   4.125  12.669  0.7447 -0.3543  0.2294
14211TIP3    H164048   6.003   4.149  12.704  0.8247  0.8271 -0.3185
14211TIP3    H264049   6.088   4.030  12.665 -0.8507 -0.3447 -0.5241
14212TIP3   OH264050   4.400   2.322  11.939  1.0751 -0.4016 -0.4091
14212TIP3    H164051   4.328   2.318  12.002  1.1698  0.2628 -0.2532
14212TIP3    H264052   4.385   2.247  11.882  0.6038 -0.6231 -0.0090
14213TIP3   OH264053   6.256   1.167  12.188  0.0284 -0.6488 -0.4090
14213TIP3    H164054   6.315   1.226  12.234 -0.8093 -0.2213  0.1495
14213TIP3    H264055   6.255   1.199  12.097  1.8331 -1.6103 -0.8141
14214TIP3   OH264056   3.150   4.800   2.406  0.6917 -0.4996 -0.6676
14214TIP3    H164057   3.190   4.877   2.446  0.9798  0.0968 -2.0473
14214TIP3    H264058   3.080   4.835   2.351 -0.4696 -1.3894  0.1897
14215TIP3   OH264059   5.882   2.201   5.033  0.7514 -0.7383 -0.4793
14215TIP3    H164060   5.849   2.140   5.100 -0.0061  1.5353  1.3471
14215TIP3    H264061   5.977   2.189   5.035  0.6940 -1.1521  0.5760
14216TIP3   OH264062   5.747   4.987   5.995  0.3696 -0.1187  0.3006
14216TIP3    H164063   5.798   5.069   5.997  0.8675 -0.4257  0.2838
14216TIP3    H264064   5.656   5.016   6.004  0.6705  0.3031  2.4521
14217TIP3   OH264065   1.448   1.718  14.659  0.2015 -0.4638  0.1300
14217TIP3    H164066   1.381   1.658  14.691  0.2579  0.6755  2.6983
14217TIP3    H264067   1.472   1.769  14.736  2.9442  0.2081 -1.0487
14218TIP3   OH264068   2.782   4.711   2.551  0.4802  0.8138 -0.3366
14218TIP3    H164069   2.763   4.779   2.487 -3.2084  1.8097  1.4982
14218TIP3    H264070   2.698   4.668   2.566  1.2416  0.2012  3.2224
14219TIP3   OH264071   0.464   4.090  13.994 -0.7050 -0.2473  0.3051
14219TIP3    H164072   0.486   4.179  13.967  2.5700 -1.1922 -0.5521
14219TIP3    H264073   0.386   4.068  13.942 -2.1942  2.3492  1.2503
14220TIP3   OH264074   4.193   2.400   3.589 -0.7981  0.2672  0.6452
14220TIP3    H164075   4.213   2.412   3.496 -1.1148  3.2685  0.8752
14220TIP3    H264076   4.117   2.341   3.589 -0.1336 -0.6600 -0.8987
14221TIP3   OH264077   5.723   2.875  15.524 -0.1204 -0.5145  0.2124
14221TIP3    H164078   5.779   2.941  15.565  1.7205 -1.4097 -0.7337
14221TIP3    H264079   5.773   2.846  15.448 -2.2975 -0.7397 -1.2213
14222TIP3   OH264080   1.872   5.377   3.766  0.5200 -0.1501  0.0596
14222TIP3    H164081   1.891   5.450   3.708  1.1921 -0.9751 -0.7955
14222TIP3    H264082   1.921   5.303   3.729 -0.0702 -1.0143  0.9348
14223TIP3   OH264083   6.588   2.109  10.712  0.1907 -0.2257  0.4599
14223TIP3    H164084   6.546   2.194  10.699  0.6833 -0.0201  0.1648
14223TIP3    H264085   6.629   2.114  10.798 -1.7928 -1.0388  1.5022
14224TIP3   OH264086   2.975   5.765  16.782  0.2347 -0.4955  0.5916
14224TIP3    H164087   2.997   5.794  16.694 -0.5352 -2.7614 -0.4228
14224TIP3    H264088   3.059   5.750  16.825  0.6063 -0.2219 -0.0330
14225TIP3   OH264089   3.466   0.871   1.178  0.7188 -0.2669 -0.7174
14225TIP3    H164090   3.450   0.927   1.102 -1.4707 -0.5962 -0.5673
14225TIP3    H264091   3.453   0.782   1.146 -0.4834 -0.3959  0.0658
14226TIP3   OH264092   2.784   1.981   1.328 -0.3212 -0.7163  0.1424
14226TIP3    H164093   2.793   2.076   1.318  0.4044 -0.7288  0.5930
14226TIP3    H264094   2.875   1.949   1.333 -0.5100 -1.6168 -1.6020
14227TIP3   OH264095   4.882   0.071  11.637 -0.1335 -0.5292 -0.0580
14227TIP3    H164096   4.971   0.039  11.649  1.0961  1.9585 -1.5329
14227TIP3    H264097   4.893   0.155  11.592 -3.2380 -0.0620 -0.1817
14228TIP3   OH264098   6.122   5.934  15.314  0.3315 -0.3401  0.6040
14228TIP3    H164099   6.162   6.016  15.282  1.4941 -1.9175 -2.4700
14228TIP3    H264100   6.146   5.930  15.406  1.2165  2.2381  0.5690
14229TIP3   OH264101   6.435   5.399   0.225 -0.5015  0.0982 -0.1940
14229TIP3    H164102   6.379   5.456   0.278 -1.0207 -0.0659 -0.5658
14229TIP3    H264103   6.448   5.321   0.280 -0.0814  0.4120  0.1664
14230TIP3   OH264104   1.051   5.357  11.731  0.4018  0.2947 -0.0731
14230TIP3    H164105   1.124   5.415  11.751  0.4871 -0.1562  1.0041
14230TIP3    H264106   1.091   5.281  11.688  0.2482  1.1559 -1.8149
14231TIP3   OH264107   2.331   1.192  17.080  0.3631 -0.1695 -0.4316
14231TIP3    H164108   2.402   1.176  17.018  0.9365 -1.8408  0.6039
14231TIP3    H264109   2.295   1.106  17.098 -1.5654  0.5857 -0.4751
14232TIP3   OH264110   5.459   1.732   0.110 -0.1419  0.4147  0.5651
14232TIP3    H164111   5.531   1.680   0.148  0.0713  0.0622 -0.3134
14232TIP3    H264112   5.420   1.777   0.186 -0.2287 -0.8845  1.3187
14233TIP3   OH264113   2.035   0.930  15.682  0.0535 -0.2767 -0.0858
14233TIP3    H164114   2.124   0.937  15.645 -0.2625  0.1149 -0.8103
14233TIP3    H264115   1.979   0.917  15.605 -0.4452 -1.2238  0.4317
14234TIP3   OH264116   3.526   4.632   0.926  0.0914  0.3355 -0.4237
14234TIP3    H164117   3.616   4.632   0.959  1.2991  1.3912 -3.3536
14234TIP3    H264118   3.491   4.716   0.954  1.6229  1.9121 -2.7806
14235TIP3   OH264119   3.233   0.215   3.361 -0.2279 -0.3826 -0.5295
14235TIP3    H164120   3.291   0.225   3.436 -0.1492  0.5913 -0.6982
14235TIP3    H264121   3.261   0.284   3.301 -1.5605  0.1107 -0.6051
14236TIP3   OH264122   1.665   0.185  12.823 -0.1461  0.3576  0.2289
14236TIP3    H164123   1.757   0.160  12.832  0.1560  0.2406 -2.3790
14236TIP3    H264124   1.666   0.280  12.819 -0.3193  0.4290  1.4662
14237TIP3   OH264125   1.960   3.060  16.671 -0.4315  0.0708 -0.5408
14237TIP3    H164126   2.000   2.999  16.610 -0.4020  0.6543 -1.1119
14237TIP3    H264127   1.994   3.034  16.757  1.2154  0.5772 -1.0142
14238TIP3   OH264128   0.305   2.683   3.317  0.8592 -0.0172 -0.1434
14238TIP3    H164129   0.240   2.635   3.266 -0.4970 -1.0457  2.3460
14238TIP3    H264130   0.377   2.700   3.256 -1.2135  0.1157 -2.6972
14239TIP3   OH264131   6.439   5.102  16.756  0.5616  0.1369  0.4526
14239TIP3    H164132   6.414   5.136  16.670  0.6311  0.8441  0.7081
14239TIP3    H264133   6.402   5.165  16.818  0.7360 -0.2291  0.9315
14240TIP3   OH264134   3.271   0.716  16.358  0.8224 -0.1989 -0.0357
14240TIP3    H164135   3.308   0.804  16.345 -0.1675  0.4900  1.4861
14240TIP3    H264136   3.324   0.659  16.303  1.4718  1.3620 -1.0962
14241TIP3   OH264137   3.698   5.626   0.289 -0.0624 -0.5144 -0.1155
14241TIP3    H164138   3.748   5.648   0.211  1.7117 -1.4039  0.7089
14241TIP3    H264139   3.662   5.539   0.271 -2.5654  0.6576 -1.2426
14242TIP3   OH264140   1.573   4.351   3.661  0.1852  0.0240 -0.3869
14242TIP3    H164141   1.611   4.437   3.674 -0.0679 -0.0885  1.3728
14242TIP3    H264142   1.585   4.306   3.745  0.7945 -1.8588 -1.4109
14243TIP3   OH264143   3.470   0.921  16.670  0.4137 -0.3829  0.0616
14243TIP3    H164144   3.504   0.910  16.759 -2.6453 -0.7597  1.3364
14243TIP3    H264145   3.434   1.010  16.669  2.2059  0.3899 -1.5649
14244TIP3   OH264146   6.343   5.187   3.827 -0.2299  0.9569  0.4494
14244TIP3    H164147   6.352   5.256   3.892  1.0070 -0.3183  1.7011
14244TIP3    H264148   6.344   5.106   3.878 -1.5712 -0.0120 -0.9719
14245TIP3   OH264149   3.117   4.184   5.478 -0.2212 -0.0557  0.6880
14245TIP3    H164150   3.047   4.135   5.521 -1.5153  0.2277 -1.0231
14245TIP3    H264151   3.193   4.125   5.481 -1.1625 -1.3033  0.5275
14246TIP3   OH264152   2.260   2.818   4.588  0.1021  0.2672  0.1018
14246TIP3    H164153   2.322   2.797   4.658  1.8598 -0.0910 -1.4718
14246TIP3    H264154   2.176   2.826   4.632  1.2885  1.0318  2.3927
14247TIP3   OH264155   1.945   2.477   3.972  0.2250  0.0323 -0.2531
14247TIP3    H164156   2.025   2.523   3.947  0.6086 -0.2539  0.4211
14247TIP3    H264157   1.917   2.434   3.892  0.1882  0.9515 -0.7436
14248TIP3   OH264158   2.324   3.778  13.604  0.3248 -0.4802  0.3861
14248TIP3    H164159   2.369   3.858  13.630  1.4478 -0.9913  0.0922
14248TIP3    H264160   2.232   3.802  13.598  0.4287  0.3654  1.9407
14249TIP3   OH264161   0.495   4.461   2.780 -0.4100  0.2007  0.0489
14249TIP3    H164162   0.511   4.542   2.829  0.0031  0.1582 -0.0132
14249TIP3    H264163   0.504   4.392   2.846 -0.9047  0.2104  0.1322
14250TIP3   OH264164   4.807   4.616   2.521 -0.4196 -0.0743 -0.2732
14250TIP3    H164165   4.724   4.595   2.477 -1.2511  0.6594  0.8843
14250TIP3    H264166   4.781   4.666   2.598  1.0413 -0.6348  0.6300
14251TIP3   OH264167   6.614   5.589  16.073  0.1750 -0.1324 -0.4399
14251TIP3    H164168   6.705   5.561  16.087  0.4130 -0.1838 -1.9370
14251TIP3    H264169   6.613   5.681  16.101  1.0034  0.2345 -1.5462
14252TIP3   OH264170   3.557   1.667   6.059  0.3810  0.0513  0.2399
14252TIP3    H164171   3.650   1.692   6.060  0.3070  0.3690 -0.1567
14252TIP3    H264172   3.526   1.698   5.974 -0.5078  1.5162  1.0475
14253TIP3   OH264173   4.969   2.954   2.599  0.1133  0.1088 -0.6057
14253TIP3    H164174   5.042   2.955   2.537 -0.0587  0.6811 -0.7965
14253TIP3    H264175   4.980   2.871   2.647  1.5864  0.7246  0.1922
14254TIP3   OH264176   4.401   0.863  16.794 -0.3923 -0.4783  0.1919
14254TIP3    H164177   4.320   0.812  16.791  0.6826 -2.2672  0.5323
14254TIP3    H264178   4.455   0.827  16.723 -0.0276  0.9915 -0.3227
14255TIP3   OH264179   1.038   5.616  16.940 -0.3691 -0.4769  0.4953
14255TIP3    H164180   1.045   5.639  16.848  0.7946 -1.5700  0.2955
14255TIP3    H264181   1.039   5.700  16.986  1.1112  0.0096 -0.3687
14256TIP3   OH264182   1.299   0.861  14.183  0.2190 -0.1701  0.1920
14256TIP3    H164183   1.379   0.883  14.230  1.3886  0.5395 -1.9593
14256TIP3    H264184   1.275   0.774  14.215  1.5947 -0.2044  1.2162
14257TIP3   OH264185   6.148   1.609   5.480 -0.1344  0.3389 -0.5142
14257TIP3    H164186   6.241   1.592   5.496  0.3513  2.0863 -1.2707
14257TIP3    H264187   6.102   1.539   5.527  1.4874  0.5908  1.6140
14258TIP3   OH264188   6.704   2.425   5.896  0.4985 -0.2117  1.1323
14258TIP3    H164189   6.748   2.484   5.958 -1.1730  3.1117 -0.5406
14258TIP3    H264190   6.619   2.466   5.881  0.6796 -0.9802 -3.0272
14259TIP3   OH264191   4.962   4.430   4.094 -0.1112  0.5974  0.2871
14259TIP3    H164192   4.875   4.415   4.056 -0.5663  0.8096  1.1961
14259TIP3    H264193   4.955   4.516   4.134  0.5047  0.5848  0.4185
14260TIP3   OH264194   3.687   2.745   0.954 -0.5570 -0.0624 -0.1888
14260TIP3    H164195   3.706   2.750   1.048  4.0637 -1.7528 -0.7276
14260TIP3    H264196   3.712   2.830   0.919 -0.6888  0.0221 -0.0768
14261TIP3   OH264197   6.262   5.883  12.882 -0.1496 -0.4703  0.6108
14261TIP3    H164198   6.281   5.971  12.850 -1.3062  0.3137  1.9724
14261TIP3    H264199   6.328   5.828  12.840  1.7441  1.2884  1.1245
14262TIP3   OH264200   6.761   4.734   4.670  0.7048 -0.2606  0.2411
14262TIP3    H164201   6.747   4.647   4.633 -1.1415 -0.6051  1.6357
14262TIP3    H264202   6.713   4.793   4.611  1.1305 -0.2923 -0.1446
14263TIP3   OH264203   0.234   4.671  14.588 -0.2258 -0.0791 -0.9676
14263TIP3    H164204   0.161   4.734  14.592 -0.2008 -0.0873 -0.3858
14263TIP3    H264205   0.236   4.630  14.674 -0.1463 -0.7835 -1.2973
14264TIP3   OH264206   1.691   1.622  14.486  0.2973  0.0597 -0.2700
14264TIP3    H164207   1.623   1.623  14.553 -0.6281  0.6101 -1.1875
14264TIP3    H264208   1.762   1.571  14.525  0.8759  2.4998  2.1410
14265TIP3   OH264209   5.533   0.698  16.254 -0.2319  0.1162 -0.5290
14265TIP3    H164210   5.581   0.727  16.177  0.7077 -0.4807 -0.1857
14265TIP3    H264211   5.601   0.669  16.316 -1.0099 -0.5285  0.0573
14266TIP3   OH264212   2.736   1.198   6.044  0.7693  0.4907  0.8035
14266TIP3    H164213   2.764   1.207   6.135 -1.5227 -0.7303  1.7043
14266TIP3    H264214   2.722   1.287   6.013  1.4510  0.9052  1.6714
14267TIP3   OH264215   1.950   2.974   6.195 -0.1411  0.5365  0.4723
14267TIP3    H164216   1.880   3.024   6.155 -1.0411 -1.6678 -0.9214
14267TIP3    H264217   1.913   2.941   6.278 -0.3572  0.3406  0.3000
14268TIP3   OH264218   5.349   4.606  14.756 -0.1249  0.1012  0.4380
14268TIP3    H164219   5.256   4.596  14.776 -0.1720 -1.2384 -0.3281
14268TIP3    H264220   5.388   4.638  14.837 -0.8793 -1.6859  1.5569
14269TIP3   OH264221   1.224   3.065   4.694 -0.3024  0.3780 -0.2958
14269TIP3    H164222   1.199   3.081   4.603  0.4505 -1.3109 -0.8324
14269TIP3    H264223   1.318   3.044   4.690 -0.4691 -0.6602  0.7331
14270TIP3   OH264224   2.574   0.410  14.977  0.2625 -0.5382  0.0827
14270TIP3    H164225   2.542   0.337  14.924  1.9374 -2.2621  1.2935
14270TIP3    H264226   2.573   0.485  14.918  1.2574 -2.1775 -2.1785
14271TIP3   OH264227   1.916   0.129   2.549  0.1736  0.1059  0.1770
14271TIP3    H164228   2.006   0.097   2.548  0.8993  1.9603 -1.7868
14271TIP3    H264229   1.864   0.054   2.519  1.2566 -0.5506 -0.1227
14272TIP3   OH264230   3.524   3.145   4.574  0.1985 -0.6952 -0.0779
14272TIP3    H164231   3.437   3.176   4.600  0.6446  1.1717 -0.6173
14272TIP3    H264232   3.510   3.100   4.491 -0.2402 -0.3344 -0.2037
14273TIP3   OH264233   5.877   2.625   1.815 -0.1926 -0.2576  0.0324
14273TIP3    H164234   5.820   2.578   1.755 -0.2116  0.3234 -0.4114
14273TIP3    H264235   5.930   2.681   1.759 -0.3501  0.4444  0.5681
14274TIP3   OH264236   6.720   0.666   2.680 -0.5751 -0.4748  0.0046
14274TIP3    H164237   6.793   0.612   2.652 -1.0101 -0.5388 -1.0579
14274TIP3    H264238   6.702   0.723   2.605 -0.5758  0.6623  0.8426
14275TIP3   OH264239   5.597   3.049  14.756 -0.2085 -0.4613 -0.2911
14275TIP3    H164240   5.505   3.030  14.770 -0.5929  0.0956 -1.8515
14275TIP3    H264241   5.611   3.135  14.796 -0.3847 -0.4937 -0.1616
14276TIP3   OH264242   3.118   3.490  16.559  0.2966  0.0975 -0.3731
14276TIP3    H164243   3.212   3.512  16.555  0.6449 -1.0223  0.9224
14276TIP3    H264244   3.112   3.401  16.525 -0.4468  0.5024 -1.3296
14277TIP3   OH264245   0.325   3.052   2.066 -0.3950  0.6614 -0.4181
14277TIP3    H164246   0.296   2.978   2.119  0.0593  0.9585  0.2592
14277TIP3    H264247   0.386   3.014   2.003  1.6185  0.7614  1.3852
14278TIP3   OH264248   5.052   4.659   4.543  0.1454  0.4151 -0.1093
14278TIP3    H164249   4.957   4.652   4.552  0.1799 -1.3008 -0.6846
14278TIP3    H264250   5.087   4.604   4.612  0.7747  1.8261  0.7365
14279TIP3   OH264251   2.911   3.942   2.565 -0.0712 -0.1539 -0.4372
14279TIP3    H164252   2.951   3.857   2.546  1.2446  0.4195 -0.3907
14279TIP3    H264253   2.979   3.990   2.614 -0.9097  0.7986 -0.1605
14280TIP3   OH264254   5.256   3.971  13.155 -0.2160 -0.8334  0.2250
14280TIP3    H164255   5.194   3.903  13.184 -0.7357 -0.1644  0.7128
14280TIP3    H264256   5.207   4.053  13.164  0.5486 -0.3517  0.0402
14281TIP3   OH264257   3.507   2.511   0.549  0.0697 -0.1823 -0.7296
14281TIP3    H164258   3.427   2.460   0.544  0.1245 -0.2585 -0.8341
14281TIP3    H264259   3.499   2.561   0.630  0.8015 -1.6732  0.2973
14282TIP3   OH264260   0.027   0.035   0.837 -0.2650 -0.2431  0.0961
14282TIP3    H164261  -0.036  -0.037   0.842 -0.5922  0.1191  1.9376
14282TIP3    H264262   0.084   0.012   0.764 -1.2608 -1.6209 -0.2939
14283TIP3   OH264263   5.667   6.025  12.015 -0.5829  0.5259 -0.8469
14283TIP3    H164264   5.678   6.107  12.064 -2.6456  0.3975 -0.0487
14283TIP3    H264265   5.737   5.968  12.048  0.9962  1.9617 -1.5325
14284TIP3   OH264266   1.797   6.431  15.694 -0.1597  0.0040  0.2391
14284TIP3    H164267   1.859   6.449  15.765  0.5596  1.1282 -0.6403
14284TIP3    H264268   1.760   6.345  15.716  0.7058 -0.0814  1.4889
14285TIP3   OH264269   5.715   0.047  14.510 -0.0060  0.5675  0.1348
14285TIP3    H164270   5.723  -0.023  14.575  0.9867  0.3879 -0.1552
14285TIP3    H264271   5.780   0.024  14.444 -1.3312  0.4705 -1.1854
14286TIP3   OH264272   3.582   2.866   3.607  0.0875 -0.0674 -0.0116
14286TIP3    H164273   3.489   2.851   3.589 -0.3669 -1.5068  2.9027
14286TIP3    H264274   3.604   2.945   3.557 -2.3479 -0.3594 -1.7289
14287TIP3   OH264275   2.093   1.745  16.704  0.3545  0.2954 -0.0894
14287TIP3    H164276   2.125   1.750  16.614 -0.6985 -0.0528 -0.5045
14287TIP3    H264277   2.157   1.692  16.750  0.8006  0.3046 -0.6886
14288TIP3   OH264278   2.902   0.145   3.649  0.0509 -0.0697 -0.3882
14288TIP3    H164279   2.821   0.155   3.700 -0.1157 -0.5745 -0.5429
14288TIP3    H264280   2.921   0.232   3.617 -0.9410 -0.1022 -1.1054
14289TIP3   OH264281   1.384   3.033   1.493 -0.1446 -0.1803  0.1807
14289TIP3    H164282   1.459   2.976   1.510  1.2044  0.3430 -3.1873
14289TIP3    H264283   1.324   2.978   1.442 -1.0231  0.0744  0.9191
14290TIP3   OH264284   2.823   1.858  12.083  0.2792 -0.0232  0.1409
14290TIP3    H164285   2.782   1.775  12.106 -0.3042  0.2451  0.0736
14290TIP3    H264286   2.891   1.870  12.149  2.0665 -1.7672 -1.2655
14291TIP3   OH264287   4.511   4.535  13.587  0.0757  0.0076  0.4318
14291TIP3    H164288   4.605   4.532  13.606  0.1170  0.4309  0.2985
14291TIP3    H264289   4.470   4.556  13.671  0.2613  1.9112  0.0781
14292TIP3   OH264290   6.591   4.268  11.989  0.1484  0.2371  0.2284
14292TIP3    H164291   6.544   4.221  12.057 -0.1043 -0.9099 -0.6945
14292TIP3    H264292   6.544   4.246  11.908  2.1488 -0.8443 -0.7080
14293TIP3   OH264293   0.499   1.059  10.534  0.5267  0.2799 -0.3884
14293TIP3    H164294   0.572   1.044  10.595  0.4732  0.9246 -0.1578
14293TIP3    H264295   0.532   1.124  10.473  0.3214  0.1858 -0.5991
14294TIP3   OH264296   5.155   2.167   4.063 -0.2175 -0.2875  0.3043
14294TIP3    H164297   5.230   2.220   4.089  0.0116 -0.1183 -0.6363
14294TIP3    H264298   5.171   2.081   4.101 -1.2333  0.6075  2.9678
14295TIP3   OH264299   3.685   0.545   5.107  0.1482  0.2449  0.4042
14295TIP3    H164300   3.601   0.521   5.068  0.1381 -1.9118  1.6081
14295TIP3    H264301   3.662   0.577   5.195  0.5680 -0.4756  0.7878
14296TIP3   OH264302   1.334   4.639   0.786  0.8729 -0.0607  0.2482
14296TIP3    H164303   1.332   4.543   0.792  1.3088 -0.2988 -2.3837
14296TIP3    H264304   1.269   4.660   0.719  1.8167  1.3652 -0.2450
14297TIP3   OH264305   1.800   4.077   6.007 -0.3836  0.4611  0.1274
14297TIP3    H164306   1.717   4.079   6.056 -2.7938 -1.0538 -3.4423
14297TIP3    H264307   1.838   3.992   6.027  0.3017  1.0707  1.6029
14298TIP3   OH264308   5.718   2.258  14.897  0.3920  0.2277  0.6134
14298TIP3    H164309   5.674   2.301  14.824 -2.8965  1.8731  3.2349
14298TIP3    H264310   5.716   2.165  14.876 -0.8361  0.6071 -1.1672
14299TIP3   OH264311   3.558   5.426   3.812  0.0431  0.3835  0.4572
14299TIP3    H164312   3.505   5.480   3.753 -1.2596 -1.4913 -0.2025
14299TIP3    H264313   3.494   5.382   3.868  0.9288 -1.4493  0.0958
14300TIP3   OH264314   0.427   0.704   4.538  0.4537  0.5639 -0.1119
14300TIP3    H164315   0.419   0.714   4.443 -0.4992  1.5718  0.0435
14300TIP3    H264316   0.360   0.763   4.573 -1.4365 -2.1423  1.1382
14301TIP3   OH264317   4.376   6.507  10.899 -0.4250 -0.1739  0.9800
14301TIP3    H164318   4.464   6.524  10.864 -0.5624 -0.4828  0.4654
14301TIP3    H264319   4.344   6.435  10.846 -1.8758  1.3884 -0.4023
14302TIP3   OH264320   4.754   5.946   1.717  0.2797 -0.8304  0.2789
14302TIP3    H164321   4.802   5.983   1.643 -0.5668  0.5267  0.3637
14302TIP3    H264322   4.672   5.915   1.679 -0.5062  0.5959  0.7201
14303TIP3   OH264323   2.628   4.845  12.133  0.1146  0.3479 -0.0253
14303TIP3    H164324   2.571   4.778  12.171 -2.5180  1.9510 -0.8877
14303TIP3    H264325   2.693   4.796  12.083 -1.3216 -1.5897 -0.1005
14304TIP3   OH264326   5.672   5.272  16.808 -0.1917 -0.3952 -0.0120
14304TIP3    H164327   5.581   5.255  16.785  0.2000 -0.7661 -1.3663
14304TIP3    H264328   5.682   5.366  16.798 -1.0077  0.0297  2.4514
14305TIP3   OH264329   3.286   0.632  16.024  0.1931  0.8700  0.4054
14305TIP3    H164330   3.220   0.564  16.036 -1.1708  2.0621  0.0486
14305TIP3    H264331   3.360   0.604  16.078  0.0818 -1.3490 -0.4719
14306TIP3   OH264332   3.700   0.416   4.652 -0.0170 -0.2326 -0.3828
14306TIP3    H164333   3.656   0.340   4.689  1.1112  0.2153  2.0772
14306TIP3    H264334   3.767   0.379   4.594  3.0848 -1.5084  3.5781
14307TIP3   OH264335   3.339   6.637   4.571 -0.3628  0.1005  0.0964
14307TIP3    H164336   3.408   6.625   4.505  0.4219 -4.4257  1.4002
14307TIP3    H264337   3.378   6.694   4.637  2.4732 -2.5560  0.9424
14308TIP3   OH264338   6.330   4.995  14.590  0.1253  0.1884  0.3586
14308TIP3    H164339   6.255   5.012  14.532 -0.5922  0.9155  1.4557
14308TIP3    H264340   6.393   5.064  14.570 -1.7323  2.9114  3.0514
14309TIP3   OH264341   1.640   1.620  11.123  0.2943 -0.0595  0.0993
14309TIP3    H164342   1.566   1.681  11.128  0.4153  0.0709  0.3096
14309TIP3    H264343   1.704   1.654  11.186  0.1756 -0.6588  0.5511
14310TIP3   OH264344   1.294   5.207  14.028  0.3416 -0.4087 -0.2360
14310TIP3    H164345   1.272   5.166  14.112 -0.1297 -1.7739 -1.0168
14310TIP3    H264346   1.219   5.264  14.009  0.1773 -0.5574 -0.0386
14311TIP3   OH264347   2.784   0.176  13.848 -0.1371  0.0800 -0.7241
14311TIP3    H164348   2.854   0.213  13.900 -0.7418  0.0418  0.1405
14311TIP3    H264349   2.743   0.111  13.905  0.5278 -1.5279 -1.9899
14312TIP3   OH264350   4.458   0.965  12.750 -0.4289  0.6655  0.3716
14312TIP3    H164351   4.526   1.012  12.702 -0.3339 -1.0916 -1.3232
14312TIP3    H264352   4.376   1.006  12.721 -0.2828  0.5138 -0.2768
14313TIP3   OH264353   1.114   5.398   1.737  0.3735  0.3688  0.8824
14313TIP3    H164354   1.076   5.359   1.658  1.3351 -0.8125  0.9659
14313TIP3    H264355   1.164   5.326   1.777  0.4236  1.1194  2.2271
14314TIP3   OH264356   4.885   0.944   2.910  0.5461  0.3496 -0.2556
14314TIP3    H164357   4.822   0.896   2.964 -0.7625  1.5408 -0.6447
14314TIP3    H264358   4.933   0.877   2.861  0.7209 -0.6738  1.2453
14315TIP3   OH264359   3.003   4.949  11.207  0.2365  0.1363  0.5314
14315TIP3    H164360   3.073   4.927  11.269  0.3373 -0.7434  0.1204
14315TIP3    H264361   2.997   4.873  11.150 -1.5225 -0.0984  0.9816
14316TIP3   OH264362   2.284   3.282   5.755 -0.6581 -0.2563  0.4954
14316TIP3    H164363   2.336   3.317   5.682 -1.1115 -1.0453 -0.2327
14316TIP3    H264364   2.280   3.353   5.818  2.1801 -0.5007  1.0715
14317TIP3   OH264365   2.022   4.748   2.078  0.5251  0.4088 -0.0947
14317TIP3    H164366   2.035   4.749   1.983 -0.7585 -0.2794 -0.2925
14317TIP3    H264367   2.110   4.758   2.114  1.2590 -1.1877 -1.3439
14318TIP3   OH264368   5.933   1.817   0.134 -0.5089 -0.0397  0.0145
14318TIP3    H164369   5.934   1.820   0.038  1.1722  1.5473  0.0438
14318TIP3    H264370   5.840   1.815   0.156 -0.9330 -0.3437 -1.6315
14319TIP3   OH264371   1.621   3.415   4.083 -0.4273  0.1191 -0.0813
14319TIP3    H164372   1.564   3.443   4.012 -1.5012  1.7855  1.3459
14319TIP3    H264373   1.568   3.351   4.132  0.9321 -2.3642 -1.6540
14320TIP3   OH264374   3.819   4.831  12.970  0.1448  0.5643  0.0959
14320TIP3    H164375   3.809   4.820  13.065 -2.4024 -3.8834 -0.4381
14320TIP3    H264376   3.898   4.782  12.948 -0.8472 -0.9009 -0.3154
14321TIP3   OH264377   1.798   2.788   2.641  0.0684  0.1922 -0.4482
14321TIP3    H164378   1.847   2.799   2.559 -1.3974 -1.3398 -1.5985
14321TIP3    H264379   1.827   2.703   2.675 -0.2496  0.2539 -0.0209
14322TIP3   OH264380   3.709   1.338  15.138  0.2760 -0.6947 -0.3001
14322TIP3    H164381   3.740   1.362  15.051 -0.0786 -0.1991 -0.2901
14322TIP3    H264382   3.751   1.254  15.156  0.7851 -0.5347 -0.7216
14323TIP3   OH264383   5.633   0.234  13.651 -0.4612  0.6880  0.1979
14323TIP3    H164384   5.617   0.268  13.739  2.5826  1.6640  0.4683
14323TIP3    H264385   5.622   0.139  13.660 -2.7638  0.9523  0.9387
14324TIP3   OH264386   5.189   4.496   5.757 -0.1099 -0.3064  0.2923
14324TIP3    H164387   5.094   4.484   5.763 -0.0991  0.2495  2.7833
14324TIP3    H264388   5.201   4.578   5.711 -0.8424 -0.3827 -0.0407
14325TIP3   OH264389   4.978   0.819   0.217  0.7628  0.7810 -0.5596
14325TIP3    H164390   5.036   0.805   0.142  1.7675 -0.1033  0.3407
14325TIP3    H264391   4.973   0.733   0.259  2.8196  1.8407  2.1689
14326TIP3   OH264392   6.396   3.540  15.190 -0.2582 -0.2415 -0.4990
14326TIP3    H164393   6.334   3.583  15.130  0.5089 -0.7315 -1.6715
14326TIP3    H264394   6.365   3.565  15.277 -1.0592  0.9758 -1.0959
14327TIP3   OH264395   4.770   3.007   0.106 -0.1651 -0.5105 -0.0203
14327TIP3    H164396   4.863   2.984   0.108 -0.2301 -1.1349 -1.7952
14327TIP3    H264397   4.768   3.099   0.080 -0.0292 -0.3641  0.4922
14328TIP3   OH264398   1.376   2.385   0.946  0.7596  0.0384 -0.9568
14328TIP3    H164399   1.442   2.394   1.015  1.3258 -0.1561 -1.4670
14328TIP3    H264400   1.315   2.457   0.963 -1.0475 -1.9541  1.7900
14329TIP3   OH264401   0.822   0.865  11.444 -0.8791 -0.1848 -0.1597
14329TIP3    H164402   0.889   0.869  11.511 -0.5443  0.2408 -0.5161
14329TIP3    H264403   0.855   0.799  11.382 -1.1842 -0.5733  0.0859
14330TIP3   OH264404   6.298   2.371   3.965 -0.0381 -0.2099  0.2934
14330TIP3    H164405   6.232   2.415   3.911  0.3538 -1.9498 -1.7435
14330TIP3    H264406   6.308   2.285   3.925  1.8679 -0.8092  1.9005
14331TIP3   OH264407   1.944   3.152  12.329 -0.4658  0.3181  0.9957
14331TIP3    H164408   2.035   3.178  12.338 -0.1122 -1.1284  1.9164
14331TIP3    H264409   1.930   3.087  12.399 -1.2665 -1.9348 -1.1021
14332TIP3   OH264410   1.763   1.544  15.647  0.0306 -0.2561 -0.5929
14332TIP3    H164411   1.685   1.599  15.637  0.1174  0.3710  1.7365
14332TIP3    H264412   1.745   1.468  15.590 -1.0455  1.1126 -2.1905
14333TIP3   OH264413   1.883   6.477   3.075  0.1796  0.1033  0.5721
14333TIP3    H164414   1.975   6.502   3.069  0.7343 -1.8535  0.0332
14333TIP3    H264415   1.867   6.467   3.169  0.8095 -0.4160  0.6374
14334TIP3   OH264416   0.133   3.438  11.185 -0.1218 -0.0586 -0.4987
14334TIP3    H164417   0.076   3.435  11.108 -0.1319 -1.4938 -0.4463
14334TIP3    H264418   0.085   3.389  11.252  0.0173  0.9297  0.3542
14335TIP3   OH264419   1.223   3.354   0.579 -0.3980  0.0569 -0.3103
14335TIP3    H164420   1.273   3.373   0.500  0.0624  1.2255  0.2429
14335TIP3    H264421   1.289   3.342   0.647 -0.7990 -0.7110 -0.0433
14336TIP3   OH264422   4.593   0.636  11.269  0.6080  0.3138  0.7338
14336TIP3    H164423   4.640   0.610  11.348  2.3908 -0.0206 -0.3772
14336TIP3    H264424   4.638   0.589  11.198 -1.6524 -0.2989 -0.3789
14337TIP3   OH264425   4.462   0.867  11.303  0.0039 -0.0863 -0.2259
14337TIP3    H164426   4.519   0.791  11.291 -0.3433 -0.1878 -1.4134
14337TIP3    H264427   4.497   0.912  11.380 -1.9882 -3.3888  2.9126
14338TIP3   OH264428   2.150   6.553  16.419  0.2961  0.0424  0.1630
14338TIP3    H164429   2.176   6.626  16.362  0.6510 -0.8720 -0.8900
14338TIP3    H264430   2.060   6.574  16.444  0.3097  0.7306 -0.3112
14339TIP3   OH264431   5.693   3.147   1.769 -0.2272  0.5141 -0.2862
14339TIP3    H164432   5.644   3.218   1.811 -1.8592  0.2615 -1.6367
14339TIP3    H264433   5.784   3.175   1.772 -0.3762  0.9840  2.3865
14340TIP3   OH264434   1.676   5.045  11.491 -0.1629  0.1922  0.0630
14340TIP3    H164435   1.661   4.982  11.420 -2.3999  0.7266  0.0025
14340TIP3    H264436   1.758   5.088  11.467  0.9786 -2.0459 -0.3463
14341TIP3   OH264437   2.928   6.749   2.908  0.1389 -0.3879  0.0001
14341TIP3    H164438   2.978   6.716   2.833  0.5615 -0.8641  0.4856
14341TIP3    H264439   2.994   6.769   2.974  0.0126  2.3917 -0.5942
14342TIP3   OH264440   0.736   5.735   3.981 -0.1554 -0.3755 -0.6758
14342TIP3    H164441   0.790   5.719   3.904  1.4591 -0.8188  0.4822
14342TIP3    H264442   0.798   5.730   4.055 -1.8119 -1.0920  0.7411
14343TIP3   OH264443   2.293   5.730   4.378  0.0006 -0.5212  0.4542
14343TIP3    H164444   2.319   5.688   4.460 -0.9802 -0.3217  0.8698
14343TIP3    H264445   2.245   5.808   4.404 -2.4601 -1.7055 -0.2265
14344TIP3   OH264446   1.792   5.640   1.254 -0.3808  0.1968 -0.6854
14344TIP3    H164447   1.867   5.611   1.201 -0.7866 -0.6352 -0.8126
14344TIP3    H264448   1.716   5.604   1.209 -1.0652  2.7335 -1.7336
14345TIP3   OH264449   2.721   5.201   2.557 -0.2903 -0.3923 -0.1559
14345TIP3    H164450   2.668   5.196   2.477 -0.3618 -2.2780 -0.0437
14345TIP3    H264451   2.788   5.267   2.538 -1.0226  0.0339 -1.3291
14346TIP3   OH264452   3.790   3.729   4.292 -0.1948  0.3780  0.1535
14346TIP3    H164453   3.728   3.659   4.314 -1.0610  1.5171  1.4945
14346TIP3    H264454   3.758   3.763   4.208  1.3730 -2.0256 -1.5628
14347TIP3   OH264455   4.132   1.136   3.846 -0.2187 -0.7208 -0.4299
14347TIP3    H164456   4.126   1.057   3.900 -2.9876 -1.3044 -1.4361
14347TIP3    H264457   4.128   1.208   3.908 -0.7003 -1.3785  0.3237
14348TIP3   OH264458   0.782   2.557  14.524  0.5212 -0.4729  0.3029
14348TIP3    H164459   0.861   2.510  14.553 -0.5136 -2.3558  0.2087
14348TIP3    H264460   0.773   2.532  14.432 -0.8095 -1.2324  0.6125
14349TIP3   OH264461   1.967   1.033   1.746 -0.5613  0.3636 -0.1639
14349TIP3    H164462   2.060   1.040   1.769 -0.9135  0.7681  1.2411
14349TIP3    H264463   1.921   1.070   1.821 -1.8881 -0.3593 -0.5841
14350TIP3   OH264464   4.699   4.166  12.170 -0.1468 -0.3423  0.0919
14350TIP3    H164465   4.666   4.080  12.197 -4.5170  1.3835  1.2056
14350TIP3    H264466   4.685   4.169  12.076  1.9667 -1.4861 -0.2999
14351TIP3   OH264467   2.346   4.276   3.882 -0.1183 -0.0957  0.3113
14351TIP3    H164468   2.398   4.242   3.955 -1.0795 -0.5932  0.7732
14351TIP3    H264469   2.400   4.260   3.805 -0.5341 -2.7290  0.4885
14352TIP3   OH264470   3.129   1.970  16.594  0.9071  0.8478 -0.2807
14352TIP3    H164471   3.063   1.993  16.529 -0.8047  0.2339  1.1584
14352TIP3    H264472   3.100   1.886  16.629  2.9637  0.1262 -0.2071
14353TIP3   OH264473   6.034   4.000  13.054  0.0157 -0.3991  0.1686
14353TIP3    H164474   5.964   3.968  12.998 -0.6378 -1.6085  1.6371
14353TIP3    H264475   5.994   4.070  13.106 -0.5844 -2.0413  2.0379
14354TIP3   OH264476   0.354   1.231   4.001 -0.0073 -0.0651  0.5039
14354TIP3    H164477   0.302   1.228   4.081 -0.5124 -1.8462  0.1558
14354TIP3    H264478   0.296   1.269   3.936  0.0322  0.3689  0.7176
14355TIP3   OH264479   2.386   0.791   4.163 -0.5365  0.3865 -0.6868
14355TIP3    H164480   2.303   0.790   4.211  1.1877  1.0873  2.6462
14355TIP3    H264481   2.376   0.863   4.101 -1.7622  1.8494  1.0802
14356TIP3   OH264482   4.477   3.131  14.337  0.4943 -0.2025  0.3653
14356TIP3    H164483   4.567   3.119  14.367  0.1989 -0.3324  1.2226
14356TIP3    H264484   4.423   3.106  14.411 -0.2358  0.8074  0.2018
14357TIP3   OH264485   1.092   1.831  12.162  0.1071  0.0665 -0.1590
14357TIP3    H164486   1.130   1.910  12.199  0.6405 -0.2328 -0.0534
14357TIP3    H264487   1.017   1.811  12.218  0.3603  0.1344  0.2031
14358TIP3   OH264488   5.400   0.083   1.034  0.0922 -0.4544 -0.3744
14358TIP3    H164489   5.335   0.033   0.986  0.7152  0.0840 -1.8274
14358TIP3    H264490   5.431   0.023   1.102 -0.9556 -1.1614 -0.5085
14359TIP3   OH264491   6.260   1.294  13.562  0.0550  0.4156  0.5308
14359TIP3    H164492   6.257   1.302  13.466  2.7312  3.0529  0.5011
14359TIP3    H264493   6.181   1.340  13.592 -1.4747 -1.5084 -0.3493
14360TIP3   OH264494   1.952   6.647  11.224 -0.1945 -0.0705 -0.1311
14360TIP3    H164495   1.942   6.722  11.283 -1.5618  0.4766 -1.0020
14360TIP3    H264496   1.883   6.587  11.250  0.0129 -0.4015 -0.3442
14361TIP3   OH264497   1.731   6.428   6.300 -0.3721 -0.3917  0.5011
14361TIP3    H164498   1.700   6.343   6.332 -0.2901 -0.8604 -0.6334
14361TIP3    H264499   1.816   6.440   6.342 -0.0917 -1.1753  0.1716
14362TIP3   OH264500   0.891   0.471  11.533  0.2654 -0.0831  0.5007
14362TIP3    H164501   0.871   0.410  11.604 -0.8395 -0.1045  0.2045
14362TIP3    H264502   0.949   0.536  11.572  1.7310 -1.4892  0.7371
14363TIP3   OH264503   1.639   4.033  14.153  0.1656 -0.6990 -0.3320
14363TIP3    H164504   1.693   4.055  14.077 -0.4422 -0.3631 -0.6801
14363TIP3    H264505   1.605   4.117  14.183  2.8749 -0.3774  2.2899
14364TIP3   OH264506   5.826   5.183   2.522  0.2711  0.8878  0.2141
14364TIP3    H164507   5.871   5.100   2.506 -0.2630  0.7084 -0.4160
14364TIP3    H264508   5.895   5.249   2.523  0.5878  0.5669 -0.3424
14365TIP3   OH264509   0.536   1.527  13.497  0.6022 -0.4319  0.6490
14365TIP3    H164510   0.512   1.536  13.405 -1.1201 -1.2678  0.9839
14365TIP3    H264511   0.601   1.456  13.497  2.0272  0.8078 -0.0883
14366TIP3   OH264512   3.003   4.572   3.424  0.3148 -0.0032  0.0763
14366TIP3    H164513   3.077   4.518   3.451  0.1123  0.2053  1.0872
14366TIP3    H264514   2.929   4.510   3.418  0.0060  0.1885  1.5618
14367TIP3   OH264515   3.986   6.661   5.524  0.0387 -0.5147  0.4564
14367TIP3    H164516   4.009   6.694   5.610 -0.1322 -2.6981  1.4165
14367TIP3    H264517   4.027   6.574   5.520  0.3161 -0.3566 -1.7930
14368TIP3   OH264518   2.087   1.843   5.146  0.2902  0.0872 -0.1002
14368TIP3    H164519   2.020   1.809   5.205  1.6838 -0.2357  1.3985
14368TIP3    H264520   2.076   1.793   5.065 -1.9121  0.7929 -0.2957
14369TIP3   OH264521   5.209   3.084   2.026 -0.2028 -0.0937  0.5282
14369TIP3    H164522   5.187   3.119   2.112  0.1132 -0.5404  0.7961
14369TIP3    H264523   5.305   3.076   2.026 -0.0525  1.2626 -0.4045
14370TIP3   OH264524   5.170   1.980  13.892  0.0441  0.7322  0.0808
14370TIP3    H164525   5.102   1.955  13.830  1.0527 -1.5571 -0.1731
14370TIP3    H264526   5.126   1.977  13.977 -0.4014  0.1598 -0.1620
14371TIP3   OH264527   5.845   2.043  13.694  0.0473  0.5517 -0.3005
14371TIP3    H164528   5.781   2.029  13.625 -1.1512  2.4700  0.3286
14371TIP3    H264529   5.797   2.089  13.763  1.3291 -0.7566  1.5841
14372TIP3   OH264530   5.762   3.110   2.612  0.4421 -0.0230  0.0972
14372TIP3    H164531   5.728   3.035   2.563 -1.5547  1.1054 -0.3717
14372TIP3    H264532   5.843   3.134   2.567  0.1302 -0.7677 -0.8877
14373TIP3   OH264533   4.721   6.433   6.420 -0.1078 -0.3998 -0.1380
14373TIP3    H164534   4.690   6.344   6.439 -0.7760  0.1756  1.6621
14373TIP3    H264535   4.735   6.472   6.506 -0.6375  1.5139 -0.8804
14374TIP3   OH264536   0.142   4.992  13.218 -0.0964 -0.2939  0.4315
14374TIP3    H164537   0.089   5.037  13.152 -0.7856 -1.3180  0.2517
14374TIP3    H264538   0.148   5.053  13.291 -1.7276 -0.2243  0.5377
14375TIP3   OH264539   3.675   5.189   5.559  0.1076 -0.0653 -0.0813
14375TIP3    H164540   3.638   5.119   5.505  1.3843 -1.6606  0.9672
14375TIP3    H264541   3.659   5.269   5.510 -2.1926 -0.9660 -0.9427
14376TIP3   OH264542   6.093   2.645   5.415  0.8098  0.1134 -0.1651
14376TIP3    H164543   6.074   2.578   5.351 -1.8193  0.6536 -0.0729
14376TIP3    H264544   6.043   2.620   5.493 -0.2386  2.1000 -0.1222
14377TIP3   OH264545   0.153   2.815   1.319 -0.2005 -0.1046 -0.3201
14377TIP3    H164546   0.099   2.893   1.315 -0.0644  0.0470  0.7087
14377TIP3    H264547   0.094   2.745   1.348  0.1071  0.0339  0.6758
14378TIP3   OH264548   1.741   4.430  11.777 -0.1853  0.2656  0.3935
14378TIP3    H164549   1.732   4.511  11.827 -2.1385 -1.4613  3.1319
14378TIP3    H264550   1.829   4.434  11.739 -0.2527  3.6245  0.3248
14379TIP3   OH264551   3.449   5.419  16.978  0.2949 -0.1729 -1.0374
14379TIP3    H164552   3.412   5.369  17.050  0.3494 -0.1976 -1.0264
14379TIP3    H264553   3.430   5.367  16.900  2.3759 -1.4308 -0.8117
14380TIP3   OH264554   4.196   4.446  16.167  0.9384  0.6538  0.1199
14380TIP3    H164555   4.233   4.520  16.215  1.0770  0.8361 -0.2659
14380TIP3    H264556   4.181   4.479  16.079  0.7517  0.2994  0.0168
14381TIP3   OH264557   5.111   6.159  12.943 -0.5806 -0.1587 -0.2989
14381TIP3    H164558   5.017   6.156  12.925 -0.2665  0.4050 -2.1762
14381TIP3    H264559   5.134   6.251  12.932  0.1207 -0.1907  0.7232
14382TIP3   OH264560   2.442   6.470   5.585 -0.9336  0.0200 -0.0142
14382TIP3    H164561   2.516   6.518   5.548 -1.5254  0.9071 -0.0971
14382TIP3    H264562   2.373   6.536   5.593 -0.8294 -0.1004  2.7071
14383TIP3   OH264563   0.428   5.113   2.798  0.1177 -0.2270  0.3049
14383TIP3    H164564   0.463   5.185   2.746 -1.3184  0.9648  0.9271
14383TIP3    H264565   0.503   5.054   2.811  1.0901  0.6542 -1.0047
14384TIP3   OH264566   1.242   4.494   4.176 -0.1813 -0.2084 -0.2229
14384TIP3    H164567   1.185   4.494   4.253 -1.3914  1.9640 -1.0022
14384TIP3    H264568   1.189   4.453   4.108  0.8393 -2.0176  0.0266
14385TIP3   OH264569   2.942   4.173   0.209  0.0678 -0.4591 -0.4938
14385TIP3    H164570   3.013   4.237   0.198 -0.4588  0.3702  0.6805
14385TIP3    H264571   2.894   4.177   0.126  0.4951  0.1032 -0.7253
14386TIP3   OH264572   2.030   0.804   5.678 -0.1408 -0.2470  0.2032
14386TIP3    H164573   2.008   0.827   5.769  1.4535 -0.4048  0.6571
14386TIP3    H264574   1.972   0.858   5.625  0.7041  1.8313  1.2934
14387TIP3   OH264575   1.445   5.259   0.683  0.4251  0.1825  0.4830
14387TIP3    H164576   1.539   5.266   0.670  0.5883  1.2396  1.9718
14387TIP3    H264577   1.435   5.196   0.755  0.0638  0.7114  0.9093
14388TIP3   OH264578   5.018   5.755  10.969  0.2635  0.1295  0.1122
14388TIP3    H164579   5.108   5.780  10.987  0.1551 -0.1964  1.2169
14388TIP3    H264580   4.971   5.839  10.962  0.9072  0.3625 -2.1743
14389TIP3   OH264581   5.705   2.753  13.792 -0.3515 -0.0576 -0.4020
14389TIP3    H164582   5.735   2.666  13.764  1.8875  0.9991 -1.4607
14389TIP3    H264583   5.782   2.795  13.828 -1.7943  0.9266  1.8018
14390TIP3   OH264584   5.128   1.084  16.828  0.6034  0.3402 -0.2480
14390TIP3    H164585   5.170   1.095  16.913  0.0940 -1.2503  0.2486
14390TIP3    H264586   5.058   1.149  16.827 -0.5528 -0.7960  1.3503
14391TIP3   OH264587   0.564   3.699   2.579  0.4577 -0.1336 -0.3425
14391TIP3    H164588   0.621   3.761   2.624  0.5338 -0.0719 -0.5240
14391TIP3    H264589   0.491   3.685   2.640 -0.2590  1.1982 -0.8616
14392TIP3   OH264590   6.100   1.775   5.754 -1.0328 -0.1959  0.3560
14392TIP3    H164591   6.061   1.784   5.667 -0.5586 -0.7615  0.0821
14392TIP3    H264592   6.032   1.807   5.814 -0.7114  1.8687 -0.3228
14393TIP3   OH264593   2.979   3.850   1.587  0.1822 -0.6751 -0.0107
14393TIP3    H164594   3.067   3.855   1.626 -0.1329 -0.1635  0.6578
14393TIP3    H264595   2.920   3.876   1.658 -0.2506  2.7985 -1.4452
14394TIP3   OH264596   0.259   2.740   2.025  0.2996  0.4542  0.3438
14394TIP3    H164597   0.352   2.745   2.044  0.3889  1.1404 -0.2345
14394TIP3    H264598   0.247   2.656   1.982  0.5972  0.2308  0.6960
14395TIP3   OH264599   4.254   2.581   0.939  0.1953 -0.3612 -0.0022
14395TIP3    H164600   4.230   2.650   1.001  1.3004  1.5016 -1.5620
14395TIP3    H264601   4.171   2.534   0.923 -0.3567 -0.0992  1.8813
14396TIP3   OH264602   6.297   2.351  13.210  0.7290 -0.3213  0.7278
14396TIP3    H164603   6.295   2.345  13.114  0.4368  2.2002  0.5097
14396TIP3    H264604   6.208   2.327  13.236  0.7913 -0.9681  0.3705
14397TIP3   OH264605   6.515   0.046  16.167 -0.2077 -0.0317  0.6245
14397TIP3    H164606   6.544   0.077  16.082  0.6953 -0.2254  0.8465
14397TIP3    H264607   6.462  -0.031  16.148  0.6693 -0.5606  0.2702
14398TIP3   OH264608   0.307   4.812   1.815  0.0513  0.0420  0.2315
14398TIP3    H164609   0.358   4.854   1.884  0.5470  0.3015 -0.2792
14398TIP3    H264610   0.274   4.885   1.762 -1.0872 -0.1052  0.7017
14399TIP3   OH264611   0.324   0.268   1.671 -0.0946  0.2112  0.0615
14399TIP3    H164612   0.337   0.299   1.761  0.1316  0.9920 -0.2290
14399TIP3    H264613   0.358   0.339   1.617 -0.7593 -0.0002 -0.6467
14400TIP3   OH264614   3.438   3.372  15.578 -0.1053 -0.1800 -0.2173
14400TIP3    H164615   3.484   3.340  15.501  0.7249 -0.0372  0.2077
14400TIP3    H264616   3.412   3.292  15.626  0.3581 -0.2523 -0.0827
14401TIP3   OH264617   4.318   0.961   0.651  0.4561  0.4022  0.5052
14401TIP3    H164618   4.246   0.919   0.603  1.1090 -0.3848  0.1841
14401TIP3    H264619   4.290   0.961   0.742  1.1381 -2.3411  0.7868
14402TIP3   OH264620   3.059   1.746  15.772  0.0003  0.4187  0.1025
14402TIP3    H164621   3.135   1.802  15.757  0.5865 -0.7889 -1.7505
14402TIP3    H264622   3.090   1.680  15.835  0.6274 -0.2658 -0.8968
14403TIP3   OH264623   5.424   4.413   0.680  0.1690  0.0723 -0.0082
14403TIP3    H164624   5.516   4.419   0.656 -0.4103 -0.5461 -2.7138
14403TIP3    H264625   5.405   4.320   0.681 -0.6995  0.2306 -0.6866
14404TIP3   OH264626   3.700   1.539   0.499  0.4207  0.3055  0.1263
14404TIP3    H164627   3.716   1.481   0.573  0.5624 -0.7077 -0.6821
14404TIP3    H264628   3.685   1.481   0.425 -1.0936  1.2849 -0.3819
14405TIP3   OH264629   4.673   0.864  12.149 -0.8008 -0.1229  0.1247
14405TIP3    H164630   4.709   0.801  12.211 -1.3160  0.2209  0.7959
14405TIP3    H264631   4.730   0.941  12.158  0.0722 -0.6073 -0.9872
14406TIP3   OH264632   0.862   5.324   2.667  0.3066 -0.5175  0.0325
14406TIP3    H164633   0.855   5.298   2.759  0.4251 -0.9607 -0.0812
14406TIP3    H264634   0.775   5.357   2.645  0.5783  0.6079  0.6040
14407TIP3   OH264635   1.060   1.455   3.734 -0.0518  0.1181  0.1924
14407TIP3    H164636   1.052   1.495   3.648  1.1731  1.8746  0.8198
14407TIP3    H264637   1.019   1.517   3.794  0.1291 -0.5164  1.0010
14408TIP3   OH264638   3.294   1.636   5.235  0.9415 -0.3301 -0.9656
14408TIP3    H164639   3.370   1.579   5.228  0.0413 -1.8920  0.9111
14408TIP3    H264640   3.223   1.586   5.193  0.5709  0.3154 -1.1170
14409TIP3   OH264641   3.325   1.191   0.388  0.2527 -0.2416  0.0197
14409TIP3    H164642   3.344   1.147   0.305  0.8357 -1.2670  0.6742
14409TIP3    H264643   3.330   1.284   0.367  3.2028 -0.4342 -0.5109
14410TIP3   OH264644   4.161   0.459  14.669 -0.4771 -0.3152 -0.1370
14410TIP3    H164645   4.214   0.526  14.625 -1.9497  1.1443  0.1884
14410TIP3    H264646   4.191   0.376  14.632  1.0441  0.5504 -0.9648
14411TIP3   OH264647   6.691   1.514  16.502  0.2750 -0.5353 -0.4655
14411TIP3    H164648   6.632   1.505  16.427  0.4621  0.4164 -0.7465
14411TIP3    H264649   6.634   1.515  16.578 -0.1228  0.7376 -0.7570
14412TIP3   OH264650   5.408   6.668  14.952 -1.0552  0.2890  0.6277
14412TIP3    H164651   5.417   6.621  14.869 -0.9967  1.8818 -0.3227
14412TIP3    H264652   5.458   6.616  15.015  2.1314  0.9102 -1.1452
14413TIP3   OH264653   0.675   5.448  15.827  0.6085 -0.3114  0.4280
14413TIP3    H164654   0.667   5.369  15.880 -1.0831 -0.4923 -0.0340
14413TIP3    H264655   0.679   5.416  15.737  0.5415  0.1087  0.2754
14414TIP3   OH264656   4.879   1.120  11.954 -0.0433  0.1563  0.2876
14414TIP3    H164657   4.853   1.213  11.958 -0.5067  0.0798 -0.5907
14414TIP3    H264658   4.831   1.079  12.026 -1.5532  0.2258 -0.6267
14415TIP3   OH264659   3.687   3.459   3.272 -0.2619  0.2817  0.2165
14415TIP3    H164660   3.742   3.455   3.350 -0.4001 -1.2547  0.2615
14415TIP3    H264661   3.731   3.522   3.215  0.3847  0.6606  1.1095
14416TIP3   OH264662   5.542   0.401   2.716 -0.1134 -0.0821  0.8380
14416TIP3    H164663   5.479   0.362   2.777  0.7712 -0.2724  1.6772
14416TIP3    H264664   5.622   0.411   2.769  0.2722  1.0219  0.0709
14417TIP3   OH264665   5.246   6.603  12.247 -0.2739  0.6098  0.3059
14417TIP3    H164666   5.232   6.692  12.279  0.8681  0.7900  0.3330
14417TIP3    H264667   5.173   6.589  12.185  0.2870  2.0815 -0.7611
14418TIP3   OH264668   6.701   3.907  12.712  0.7074  0.0895 -0.2878
14418TIP3    H164669   6.696   4.002  12.704  1.3596  0.1064 -0.5314
14418TIP3    H264670   6.750   3.878  12.635  0.9849 -0.3923  0.0597
14419TIP3   OH264671   4.598   2.876  16.364 -0.1038  0.1778  0.2042
14419TIP3    H164672   4.622   2.891  16.456  0.3495  2.5499 -0.2501
14419TIP3    H264673   4.518   2.822  16.370 -0.3503  0.6531  2.0077
14420TIP3   OH264674   5.093   5.904   0.780 -0.6417 -0.5895  0.7210
14420TIP3    H164675   5.005   5.884   0.810 -0.7314 -1.2914  0.0061
14420TIP3    H264676   5.088   5.899   0.685 -0.2194  1.0101  0.5805
14421TIP3   OH264677   5.177   5.512   3.238 -0.0281 -0.5615 -0.2161
14421TIP3    H164678   5.191   5.584   3.300 -0.5824  0.0628 -0.7995
14421TIP3    H264679   5.099   5.537   3.189 -1.8254 -2.7845  1.2920
14422TIP3   OH264680   6.397   6.522   2.956  0.2460  0.5987 -0.1222
14422TIP3    H164681   6.442   6.530   3.040  0.0805 -2.1203  0.3262
14422TIP3    H264682   6.460   6.553   2.891 -0.0015  3.7561  0.9936
14423TIP3   OH264683   0.973   0.834   3.291 -0.4557  0.0200  0.3992
14423TIP3    H164684   1.017   0.907   3.336 -0.4547  0.3723 -0.1600
14423TIP3    H264685   1.006   0.838   3.201 -1.3368  0.0547  0.0651
14424TIP3   OH264686   3.813   2.673  13.555  0.3972  0.2325 -0.0354
14424TIP3    H164687   3.721   2.685  13.579  0.0648 -0.4487 -0.9189
14424TIP3    H264688   3.860   2.675  13.639 -0.3821  0.8754  0.3976
14425TIP3   OH264689   6.402   4.496  11.591  0.3881  0.4378  0.3639
14425TIP3    H164690   6.420   4.426  11.653  0.5076 -1.0927 -1.3433
14425TIP3    H264691   6.334   4.549  11.634 -0.3560 -1.2202  1.3147
14426TIP3   OH264692   5.988   0.865  14.209  0.4936  0.0804 -0.7489
14426TIP3    H164693   5.924   0.861  14.138 -0.0103 -0.7387 -0.2602
14426TIP3    H264694   5.936   0.871  14.288  1.0441  0.1282 -0.3804
14427TIP3   OH264695   4.946   3.940   2.617  0.0388 -0.0879 -0.4442
14427TIP3    H164696   4.997   3.879   2.564  0.0707 -0.8069  0.3891
14427TIP3    H264697   4.962   3.913   2.707  0.8067  1.7470  0.0147
14428TIP3   OH264698   5.867   0.770   6.079  0.2224  0.2729  0.2193
14428TIP3    H164699   5.937   0.831   6.101 -0.9754  2.0506 -0.6465
14428TIP3    H264700   5.823   0.753   6.163  1.3119 -0.4241  0.6692
14429TIP3   OH264701   2.545   5.510   6.261 -0.3159 -0.5560 -0.5988
14429TIP3    H164702   2.455   5.494   6.236 -0.9621  2.8291 -0.8714
14429TIP3    H264703   2.539   5.575   6.331  1.8871  2.1038 -2.6514
14430TIP3   OH264704   1.086   1.852   5.186 -0.1907 -0.3438  0.0637
14430TIP3    H164705   1.052   1.763   5.176 -2.5109  0.2304  1.8812
14430TIP3    H264706   1.073   1.893   5.100  0.7844 -1.6741 -0.7514
14431TIP3   OH264707   0.014   4.190  15.058  0.0073  0.2604  0.1127
14431TIP3    H164708  -0.004   4.098  15.080  0.8355 -0.1771 -0.9097
14431TIP3    H264709   0.087   4.214  15.114  0.9981 -0.3104 -0.8919
14432TIP3   OH264710   5.422   3.748   2.770  0.1769 -0.0079 -0.8283
14432TIP3    H164711   5.380   3.745   2.856 -0.8599  1.7935 -1.2276
14432TIP3    H264712   5.361   3.797   2.715  0.8903 -0.9728 -2.5680
14433TIP3   OH264713   1.740   4.505  12.447 -0.2625  0.3924  0.1248
14433TIP3    H164714   1.709   4.507  12.357  0.6538 -1.9690 -0.3180
14433TIP3    H264715   1.812   4.442  12.446 -1.3249 -1.0186  2.8215
14434TIP3   OH264716   6.091   0.201  12.045 -0.1591 -0.2138  0.1374
14434TIP3    H164717   6.080   0.289  12.081 -0.1931  0.9401 -2.5090
14434TIP3    H264718   6.169   0.167  12.090  1.3211  2.1195 -0.4647
14435TIP3   OH264719   2.318   3.083  15.102  0.3495  0.1102 -0.2643
14435TIP3    H164720   2.336   2.989  15.102 -0.7147 -0.2018  2.5203
14435TIP3    H264721   2.263   3.097  15.025  0.5632 -1.5422 -0.7484
14436TIP3   OH264722   6.389   5.675  11.176  0.4815  0.0516  0.3471
14436TIP3    H164723   6.304   5.644  11.208  0.4627 -0.5224 -0.2374
14436TIP3    H264724   6.383   5.665  11.081  2.6335 -3.8768  0.4282
14437TIP3   OH264725   0.903   4.105   3.083 -0.3769  0.1998 -0.1547
14437TIP3    H164726   0.966   4.074   3.149 -0.2696  1.0690  0.1682
14437TIP3    H264727   0.889   4.030   3.026 -0.3983 -0.5397  0.8066
14438TIP3   OH264728   5.305   4.520  14.056  0.1894 -0.3074  0.1814
14438TIP3    H164729   5.270   4.605  14.030  1.6702  0.4728  0.5955
14438TIP3    H264730   5.305   4.468  13.975  1.6879  0.9864 -0.6960
14439TIP3   OH264731   6.511   2.269  15.048  0.2261  0.3897 -0.0544
14439TIP3    H164732   6.602   2.241  15.039  0.3332  0.7587 -0.1372
14439TIP3    H264733   6.482   2.287  14.958 -1.3713 -4.0658 -0.6771
14440TIP3   OH264734   1.314   2.280   6.165  0.6806  0.7583 -0.7774
14440TIP3    H164735   1.249   2.301   6.233  0.3503 -0.0830 -0.8255
14440TIP3    H264736   1.309   2.353   6.104 -1.1818  0.0829 -1.4882
14441TIP3   OH264737   1.736   3.087   1.292 -0.3785 -0.0134 -0.3926
14441TIP3    H164738   1.798   3.041   1.349  0.7036  0.8453 -0.8590
14441TIP3    H264739   1.693   3.150   1.350 -1.4306 -1.1229  0.1095
14442TIP3   OH264740   1.519   3.932  15.875 -1.4183 -0.0798 -0.0229
14442TIP3    H164741   1.565   3.935  15.791 -2.2538 -2.6750 -0.6689
14442TIP3    H264742   1.477   4.018  15.883  0.6486  1.1052 -1.0482
14443TIP3   OH264743   2.078   5.889  12.699  0.2763 -0.5741  0.1633
14443TIP3    H164744   2.014   5.847  12.641 -0.4292  0.2575  0.3310
14443TIP3    H264745   2.134   5.816  12.728 -1.7129 -1.6805  1.4817
14444TIP3   OH264746   1.955   3.232   2.158  0.0526  0.4671  0.3222
14444TIP3    H164747   1.912   3.183   2.089 -0.0108 -0.0826  0.7453
14444TIP3    H264748   1.975   3.167   2.225  0.2821  0.9572  0.7384
14445TIP3   OH264749   0.836   3.135   0.616  0.6078 -0.0142  0.5724
14445TIP3    H164750   0.867   3.057   0.571  0.7407 -0.5599  1.5811
14445TIP3    H264751   0.833   3.110   0.708 -2.0466  0.2459  0.6470
14446TIP3   OH264752   0.090   0.806  11.337 -0.5421 -0.3453 -0.1554
14446TIP3    H164753   0.038   0.886  11.339 -0.9233 -0.5924 -0.0297
14446TIP3    H264754   0.026   0.736  11.353 -0.5168 -0.8289 -1.9636
14447TIP3   OH264755   2.815   2.298  11.626 -0.0897  0.2892  0.1533
14447TIP3    H164756   2.754   2.366  11.598 -0.4048 -0.0147  0.0999
14447TIP3    H264757   2.798   2.224  11.567  0.4262  0.2498  0.0441
14448TIP3   OH264758   0.430   5.066   0.211  0.0337 -0.1798 -0.5157
14448TIP3    H164759   0.490   5.009   0.163 -1.1001  0.4021 -2.7116
14448TIP3    H264760   0.351   5.013   0.221 -0.4170  0.3949 -1.0269
14449TIP3   OH264761   3.079   3.552  16.192  0.6198 -0.2962  0.7039
14449TIP3    H164762   3.000   3.553  16.138  0.0351  1.1673  1.5232
14449TIP3    H264763   3.077   3.467  16.235  0.0266 -0.6693 -0.0334
14450TIP3   OH264764   0.922   3.991  12.723  0.5147  0.2371 -0.0281
14450TIP3    H164765   0.833   4.011  12.694  0.3798  0.1275  0.3082
14450TIP3    H264766   0.977   4.021  12.651  0.2294  0.6084 -0.0969
14451TIP3   OH264767   1.287   2.963  15.442 -0.3305  0.0531  0.3151
14451TIP3    H164768   1.283   3.042  15.388  0.7029  0.0406  0.2144
14451TIP3    H264769   1.236   2.899  15.393  1.5070 -0.2923 -1.2365
14452TIP3   OH264770   1.658   0.868   0.840 -0.0062  0.2323  0.3237
14452TIP3    H164771   1.572   0.892   0.875 -0.4944  1.0310 -1.3567
14452TIP3    H264772   1.705   0.834   0.916 -1.0361  1.8426  1.7574
14453TIP3   OH264773   0.055   5.622  14.243  0.0054 -0.5523  0.4607
14453TIP3    H164774   0.148   5.636  14.262 -0.1829  0.1590  0.9042
14453TIP3    H264775   0.047   5.528  14.233  0.6081 -0.7198  1.3564
14454TIP3   OH264776   4.132   0.962   3.241 -0.1937 -0.3174 -0.0252
14454TIP3    H164777   4.195   0.994   3.176 -0.3439 -0.5459 -0.2799
14454TIP3    H264778   4.046   0.975   3.201 -0.3576  0.6511  0.6051
14455TIP3   OH264779   4.706   6.295  14.548 -0.0968  0.0778 -0.1644
14455TIP3    H164780   4.725   6.367  14.488  1.5834 -1.2516 -1.2917
14455TIP3    H264781   4.749   6.219  14.510 -1.8559 -1.5845  0.9614
14456TIP3   OH264782   0.231   0.810  12.255 -1.0733  0.6461 -0.3482
14456TIP3    H164783   0.291   0.849  12.192  0.0342 -0.7702 -0.2296
14456TIP3    H264784   0.288   0.759  12.313 -2.2112  0.8055  0.9532
14457TIP3   OH264785   4.777   3.380   1.681 -0.6564  0.0612 -0.3605
14457TIP3    H164786   4.754   3.384   1.588 -2.3924 -0.4624 -0.0049
14457TIP3    H264787   4.770   3.470   1.711  0.2592  0.2878 -0.8012
14458TIP3   OH264788   5.550   4.331  11.343 -0.0199 -0.9593  0.3632
14458TIP3    H164789   5.504   4.304  11.423 -1.1454 -1.5268 -0.4597
14458TIP3    H264790   5.495   4.400  11.306 -1.6786 -3.3473 -1.9674
14459TIP3   OH264791   4.981   0.713  14.984 -0.5268 -0.3189  0.3319
14459TIP3    H164792   5.073   0.688  14.987  1.0467  4.5606  1.4225
14459TIP3    H264793   4.942   0.673  15.062  0.8674 -1.6399  0.3875
14460TIP3   OH264794   0.468   3.438   3.975  0.2010 -0.1942 -0.3904
14460TIP3    H164795   0.456   3.487   3.894 -0.3820 -1.7442 -1.2792
14460TIP3    H264796   0.387   3.388   3.984  0.8867 -1.1885  0.3440
14461TIP3   OH264797   6.745   6.353  14.130  0.1160 -0.6785 -0.2005
14461TIP3    H164798   6.686   6.425  14.108 -0.4800 -0.0718  2.8631
14461TIP3    H264799   6.689   6.275  14.132  0.1917 -0.7514 -0.8528
14462TIP3   OH264800   0.283   5.396  13.781 -0.3134  0.1460 -0.5847
14462TIP3    H164801   0.258   5.312  13.742 -0.5023  0.0834 -0.3297
14462TIP3    H264802   0.206   5.425  13.828 -0.0803  0.2113 -0.2376
14463TIP3   OH264803   3.161   1.091   6.472  0.8425  0.2194  0.2877
14463TIP3    H164804   3.192   1.181   6.459 -1.4720  0.9346 -0.8175
14463TIP3    H264805   3.078   1.100   6.519  0.3144 -1.2837 -0.2769
14464TIP3   OH264806   6.319   2.854  15.225  0.2215  0.1436 -0.3510
14464TIP3    H164807   6.400   2.895  15.196  0.5004 -0.6495 -0.7410
14464TIP3    H264808   6.253   2.887  15.165  0.2881  0.6612 -0.1407
14465TIP3   OH264809   2.468   0.883   4.694 -0.0326  0.3609  0.1782
14465TIP3    H164810   2.524   0.956   4.669 -0.9919  1.5146  1.2494
14465TIP3    H264811   2.397   0.883   4.629  1.4258 -1.5005 -1.5677
14466TIP3   OH264812   1.413   0.817   2.188 -0.5500  0.3526 -0.2078
14466TIP3    H164813   1.472   0.753   2.226 -1.6593 -0.2536  0.5321
14466TIP3    H264814   1.385   0.871   2.261 -0.6855  0.8290 -0.6035
14467TIP3   OH264815   3.534   4.322   5.422  0.6446  0.0484  0.2108
14467TIP3    H164816   3.551   4.353   5.511 -0.7344  0.3235  0.4072
14467TIP3    H264817   3.479   4.245   5.434 -1.9971  1.7005 -0.3892
14468TIP3   OH264818   4.848   2.038  15.627 -0.0694  0.0756  0.3657
14468TIP3    H164819   4.855   1.945  15.608  0.5935 -0.0604  1.2155
14468TIP3    H264820   4.791   2.042  15.705 -1.2760  0.4901 -0.5036
14469TIP3   OH264821   2.463   5.658   1.432  0.3952  0.0695  0.0478
14469TIP3    H164822   2.382   5.627   1.391 -0.1507 -0.5341  1.5327
14469TIP3    H264823   2.520   5.582   1.435  0.7989  0.3464 -0.4417
14470TIP3   OH264824   5.748   5.883  11.195 -0.1741  0.4134  0.2392
14470TIP3    H164825   5.810   5.923  11.257  1.4287 -0.6433 -0.6149
14470TIP3    H264826   5.767   5.789  11.199 -1.1911  0.1510 -0.6399
14471TIP3   OH264827   1.865   0.567   3.505 -0.1826 -0.2532  0.2772
14471TIP3    H164828   1.843   0.651   3.546 -0.3545  0.7501 -1.7521
14471TIP3    H264829   1.960   0.571   3.492  0.1185 -1.2083  1.8090
14472TIP3   OH264830   3.289   6.653   6.309 -0.4251 -0.0882 -0.3608
14472TIP3    H164831   3.205   6.699   6.314  0.7140  2.3183 -1.7876
14472TIP3    H264832   3.351   6.711   6.353  0.8638 -0.8239 -1.1453
14473TIP3   OH264833   6.017   2.633   1.384  1.2556  0.3132  0.2252
14473TIP3    H164834   6.105   2.619   1.349  0.5939 -0.5972 -1.1578
14473TIP3    H264835   5.965   2.561   1.348 -0.3311  1.5055  0.0294
14474TIP3   OH264836   2.823   5.111  11.314 -0.1429  0.2457 -0.3854
14474TIP3    H164837   2.850   5.200  11.292 -0.6290 -0.0931 -2.5748
14474TIP3    H264838   2.867   5.055  11.250 -1.7785 -0.8231 -0.6607
14475TIP3   OH264839   6.179   3.123   1.219  0.7573  0.0376 -0.4895
14475TIP3    H164840   6.086   3.129   1.242  1.0617 -1.0071  1.2498
14475TIP3    H264841   6.197   3.203   1.171 -1.1571  0.0183 -1.3441
14476TIP3   OH264842   2.387   2.265   1.153  0.4635 -0.1345  0.0675
14476TIP3    H164843   2.398   2.359   1.139  1.8835 -0.4448 -1.0020
14476TIP3    H264844   2.306   2.259   1.204  0.5345  1.6833  0.4807
14477TIP3   OH264845   0.506   5.651   0.788 -0.6054 -0.2402  0.3695
14477TIP3    H164846   0.460   5.622   0.867 -1.4735  0.8327  0.2817
14477TIP3    H264847   0.550   5.572   0.756  1.1981 -0.3864  2.8341
14478TIP3   OH264848   2.749   2.200  15.755  0.1518  0.0415  0.2896
14478TIP3    H164849   2.676   2.259  15.775 -0.7063 -0.3918 -1.3673
14478TIP3    H264850   2.711   2.133  15.699  1.4884 -1.1329  0.7345
14479TIP3   OH264851   5.187   3.914  15.964  0.8823  0.2143 -0.4450
14479TIP3    H164852   5.215   4.000  15.995  1.1781 -0.4928  1.3780
14479TIP3    H264853   5.158   3.929  15.874  0.4684  2.3094 -0.0163
14480TIP3   OH264854   4.744   0.168   0.490 -0.1742 -0.4128 -0.5498
14480TIP3    H164855   4.824   0.192   0.443  0.5716 -0.6366  0.5707
14480TIP3    H264856   4.704   0.252   0.513  1.2888 -0.1866  1.4384
14481TIP3   OH264857   0.394   5.083  13.747 -0.0612 -0.4161 -0.0527
14481TIP3    H164858   0.391   5.037  13.664 -1.5666  0.4013 -0.4761
14481TIP3    H264859   0.479   5.127  13.747  0.1452 -0.7962 -0.9366
14482TIP3   OH264860   2.591   1.125   0.005  0.3578 -0.0693 -0.5562
14482TIP3    H164861   2.530   1.186   0.047  0.6877 -0.4357  0.4931
14482TIP3    H264862   2.558   1.115  -0.084 -2.0102 -1.3841  0.3692
14483TIP3   OH264863   2.718   0.626  12.839  0.1475 -0.0745 -0.2043
14483TIP3    H164864   2.792   0.674  12.874 -0.1825 -0.3512  0.9049
14483TIP3    H264865   2.712   0.653  12.747  0.0716  1.8618  0.3433
14484TIP3   OH264866   4.214   6.774  16.472 -0.7685 -0.3292  0.2386
14484TIP3    H164867   4.131   6.818  16.493 -1.4435 -1.2615 -0.3496
14484TIP3    H264868   4.231   6.717  16.547 -0.5156  0.0707  0.4837
14485TIP3   OH264869   0.894   6.129   1.303  0.1340 -0.0575  0.3954
14485TIP3    H164870   0.915   6.221   1.319  1.0248 -0.2959  0.6973
14485TIP3    H264871   0.979   6.084   1.309 -0.4266 -1.0501  1.3616
14486TIP3   OH264872   4.861   2.598  11.294 -0.4290  0.2277  0.6744
14486TIP3    H164873   4.843   2.663  11.226  1.7478  1.0864  0.8485
14486TIP3    H264874   4.890   2.520  11.246  0.0889  0.4817  0.5685
14487TIP3   OH264875   3.346   5.876   5.054  0.2362  0.8681 -0.1617
14487TIP3    H164876   3.320   5.955   5.102  0.4658  0.8676 -0.0345
14487TIP3    H264877   3.438   5.864   5.076 -0.6279 -1.5742  2.9044
14488TIP3   OH264878   1.274   2.474   0.435  0.3416 -0.0812  0.3611
14488TIP3    H164879   1.227   2.396   0.463 -1.1085 -0.0290 -1.7266
14488TIP3    H264880   1.206   2.534   0.405  1.5438  1.2908  0.2730
14489TIP3   OH264881   4.580   0.906   5.879  0.0953  0.1029 -0.4580
14489TIP3    H164882   4.570   0.850   5.956 -0.2499 -1.2717 -1.4785
14489TIP3    H264883   4.512   0.972   5.889  0.0468 -0.0632  0.4018
14490TIP3   OH264884   1.570   4.368   0.007  0.4505 -0.1467  0.0624
14490TIP3    H164885   1.590   4.275  -0.002 -1.7743 -0.6117 -0.4992
14490TIP3    H264886   1.543   4.379   0.098 -0.4828 -0.3227 -0.1830
14491TIP3   OH264887   2.866   6.121  15.216  0.3538  0.2306  0.1459
14491TIP3    H164888   2.902   6.144  15.130 -1.9743 -0.0201 -0.9540
14491TIP3    H264889   2.816   6.198  15.243  0.5282  0.0606  0.9852
14492TIP3   OH264890   2.194   5.860  16.774  0.1370 -0.1046  0.0036
14492TIP3    H164891   2.105   5.893  16.788  0.6088  1.0915  0.3172
14492TIP3    H264892   2.224   5.904  16.694  0.5894 -0.2012  0.1164
14493TIP3   OH264893   3.298   0.782  14.182 -0.9483  0.1170 -0.3146
14493TIP3    H164894   3.276   0.846  14.249  2.9287  0.0905  1.2128
14493TIP3    H264895   3.307   0.834  14.102 -1.2777  0.8877  0.1322
14494TIP3   OH264896   6.758   1.090   2.581 -0.1366  0.2733 -0.0624
14494TIP3    H164897   6.851   1.070   2.573 -0.0114 -0.0617  1.7468
14494TIP3    H264898   6.755   1.174   2.627 -0.6909 -0.6061  1.6039
14495TIP3   OH264899   3.436   1.521  11.677 -0.6951  0.6095  0.1269
14495TIP3    H164900   3.446   1.454  11.745  0.8683  0.5524 -0.1256
14495TIP3    H264901   3.495   1.591  11.704 -2.1506  1.8423  0.2762
14496TIP3   OH264902   6.773   5.500   3.702  0.3003  0.0613 -0.0676
14496TIP3    H164903   6.743   5.457   3.622  0.2458  0.9616 -0.5376
14496TIP3    H264904   6.694   5.505   3.757  0.6174 -1.7984  0.6458
14497TIP3   OH264905   3.896   0.521  16.711  0.2968 -0.0148 -0.3981
14497TIP3    H164906   3.903   0.594  16.772  3.9833 -0.5211  0.0185
14497TIP3    H264907   3.882   0.562  16.625 -1.0980  0.9261  0.2514
14498TIP3   OH264908   2.745   1.402  16.386  0.1318 -0.4709  0.2154
14498TIP3    H164909   2.814   1.435  16.328  0.1890 -0.5880  0.2158
14498TIP3    H264910   2.664   1.412  16.335  0.1054 -0.0114  0.3491
14499TIP3   OH264911   4.351   1.101  13.096 -0.1065  0.0116 -0.0628
14499TIP3    H164912   4.357   1.186  13.052 -1.6068  0.1314 -0.0856
14499TIP3    H264913   4.317   1.042  13.028  0.7450 -0.5783  0.0076
14500TIP3   OH264914   5.153   3.337  16.835 -0.1737  1.1514 -0.2048
14500TIP3    H164915   5.208   3.374  16.903  0.9330 -0.6520 -0.0520
14500TIP3    H264916   5.097   3.274  16.881 -0.1112  0.6356 -0.8299
14501TIP3   OH264917   3.958   1.181  14.481 -0.0318  0.1298 -0.2987
14501TIP3    H164918   4.044   1.177  14.522 -0.6319  0.2924  1.0333
14501TIP3    H264919   3.905   1.119  14.531 -0.9667  0.8381 -0.3908
14502TIP3   OH264920   2.328   0.033   3.752 -0.3734 -0.3394  0.4546
14502TIP3    H164921   2.385   0.074   3.816 -2.0084  1.6716  0.7340
14502TIP3    H264922   2.241   0.068   3.771 -1.2544 -1.1868 -1.6307
14503TIP3   OH264923   0.962   0.020  11.815  0.1285 -0.6793 -0.3328
14503TIP3    H164924   1.049   0.061  11.809 -0.2465  0.4504  1.2885
14503TIP3    H264925   0.906   0.074  11.758 -0.1640  0.5849  1.0893
14504TIP3   OH264926   2.625   5.031   4.023  0.4291 -0.1085 -0.3140
14504TIP3    H164927   2.637   4.944   4.060  0.5313  0.5320  1.2627
14504TIP3    H264928   2.715   5.064   4.012  0.4621 -0.7696 -2.4515
14505TIP3   OH264929   3.700   0.393   2.721 -0.1197 -0.7249  0.1070
14505TIP3    H164930   3.686   0.434   2.807 -0.5973  0.1427 -0.3655
14505TIP3    H264931   3.770   0.330   2.736 -2.0345 -2.6180  1.7631
14506TIP3   OH264932   4.846   2.449  13.768 -0.2998  0.4190 -0.2774
14506TIP3    H164933   4.818   2.502  13.842 -1.9159 -1.5723  0.6395
14506TIP3    H264934   4.835   2.506  13.692 -1.3534  1.6113  0.7306
14507TIP3   OH264935   2.749   1.698   3.438 -0.0934  0.6265 -0.2950
14507TIP3    H164936   2.725   1.701   3.345 -3.6148  0.4599  0.4799
14507TIP3    H264937   2.754   1.605   3.458 -1.7961  0.6024  0.1617
14508TIP3   OH264938   4.998   5.495  12.177  0.3263 -0.1669 -0.1316
14508TIP3    H164939   4.959   5.470  12.260 -0.1052  0.7612 -0.0463
14508TIP3    H264940   5.024   5.412  12.137 -0.2033 -0.6758  0.5600
14509TIP3   OH264941   2.477   4.160  14.395 -0.5285  0.2613  0.3923
14509TIP3    H164942   2.453   4.108  14.472  0.0475 -0.5901  0.0157
14509TIP3    H264943   2.528   4.100  14.341 -0.5272  0.9919 -0.4372
14510TIP3   OH264944   2.139   0.986  15.329 -0.1979  0.4054 -0.1152
14510TIP3    H164945   2.170   1.010  15.417 -0.2840 -0.4344  0.1462
14510TIP3    H264946   2.084   1.060  15.302 -0.2258  0.6357  0.5605
14511TIP3   OH264947   1.482   4.884  15.636  0.6369 -0.1518 -0.3242
14511TIP3    H164948   1.559   4.827  15.637  1.0409  0.3774  1.6711
14511TIP3    H264949   1.447   4.879  15.725 -1.6077 -0.2913 -1.1485
14512TIP3   OH264950   1.856   1.672   3.963  0.3739  0.0368  0.4492
14512TIP3    H164951   1.822   1.755   3.996 -1.0622 -0.1836 -0.3905
14512TIP3    H264952   1.950   1.677   3.978  0.1179  1.1298  1.8851
14513TIP3   OH264953   6.635   1.332   3.682  0.5207  0.6778  0.4575
14513TIP3    H164954   6.616   1.245   3.719  0.3522 -0.1433 -1.4561
14513TIP3    H264955   6.694   1.315   3.609  1.3792  2.3146  0.7199
14514TIP3   OH264956   1.198   4.865   5.146 -0.0336  0.1159  0.4702
14514TIP3    H164957   1.131   4.835   5.208 -1.5776 -0.2937 -1.3223
14514TIP3    H264958   1.226   4.785   5.100 -2.4378  0.8766 -2.6597
14515TIP3   OH264959   2.817   4.376  14.162 -0.3371 -0.3453  0.1373
14515TIP3    H164960   2.867   4.423  14.095 -0.1478 -0.3477  0.2763
14515TIP3    H264961   2.810   4.286  14.129  0.4344 -0.5402  0.4883
14516TIP3   OH264962   2.064   3.384   4.918 -0.4383  0.5057 -0.3224
14516TIP3    H164963   2.156   3.412   4.916 -0.0877 -0.6090 -1.4404
14516TIP3    H264964   2.026   3.427   4.841 -0.6575  0.3712 -0.2872
14517TIP3   OH264965   3.846   3.130  16.832 -0.5134 -0.1062 -0.9005
14517TIP3    H164966   3.841   3.035  16.821 -0.1342 -0.4091  1.1057
14517TIP3    H264967   3.884   3.142  16.919 -1.0714  1.8821 -0.8768
14518TIP3   OH264968   4.763   3.519   2.795  0.1101 -0.2672  0.5465
14518TIP3    H164969   4.761   3.483   2.883  0.6338 -1.8780 -0.0597
14518TIP3    H264970   4.857   3.527   2.774  0.0850 -2.6565 -0.8641
14519TIP3   OH264971   0.007   5.651  16.290 -0.0674  0.2533  0.0080
14519TIP3    H164972   0.053   5.567  16.292  0.1500  0.3276 -1.1219
14519TIP3    H264973  -0.055   5.646  16.363 -0.3010 -1.0214 -0.2555
14520TIP3   OH264974   2.277   1.237  13.597 -0.0131  0.1384  0.6320
14520TIP3    H164975   2.195   1.285  13.582  0.6546  0.9323 -0.6289
14520TIP3    H264976   2.296   1.196  13.513  1.7936  1.4368  0.3609
14521TIP3   OH264977   0.285   5.718  12.819  0.3964  0.3490 -0.5167
14521TIP3    H164978   0.255   5.719  12.910  0.6027 -0.2821 -0.4376
14521TIP3    H264979   0.373   5.681  12.823  1.3804  2.5274 -0.7072
14522TIP3   OH264980   4.774   3.019  15.927  0.2893 -0.4949  0.0562
14522TIP3    H164981   4.757   2.942  15.982  0.1275 -0.6970 -0.2755
14522TIP3    H264982   4.847   2.994  15.871 -0.6793 -0.9203 -1.0378
14523TIP3   OH264983   3.579   2.795  11.633 -0.1777 -0.0831 -0.4160
14523TIP3    H164984   3.539   2.837  11.709  1.8078  1.5899 -0.2149
14523TIP3    H264985   3.668   2.831  11.629  0.9307 -2.6429 -1.5711
14524TIP3   OH264986   0.648   3.533  12.436 -0.3652 -0.2239  0.3915
14524TIP3    H164987   0.595   3.612  12.433  0.2312  0.1596 -0.1659
14524TIP3    H264988   0.587   3.464  12.464 -0.8196  0.4797  1.1765
14525TIP3   OH264989   3.959   0.604   2.826 -0.1756 -0.1597 -0.3430
14525TIP3    H164990   3.900   0.636   2.758  0.2717 -0.1762 -0.7464
14525TIP3    H264991   3.902   0.579   2.898 -0.5455  2.7241  0.5191
14526TIP3   OH264992   6.744   6.115  11.478  0.3101  0.6280  0.0038
14526TIP3    H164993   6.735   6.176  11.404  0.2336 -0.9038 -1.3032
14526TIP3    H264994   6.673   6.140  11.538 -0.5863  0.9603 -1.1507
14527TIP3   OH264995   3.148   0.863   4.914 -0.1916  0.3079 -0.6880
14527TIP3    H164996   3.063   0.879   4.873 -0.7132  1.4772  0.7471
14527TIP3    H264997   3.127   0.819   4.996  0.5332  0.9884 -0.1204
14528TIP3   OH264998   1.349   2.981  15.037  0.1580 -1.0409  0.0287
14528TIP3    H164999   1.430   2.982  15.088  0.1502  0.1539  0.0507
14528TIP3    H265000   1.361   3.051  14.973 -1.5103  0.2969  1.0997
14529TIP3   OH265001   6.736   1.219  11.601 -0.1513  0.0058 -0.0312
14529TIP3    H165002   6.826   1.187  11.589 -0.8660 -2.6208  0.9250
14529TIP3    H265003   6.746   1.306  11.639  1.9782 -0.0055 -0.4546
14530TIP3   OH265004   4.694   0.296  14.912  0.4727  0.1451 -0.2186
14530TIP3    H165005   4.664   0.293  15.003  0.1006  0.2890 -0.3365
14530TIP3    H265006   4.735   0.211  14.897  1.0179  0.3145  0.2490
14531TIP3   OH265007   2.021   0.305   5.283 -0.0125 -0.4057 -0.2706
14531TIP3    H165008   2.009   0.258   5.366 -0.3617  0.2640  0.0618
14531TIP3    H265009   2.088   0.371   5.302  0.1881 -0.5027 -0.6269
14532TIP3   OH265010   5.152   3.418  12.555  0.5650 -0.2548  0.3785
14532TIP3    H165011   5.216   3.450  12.618 -0.9552 -1.7900  2.8921
14532TIP3    H265012   5.168   3.323  12.551 -0.4900 -0.4266 -0.2029
14533TIP3   OH265013   5.791   5.846   2.847  0.2507  0.5426  0.1465
14533TIP3    H165014   5.882   5.841   2.877  0.2472  1.0459  0.2512
14533TIP3    H265015   5.754   5.761   2.870  0.3655  0.7578  1.2071
14534TIP3   OH265016   4.778   3.231  14.730 -0.2812 -0.1051 -0.1198
14534TIP3    H165017   4.850   3.278  14.771  0.3766 -1.8913  0.9071
14534TIP3    H265018   4.701   3.283  14.748  0.7179  1.9078 -1.3072
14535TIP3   OH265019   5.649   0.709   2.588  0.5818  0.6926  0.4120
14535TIP3    H165020   5.665   0.766   2.664 -1.1217  1.5573  0.1543
14535TIP3    H265021   5.611   0.766   2.522  0.1360 -0.4663 -0.3748
14536TIP3   OH265022   3.995   6.617   4.198  0.4217 -0.2039 -0.6123
14536TIP3    H165023   4.068   6.645   4.143  0.2877  0.2677 -0.5553
14536TIP3    H265024   4.036   6.573   4.272  0.7647  1.5808  0.3152
14537TIP3   OH265025   1.058   2.905  12.764  0.4746 -0.2547 -0.6996
14537TIP3    H165026   0.965   2.929  12.764  0.4984 -0.0048 -2.2977
14537TIP3    H265027   1.065   2.834  12.828 -0.5579  0.6095  0.4012
14538TIP3   OH265028   5.517   2.621  13.334 -0.1415 -0.3462  0.2853
14538TIP3    H165029   5.470   2.642  13.254  0.6636  0.7240  0.0622
14538TIP3    H265030   5.475   2.673  13.402  1.9475  2.3212 -0.2941
14539TIP3   OH265031   1.037   6.005  15.139  0.1021  0.3773  0.0327
14539TIP3    H165032   0.997   5.923  15.169  0.7681  1.1200  3.3413
14539TIP3    H265033   0.980   6.073  15.175  0.5762  1.4054 -1.1029
14540TIP3   OH265034   5.890   0.006  17.054 -0.1929 -0.6221  0.3873
14540TIP3    H165035   5.959  -0.050  17.090 -1.7034 -2.5408  0.4456
14540TIP3    H265036   5.854  -0.044  16.981 -1.6991  0.2025  0.5337
14541TIP3   OH265037   4.422   1.556   1.711 -0.0133  0.3802  0.3369
14541TIP3    H165038   4.476   1.533   1.787 -1.7773 -0.2277  1.4837
14541TIP3    H265039   4.383   1.640   1.734 -0.5101  0.2228  0.0834
14542TIP3   OH265040   3.086   3.525  13.444  1.0185 -0.0937  0.1541
14542TIP3    H165041   2.991   3.529  13.436  1.1116 -0.4036 -1.3548
14542TIP3    H265042   3.118   3.581  13.373  1.9708  0.6090  1.1035
14543TIP3   OH265043   4.044   5.580  13.664  0.1558 -0.0754  0.1628
14543TIP3    H165044   3.950   5.565  13.673 -0.0575  1.7315  1.3677
14543TIP3    H265045   4.061   5.660  13.714  2.1454  0.2869 -0.9856
14544TIP3   OH265046   0.015   3.555   0.331  0.1983 -0.1964  0.4140
14544TIP3    H165047  -0.031   3.472   0.319 -1.5830  0.9377 -1.3289
14544TIP3    H265048   0.024   3.563   0.426  0.0967 -2.1994  0.6347
14545TIP3   OH265049   4.473   3.878  16.830  0.4308  0.2907 -0.1708
14545TIP3    H165050   4.383   3.844  16.832  0.6235 -0.2221 -0.0849
14545TIP3    H265051   4.466   3.959  16.779 -0.2714  0.8343  0.7662
14546TIP3   OH265052   6.470   6.740   3.961  0.0359  0.4283 -0.0284
14546TIP3    H165053   6.430   6.690   4.032  1.5664 -1.5452 -0.4564
14546TIP3    H265054   6.563   6.745   3.985  0.3572  0.8062 -1.2675
14547TIP3   OH265055   3.488   5.877   3.109  0.2112 -0.8102  0.4703
14547TIP3    H165056   3.581   5.881   3.086 -0.3236  0.1253 -1.8019
14547TIP3    H265057   3.473   5.956   3.161  0.4100 -0.1233 -0.4759
14548TIP3   OH265058   5.054   0.902  10.782  0.4200  0.3159 -0.0702
14548TIP3    H165059   5.082   0.854  10.705 -0.1397  3.5947 -2.5521
14548TIP3    H265060   5.106   0.982  10.781 -1.1820  1.4736  1.6743
14549TIP3   OH265061   5.509   3.195  12.700  0.0815  0.2702 -0.5799
14549TIP3    H165062   5.543   3.285  12.691 -1.6196  0.9239 -0.8049
14549TIP3    H265063   5.552   3.162  12.779  1.2616  1.0183 -0.8726
14550TIP3   OH265064   2.562   2.754  11.740  0.6829 -0.3577  0.3075
14550TIP3    H165065   2.482   2.789  11.701  1.1892 -1.0671 -1.4359
14550TIP3    H265066   2.551   2.769  11.834 -0.1784  2.2159 -0.1232
14551TIP3   OH265067   5.642   6.147  13.035  0.3573 -0.0782  0.2162
14551TIP3    H165068   5.612   6.137  12.945  0.1697 -2.6529  0.4810
14551TIP3    H265069   5.721   6.092  13.039  0.1696 -0.2658  1.6869
14552TIP3   OH265070   5.518   6.150   4.240 -0.4904  0.0541  0.2858
14552TIP3    H165071   5.601   6.194   4.220 -0.1975 -0.9180 -0.7376
14552TIP3    H265072   5.486   6.195   4.318  0.1969  1.5132 -0.2312
14553TIP3   OH265073   0.292   5.589  12.572 -0.1073  0.0477 -0.1066
14553TIP3    H165074   0.201   5.565  12.587  0.0618 -1.4613 -1.2914
14553TIP3    H265075   0.320   5.631  12.654 -1.5736 -0.3104  0.6068
14554TIP3   OH265076   0.158   2.546  11.825 -0.0063  0.3328  0.0662
14554TIP3    H165077   0.223   2.476  11.831 -1.5865 -1.0639  2.1699
14554TIP3    H265078   0.109   2.526  11.745  0.4594 -0.1327 -0.1093
14555TIP3   OH265079   2.412   5.720  12.936  0.9996 -0.0734  0.0377
14555TIP3    H165080   2.472   5.793  12.934  2.0637 -0.9171  0.2916
14555TIP3    H265081   2.401   5.699  13.029  0.2521  0.1209 -0.0010
14556TIP3   OH265082   5.572   2.514  12.599 -0.7319  0.0213  0.0911
14556TIP3    H165083   5.579   2.502  12.504  1.9764  0.9564  0.0881
14556TIP3    H265084   5.572   2.609  12.612  0.1798 -0.0972  1.0844
14557TIP3   OH265085   3.362   0.794   3.977 -0.4271  0.6636  0.6120
14557TIP3    H165086   3.443   0.743   3.967 -1.2804 -0.6232  0.0029
14557TIP3    H265087   3.335   0.814   3.887  0.0009  2.4276  0.8378
14558TIP3   OH265088   3.928   2.431  15.390  0.2763 -0.1519 -0.5694
14558TIP3    H165089   4.020   2.409  15.401  0.6605  1.8138  0.7220
14558TIP3    H265090   3.886   2.405  15.472 -0.3063 -0.9175 -1.0977
14559TIP3   OH265091   3.512   0.648  15.806  0.4231  0.3611  0.3592
14559TIP3    H165092   3.471   0.566  15.837  1.0969  0.1166  0.6258
14559TIP3    H265093   3.562   0.622  15.729  1.3168  0.3429  0.9256
14560TIP3   OH265094   5.233   3.600  13.195 -0.2133  0.3141  0.0543
14560TIP3    H165095   5.306   3.567  13.247  0.0971  0.1690 -0.4739
14560TIP3    H265096   5.155   3.573  13.243  0.0789  0.8381  0.8496
14561TIP3   OH265097   5.734   2.025  16.439 -0.3595 -0.8591  0.3009
14561TIP3    H165098   5.734   1.952  16.500  2.1291  0.7692  2.4339
14561TIP3    H265099   5.826   2.035  16.413  0.1187  3.3811  2.6872
14562TIP3   OH265100   5.101   2.324   2.717 -0.2490  0.4672  0.1914
14562TIP3    H165101   5.186   2.303   2.679 -0.5365  1.3123 -0.9901
14562TIP3    H265102   5.054   2.241   2.720  0.3288  0.1391  0.1005
14563TIP3   OH265103   6.560   1.782   5.107  0.3980  1.0626 -0.1357
14563TIP3    H165104   6.498   1.778   5.180 -0.8413  0.7940 -1.1696
14563TIP3    H265105   6.559   1.695   5.069  1.1033  1.1735 -0.4269
14564TIP3   OH265106   6.052   3.230  11.062  0.4402  0.5983 -0.5958
14564TIP3    H165107   6.100   3.237  11.145 -1.1841  2.6963  0.2675
14564TIP3    H265108   5.962   3.213  11.088  0.2098 -0.6787 -2.0697
14565TIP3   OH265109   4.036   4.870  12.563 -0.6067  0.7893  0.1060
14565TIP3    H165110   4.109   4.927  12.536 -1.5602  1.5279 -0.9846
14565TIP3    H265111   3.977   4.869  12.488 -1.8128  0.3206  1.0255
14566TIP3   OH265112   0.450   0.316  12.235 -0.3046 -0.0330  0.8658
14566TIP3    H165113   0.529   0.265  12.218 -0.5455 -0.6090  1.4557
14566TIP3    H265114   0.471   0.368  12.313 -0.0285  0.8523  0.2185
14567TIP3   OH265115   6.368   5.611   3.163  0.4111 -0.3487 -0.0609
14567TIP3    H165116   6.278   5.595   3.135 -0.0217  0.0625  1.0174
14567TIP3    H265117   6.418   5.619   3.082 -0.7068  0.4329 -0.7020
14568TIP3   OH265118   0.778   2.838  16.545  0.7195  0.0244 -0.3894
14568TIP3    H165119   0.768   2.869  16.635 -1.3402 -0.8998 -0.2357
14568TIP3    H265120   0.807   2.747  16.554  0.2863 -0.1421 -0.6334
14569TIP3   OH265121   4.379   6.052  16.283  0.5301  0.0971  0.3411
14569TIP3    H165122   4.452   6.093  16.237 -0.7114  0.6816 -1.2089
14569TIP3    H265123   4.310   6.119  16.285 -0.8190 -1.1887 -0.4621
14570TIP3   OH265124   0.585   3.338   3.093  0.0899 -0.1409 -0.6295
14570TIP3    H165125   0.672   3.304   3.113 -0.1662 -1.1391 -1.1373
14570TIP3    H265126   0.534   3.261   3.071 -1.3958  0.2428  1.2664
14571TIP3   OH265127   1.571   1.842  13.160 -0.9100  0.3975  0.5161
14571TIP3    H165128   1.536   1.915  13.210 -2.9733 -0.8170  0.9479
14571TIP3    H265129   1.547   1.860  13.069 -0.1815  0.9135  0.4162
14572TIP3   OH265130   2.602   5.872  11.255 -0.2262  0.0192 -0.3481
14572TIP3    H165131   2.615   5.829  11.339  0.7143  0.3678 -0.3015
14572TIP3    H265132   2.531   5.934  11.270 -0.8450 -0.7319 -0.1260
14573TIP3   OH265133   0.727   1.827  15.033 -1.1030  0.0062 -0.8879
14573TIP3    H165134   0.651   1.829  14.975 -1.2762  0.9347 -0.6469
14573TIP3    H265135   0.780   1.754  15.001  0.2467  2.1635 -4.0537
14574TIP3   OH265136   4.707   3.795   4.525  0.1172  0.5083 -0.4305
14574TIP3    H165137   4.786   3.743   4.512  0.0558  0.4537 -0.5808
14574TIP3    H265138   4.710   3.861   4.455  0.4432  1.0118  0.0432
14575TIP3   OH265139   4.566   2.068   0.547  0.2074  0.4095  0.5550
14575TIP3    H165140   4.557   1.976   0.523  1.7261 -0.1749  2.0260
14575TIP3    H265141   4.506   2.114   0.488 -1.5438 -1.6225  0.6097
14576TIP3   OH265142   5.423   6.254   3.660 -0.5092 -0.7301 -0.7371
14576TIP3    H165143   5.359   6.304   3.712  0.9136  1.2791 -0.8092
14576TIP3    H265144   5.371   6.213   3.591 -1.9223 -0.4372  0.1050
14577TIP3   OH265145   5.478   1.997   6.269  0.8676 -0.9720  0.6698
14577TIP3    H165146   5.509   1.911   6.240  0.8172 -0.1179 -2.2013
14577TIP3    H265147   5.382   1.990   6.266  0.8574 -0.9073  0.8068
14578TIP3   OH265148   0.839   0.802   0.627  0.2020 -0.4324  0.6309
14578TIP3    H165149   0.776   0.734   0.604  0.4136 -0.5224  0.3132
14578TIP3    H265150   0.834   0.865   0.554  1.1499 -0.9107  0.1310
14579TIP3   OH265151   6.765   2.283  11.775 -0.0655 -0.8331 -0.5907
14579TIP3    H165152   6.816   2.256  11.699 -0.2397 -1.9087 -0.3514
14579TIP3    H265153   6.712   2.357  11.745  1.0709 -0.1814 -1.0441
14580TIP3   OH265154   2.468   5.122  10.852 -0.2042 -0.1817 -0.3719
14580TIP3    H165155   2.543   5.101  10.795  0.6434 -0.5369  0.8317
14580TIP3    H265156   2.420   5.190  10.804  0.4341 -0.5171 -1.5363
14581TIP3   OH265157   6.289   0.848  16.514 -0.6194  0.7067  0.3575
14581TIP3    H165158   6.349   0.780  16.547 -0.0977  0.3373 -1.2875
14581TIP3    H265159   6.318   0.928  16.559  1.7597  0.7311 -1.0256
14582TIP3   OH265160   3.995   3.031   2.188  0.0189  0.3762  0.2044
14582TIP3    H165161   4.000   2.997   2.098 -0.0894  1.1630 -0.1072
14582TIP3    H265162   3.905   3.060   2.197 -0.8595 -2.4739  1.6211
14583TIP3   OH265163   0.155   6.415   0.725  0.0127  0.2140  0.6961
14583TIP3    H165164   0.133   6.323   0.743  0.3024  0.4150  2.1865
14583TIP3    H265165   0.211   6.411   0.647  0.7060 -0.9604  1.2203
14584TIP3   OH265166   0.264   1.937   5.162  0.2061 -0.1414  0.1459
14584TIP3    H165167   0.349   1.901   5.187  1.3574  1.7384 -0.8370
14584TIP3    H265168   0.284   2.002   5.095 -2.1047 -0.1921 -0.6670
14585TIP3   OH265169   3.912   5.939   1.050 -0.1619  0.0566  0.2634
14585TIP3    H165170   3.949   5.852   1.062 -0.1099  0.1261  0.6121
14585TIP3    H265171   3.851   5.929   0.977 -0.4396 -0.3607  0.5451
14586TIP3   OH265172   3.242   5.470   3.471 -0.3133 -0.5772 -0.4403
14586TIP3    H165173   3.284   5.555   3.485  0.4303 -0.8905 -0.7190
14586TIP3    H265174   3.237   5.430   3.558  0.4739 -0.7641 -0.4725
14587TIP3   OH265175   2.190   2.327  11.380 -0.4416 -0.0287 -0.4078
14587TIP3    H165176   2.253   2.256  11.373  0.6917  0.9463 -0.3264
14587TIP3    H265177   2.235   2.404  11.345 -0.8101  1.1518  1.5596
14588TIP3   OH265178   1.352   1.115   3.523  0.1370 -0.0441  0.2948
14588TIP3    H165179   1.317   1.134   3.436 -1.2193  0.0491  0.8446
14588TIP3    H265180   1.316   1.183   3.579  3.2745  1.6871  0.4739
14589TIP3   OH265181   5.556   4.495  15.063 -0.3625  0.1220  0.3621
14589TIP3    H165182   5.484   4.551  15.090 -0.7211  0.1892 -0.7114
14589TIP3    H265183   5.620   4.554  15.023  0.2631  0.0516  1.2219
14590TIP3   OH265184   2.844   5.078  16.596 -0.5151  0.0576  0.0994
14590TIP3    H165185   2.927   5.031  16.600 -0.3716  0.3163  0.1685
14590TIP3    H265186   2.777   5.010  16.608 -0.2788  0.0565  1.6656
14591TIP3   OH265187   4.804   3.697  14.060 -0.1827 -0.7525 -1.0731
14591TIP3    H165188   4.820   3.608  14.090  0.7631 -1.1022 -2.5110
14591TIP3    H265189   4.709   3.703  14.052 -0.4903 -0.6899  1.6817
14592TIP3   OH265190   3.030   5.546  11.839  0.2351  0.0568 -0.4278
14592TIP3    H165191   3.096   5.501  11.787  0.9951 -0.4759  0.9403
14592TIP3    H265192   2.998   5.616  11.782  1.4372 -0.1468 -1.3978
14593TIP3   OH265193   1.446   2.489  11.683 -0.6031 -0.2506 -0.3247
14593TIP3    H165194   1.404   2.407  11.710 -1.1013 -0.7932 -2.5255
14593TIP3    H265195   1.374   2.550  11.668 -0.3916 -0.0824 -0.6952
14594TIP3   OH265196   4.190   5.966   1.650 -0.3268  0.3324  0.0528
14594TIP3    H165197   4.126   6.015   1.598  0.3247 -1.3435 -2.4862
14594TIP3    H265198   4.242   5.918   1.586 -0.7224 -3.4753  2.2794
14595TIP3   OH265199   0.325   4.118   0.977  0.2240  0.2806  0.2003
14595TIP3    H165200   0.348   4.072   0.897 -1.6496 -0.0273 -0.1935
14595TIP3    H265201   0.359   4.063   1.047 -2.1422 -1.8836 -0.2477
14596TIP3   OH265202   3.235   4.849   6.048 -0.2048 -0.2133  0.5434
14596TIP3    H165203   3.175   4.831   5.976 -0.4600  0.6650  0.5226
14596TIP3    H265204   3.322   4.851   6.007 -0.3793  0.5963  0.1957
14597TIP3   OH265205   0.680   5.914  13.404 -0.6032  0.5694  0.2763
14597TIP3    H165206   0.643   5.833  13.440  1.0769 -0.3884 -0.0648
14597TIP3    H265207   0.753   5.935  13.463 -0.1562  1.0689 -0.4431
14598TIP3   OH265208   1.890   2.708   2.345 -0.4013 -0.1717  0.8926
14598TIP3    H165209   1.853   2.621   2.358  0.5747 -0.4629  1.9521
14598TIP3    H265210   1.979   2.692   2.313 -0.8110  0.4908 -0.6830
14599TIP3   OH265211   5.874   2.419   1.262  0.1602  0.6643 -0.0833
14599TIP3    H165212   5.857   2.381   1.175 -0.6772 -1.8832  1.1015
14599TIP3    H265213   5.855   2.348   1.323 -0.0331  2.6333  2.2674
14600TIP3   OH265214   3.701   2.789   4.459  0.1077  0.1822 -0.5039
14600TIP3    H165215   3.715   2.868   4.408 -1.4376  1.4865  0.9561
14600TIP3    H265216   3.611   2.762   4.438  0.4056 -0.8331 -0.5283
14601TIP3   OH265217   0.368   5.113  16.735  0.0621  0.0476 -0.2575
14601TIP3    H165218   0.287   5.127  16.784 -1.0023  0.4357 -2.0488
14601TIP3    H265219   0.369   5.019  16.717 -0.4944  0.1859 -1.0447
14602TIP3   OH265220   1.909   1.908  14.550 -0.3282 -0.1149 -0.1423
14602TIP3    H165221   1.998   1.938  14.568 -1.0162  1.1565  1.3521
14602TIP3    H265222   1.872   1.892  14.637 -2.1145  1.0975 -0.6356
14603TIP3   OH265223   4.490   1.452  14.077  0.1057  0.1675 -0.2056
14603TIP3    H165224   4.464   1.361  14.063  0.7429 -0.1636  0.6921
14603TIP3    H265225   4.577   1.447  14.114 -0.1479  1.1254  0.5711
14604TIP3   OH265226   2.266   0.191   2.101  0.3812 -0.2616 -0.2026
14604TIP3    H165227   2.249   0.098   2.089  0.0650  0.0230 -2.6904
14604TIP3    H265228   2.291   0.201   2.193  1.7358 -2.9892 -0.1899
14605TIP3   OH265229   1.716   3.483  10.946 -0.0695  0.0400  0.1774
14605TIP3    H165230   1.772   3.559  10.938  3.0204 -2.1082 -0.5077
14605TIP3    H265231   1.724   3.456  11.037 -0.2998 -0.0754  0.1645
14606TIP3   OH265232   1.373   5.943   3.651 -0.2676 -0.0908  0.4191
14606TIP3    H165233   1.415   6.024   3.621 -2.0479 -0.1450 -2.5432
14606TIP3    H265234   1.413   5.874   3.598  0.8982 -1.1965  2.5953
14607TIP3   OH265235   1.458   0.208  11.447 -0.0353  0.2245  0.1231
14607TIP3    H165236   1.382   0.156  11.421 -0.1557  1.0446 -1.2960
14607TIP3    H265237   1.426   0.261  11.520  0.4625 -2.5357  2.5216
14608TIP3   OH265238   0.324   0.954  14.084  0.3427  0.7709  0.8370
14608TIP3    H165239   0.254   0.896  14.115  2.3370 -1.5526  1.3194
14608TIP3    H265240   0.297   0.978  13.995 -2.2270  2.0709  1.8498
14609TIP3   OH265241   2.363   5.994   3.835 -0.0461 -0.0265  0.6616
14609TIP3    H165242   2.366   6.072   3.890  0.5557 -0.2487  0.9617
14609TIP3    H265243   2.382   6.026   3.747 -0.3764  0.2423  0.6863
14610TIP3   OH265244   4.191   1.442  15.459 -0.6352 -0.0863 -0.0977
14610TIP3    H165245   4.179   1.355  15.497 -0.0139  0.7972  2.3077
14610TIP3    H265246   4.270   1.435  15.407  0.0155 -0.7416  0.9448
14611TIP3   OH265247   6.376   2.176   0.626 -0.3551  0.1475  0.4527
14611TIP3    H165248   6.390   2.173   0.532 -0.3935 -2.3346  0.4560
14611TIP3    H265249   6.295   2.127   0.640 -2.4459  3.6110  1.5357
14612TIP3   OH265250   1.090   1.770  13.594  0.2911  0.0677  0.5582
14612TIP3    H165251   1.117   1.764  13.686  1.0051 -0.8325  0.3105
14612TIP3    H265252   1.157   1.824  13.552  0.1481  0.2068  0.5122
14613TIP3   OH265253   2.206   6.723  13.274 -0.4403  0.6812 -0.0584
14613TIP3    H165254   2.212   6.632  13.246 -0.3782  0.7792 -0.3732
14613TIP3    H265255   2.148   6.764  13.209 -0.6689  0.8070  0.2272
14614TIP3   OH265256   5.189   0.074  13.762 -0.2309  0.4061 -0.0790
14614TIP3    H165257   5.269   0.127  13.768 -0.7222  1.0711  1.0456
14614TIP3    H265258   5.219  -0.016  13.767  0.3857  0.6668  1.6459
14615TIP3   OH265259   5.247   3.592   5.370  0.5126  0.2409 -0.3486
14615TIP3    H165260   5.284   3.507   5.396  0.3431  0.4342  0.5609
14615TIP3    H265261   5.160   3.572   5.336  0.2743  0.1018  0.3405
14616TIP3   OH265262   1.295   5.826  14.233 -0.3405 -0.8972 -0.0521
14616TIP3    H165263   1.339   5.894  14.283 -0.2575 -1.5914  0.8432
14616TIP3    H265264   1.209   5.817  14.275 -0.0841 -1.8327  0.3068
14617TIP3   OH265265   0.223   3.883  12.150  0.1876 -0.4182  0.4032
14617TIP3    H165266   0.274   3.944  12.097 -0.6797 -0.7981 -0.9135
14617TIP3    H265267   0.162   3.939  12.198 -0.7942 -0.2487 -1.0084
14618TIP3   OH265268   2.315   2.083   2.120  0.0492 -0.2549 -0.4133
14618TIP3    H165269   2.353   2.167   2.147  2.4490 -0.4375 -2.8999
14618TIP3    H265270   2.318   2.030   2.199  0.3122  1.3513  0.7196
14619TIP3   OH265271   3.071   4.515   4.817  0.5394 -0.6810 -0.1050
14619TIP3    H165272   2.999   4.470   4.862 -0.4166 -1.1646 -2.0122
14619TIP3    H265273   3.141   4.451   4.812  1.0387 -0.3100  1.4848
14620TIP3   OH265274   6.221   3.125  16.879  0.0629  0.4038  0.3274
14620TIP3    H165275   6.302   3.088  16.915  0.9326  1.5272 -0.3924
14620TIP3    H265276   6.213   3.211  16.921 -0.2123  0.7114 -0.3288
14621TIP3   OH265277   0.714   6.054  13.119 -0.6356 -0.1798 -0.0413
14621TIP3    H165278   0.682   6.010  13.040  0.8236 -1.6140  0.0939
14621TIP3    H265279   0.696   5.991  13.189  1.4886 -0.6168  0.1678
14622TIP3   OH265280   5.212   4.924   0.941  0.1183 -0.3709  0.1659
14622TIP3    H165281   5.215   4.843   0.892 -0.9690 -0.1839 -0.2393
14622TIP3    H265282   5.167   4.986   0.884 -1.6084 -0.2741  1.5316
14623TIP3   OH265283   1.439   6.308   4.472  0.0540  0.1530  0.0040
14623TIP3    H165284   1.531   6.321   4.496  0.0781  1.0333 -0.5154
14623TIP3    H265285   1.437   6.323   4.377 -0.5082 -0.5810 -0.1175
14624TIP3   OH265286   4.969   3.649  13.549  0.3737 -0.0511  0.0082
14624TIP3    H165287   4.928   3.579  13.599 -0.8587  0.5702 -0.0994
14624TIP3    H265288   4.938   3.730  13.589  0.9676  0.4440 -0.4997
14625TIP3   OH265289   4.246   4.006  16.406  0.3314 -0.5500  0.6969
14625TIP3    H165290   4.201   4.078  16.360 -0.3914 -0.1482  1.9770
14625TIP3    H265291   4.176   3.942  16.422  0.5671 -0.6665  1.2564
14626TIP3   OH265292   4.759   0.982   0.315  0.1071 -0.0649  0.2275
14626TIP3    H165293   4.757   1.055   0.253  0.7566  0.2258  0.5371
14626TIP3    H265294   4.814   0.916   0.273 -0.9194 -0.6129 -0.2933
14627TIP3   OH265295   6.128   5.556  11.229 -0.3792 -0.1328  0.4940
14627TIP3    H165296   6.080   5.625  11.274 -0.4502 -0.1185  0.3973
14627TIP3    H265297   6.115   5.478  11.283 -0.5361 -0.1358  0.4521
14628TIP3   OH265298   3.500   3.266   2.668 -0.3893 -0.3724 -0.3804
14628TIP3    H165299   3.436   3.206   2.629 -0.7047  1.5777 -3.1359
14628TIP3    H265300   3.473   3.353   2.639  0.8353  1.0516  2.3362
14629TIP3   OH265301   6.481   1.682  17.180 -0.2589  0.1691  0.2181
14629TIP3    H165302   6.534   1.728  17.245 -0.8249 -0.0964  0.8868
14629TIP3    H265303   6.526   1.599  17.167 -1.1848 -0.6236  1.7904
14630TIP3   OH265304   2.369   3.737  15.691  0.1900 -0.2763  0.5701
14630TIP3    H165305   2.280   3.736  15.727 -0.1849  0.8544 -0.2549
14630TIP3    H265306   2.366   3.802  15.621  1.6429 -0.3153  0.4302
14631TIP3   OH265307   6.145   5.337   3.710 -0.2168 -0.0542  0.2688
14631TIP3    H165308   6.204   5.265   3.731 -2.0580 -1.9562 -0.6505
14631TIP3    H265309   6.058   5.304   3.731 -1.3429  1.0993 -2.0684
14632TIP3   OH265310   0.403   4.459   0.041 -0.1038  0.2919  0.3499
14632TIP3    H165311   0.355   4.408   0.106  0.0557 -0.3155 -0.0020
14632TIP3    H265312   0.437   4.534   0.090 -0.4773  0.1492  0.8374
14633TIP3   OH265313   4.220   6.491  14.754  0.2601 -0.2484  0.8691
14633TIP3    H165314   4.162   6.418  14.733  1.5488 -0.8976 -0.6805
14633TIP3    H265315   4.189   6.564  14.700  1.2893 -0.8319 -0.6019
14634TIP3   OH265316   1.898   6.619  12.831 -0.2568 -0.2545  0.3725
14634TIP3    H165317   1.878   6.529  12.856  1.0582 -0.4215  0.9059
14634TIP3    H265318   1.919   6.614  12.738 -0.5451 -0.4283  0.3152
14635TIP3   OH265319   4.449   0.099  16.925  0.6074  0.3984  0.2093
14635TIP3    H165320   4.450   0.166  16.856  0.5506  1.0987  0.8725
14635TIP3    H265321   4.379   0.040  16.900  0.3988  0.8082 -0.1918
14636TIP3   OH265322   6.664   1.030  13.154 -0.3752 -0.4679 -0.2991
14636TIP3    H165323   6.700   0.988  13.076  0.5972 -1.4634  0.6357
14636TIP3    H265324   6.689   1.122  13.146 -0.7690 -0.4442 -1.4072
14637TIP3   OH265325   1.362   5.204  16.822  0.6371 -0.2889 -0.3344
14637TIP3    H165326   1.331   5.267  16.887 -1.5121 -1.5715  0.0069
14637TIP3    H265327   1.306   5.218  16.746  0.9236 -0.9894 -0.6877
14638TIP3   OH265328   4.790   4.113  16.862  0.4813 -0.1702 -0.4426
14638TIP3    H165329   4.738   4.180  16.817  0.0260  0.0595  0.4024
14638TIP3    H265330   4.791   4.039  16.801 -0.2344  0.0852 -0.7818
14639TIP3   OH265331   5.668   3.560  14.792 -0.3009 -0.7137 -0.2626
14639TIP3    H165332   5.710   3.606  14.719  0.0312  0.5011  0.6445
14639TIP3    H265333   5.737   3.552  14.858 -1.2893  0.8805  1.0697
14640TIP3   OH265334   3.086   3.144  12.234  0.1436 -0.1676 -0.2541
14640TIP3    H165335   3.052   3.191  12.157 -0.1152 -0.2399 -0.1845
14640TIP3    H265336   3.033   3.177  12.307 -0.4766 -1.0368 -0.3001
14641TIP3   OH265337   3.886   2.265  14.101  0.2944 -0.1788 -0.1157
14641TIP3    H165338   3.797   2.265  14.135 -0.3268  0.3278 -1.6276
14641TIP3    H265339   3.884   2.201  14.030  0.7052  0.9058 -1.1407
14642TIP3   OH265340   2.270   6.229  14.773  0.0722 -0.1948  0.1754
14642TIP3    H165341   2.275   6.170  14.849  2.4686 -2.3630 -1.4819
14642TIP3    H265342   2.349   6.283  14.780  0.2967 -0.3955 -0.7287
14643TIP3   OH265343   5.415   5.651   2.159  0.0086  1.3650 -0.0332
14643TIP3    H165344   5.370   5.593   2.220  0.2912  1.3287  0.1417
14643TIP3    H265345   5.489   5.600   2.127  0.2533  1.6244  0.1169
14644TIP3   OH265346   4.831   1.657   3.626 -0.1774  0.1432  0.3498
14644TIP3    H165347   4.861   1.566   3.638  0.7252  0.3592 -0.2329
14644TIP3    H265348   4.759   1.666   3.689 -0.5951 -1.1204  0.0878
14645TIP3   OH265349   6.691   4.710  14.754  0.5305  0.2300  1.3431
14645TIP3    H165350   6.618   4.737  14.809 -0.8709 -0.2515 -0.1926
14645TIP3    H265351   6.666   4.624  14.721  1.5193  0.3019  0.3368
14646TIP3   OH265352   5.090   6.758   4.891  0.3293 -0.2119  0.6949
14646TIP3    H165353   5.179   6.784   4.867 -0.1424  0.5000 -0.3726
14646TIP3    H265354   5.091   6.663   4.887  0.9107 -0.1904  0.1505
14647TIP3   OH265355   2.059   4.581   4.728  0.1420  0.1492  0.2952
14647TIP3    H165356   2.116   4.609   4.657 -1.2028  0.1542 -0.8375
14647TIP3    H265357   2.081   4.489   4.743  0.0286 -0.0293 -0.5722
14648TIP3   OH265358   1.984   6.419   1.731 -0.3522  0.1871 -0.0795
14648TIP3    H165359   1.998   6.489   1.668 -1.8931 -0.9396 -1.7621
14648TIP3    H265360   2.035   6.346   1.697 -2.2754 -0.8590 -0.8408
14649TIP3   OH265361   2.986   4.069  16.644 -0.0989  0.0965  0.4609
14649TIP3    H165362   3.063   4.101  16.598  0.2122 -2.2449 -0.8519
14649TIP3    H265363   2.987   4.113  16.729  0.2294  3.3503 -1.1013
14650TIP3   OH265364   4.761   1.406  12.711 -0.7005 -0.1454  0.0329
14650TIP3    H165365   4.791   1.448  12.630 -1.0791 -1.7560 -0.9905
14650TIP3    H265366   4.836   1.410  12.769 -0.1660  0.3694 -0.6729
14651TIP3   OH265367   1.071   2.934  16.712  0.3213  0.1541  0.2955
14651TIP3    H165368   1.046   2.973  16.628 -3.1609 -1.4921  0.3719
14651TIP3    H265369   1.027   2.988  16.777  1.9419  0.6569  1.0107
14652TIP3   OH265370   5.647   3.053   2.202 -0.0505  0.1384 -0.4939
14652TIP3    H165371   5.724   3.101   2.231  0.1094  0.1106 -0.8679
14652TIP3    H265372   5.584   3.063   2.273  0.2192  0.3461 -0.2836
14653TIP3   OH265373   2.128   5.084   5.529 -0.2291  0.0685  0.1745
14653TIP3    H165374   2.086   5.103   5.613 -0.8236 -1.0501  0.1506
14653TIP3    H265375   2.220   5.071   5.550  0.2498  2.8927  0.1807
14654TIP3   OH265376   4.433   1.126   6.325  0.6797 -0.2966 -0.5992
14654TIP3    H165377   4.448   1.159   6.414 -0.6884 -2.7766  0.6484
14654TIP3    H265378   4.508   1.069   6.308  0.5947 -0.3606 -0.7605
14655TIP3   OH265379   0.875   1.563  13.101 -0.4831  0.3858  0.2482
14655TIP3    H165380   0.963   1.562  13.064 -0.1750 -0.8796  0.9375
14655TIP3    H265381   0.888   1.538  13.193 -1.7751 -2.3286 -0.2227
14656TIP3   OH265382   5.378   3.651   1.575 -0.7002 -0.2742 -0.0651
14656TIP3    H165383   5.400   3.664   1.668  0.1397 -0.3034 -0.2518
14656TIP3    H265384   5.396   3.559   1.559  2.1603  0.3470 -0.9984
14657TIP3   OH265385   0.567   6.660  12.414 -0.4422 -0.8004 -0.2173
14657TIP3    H165386   0.565   6.655  12.510  0.0022 -0.2312 -0.1707
14657TIP3    H265387   0.525   6.579  12.385  1.6374 -2.2277  0.4586
14658TIP3   OH265388   4.938   4.106  15.473 -0.1714 -0.0153  0.0590
14658TIP3    H165389   4.850   4.134  15.500  0.3763  0.9272  0.9439
14658TIP3    H265390   4.997   4.155  15.530  0.9418 -0.4925 -0.6542
14659TIP3   OH265391   4.857   5.947   5.760  0.3642  0.0280 -0.3650
14659TIP3    H165392   4.778   5.990   5.726  0.4919  0.0893 -0.5810
14659TIP3    H265393   4.897   5.905   5.684  0.6253  0.1303 -0.2840
14660TIP3   OH265394   2.332   6.684  12.330 -0.2697  0.2300  0.1732
14660TIP3    H165395   2.251   6.640  12.356  0.1327 -0.6084  0.0444
14660TIP3    H265396   2.388   6.678  12.407 -0.2253  0.5588  0.1680
14661TIP3   OH265397   1.939   3.004   1.931 -0.0174 -0.3025 -0.4145
14661TIP3    H165398   1.933   3.029   1.839 -2.4843 -0.1154 -0.2644
14661TIP3    H265399   1.907   2.914   1.934  1.5532 -0.8735  0.0850
14662TIP3   OH265400   4.752   3.965  16.228 -0.0936 -0.1250 -0.1461
14662TIP3    H165401   4.706   4.008  16.155 -0.2939 -0.7820 -0.4082
14662TIP3    H265402   4.830   3.926  16.188 -0.7593 -1.4210 -0.2209
14663TIP3   OH265403   3.746   6.108   2.421  0.3559 -0.2281 -0.1969
14663TIP3    H165404   3.792   6.185   2.389  0.9020  0.2237  1.5499
14663TIP3    H265405   3.814   6.056   2.464 -0.4697 -0.3074  1.0667
14664TIP3   OH265406   6.075   5.682  15.226  0.4902  0.1300  0.0054
14664TIP3    H165407   6.090   5.772  15.256 -0.2640 -0.3624  2.0285
14664TIP3    H265408   6.159   5.638  15.238  0.4477  0.1831  0.5159
14665TIP3   OH265409   4.958   2.289   4.847 -0.9892  0.0041 -0.7317
14665TIP3    H165410   4.866   2.274   4.826 -0.8365 -0.0737 -1.3830
14665TIP3    H265411   4.963   2.282   4.942 -1.5564 -0.5423 -0.7364
14666TIP3   OH265412   6.763   6.317  13.456  0.0892 -0.0354  0.3283
14666TIP3    H165413   6.847   6.349  13.424  0.5393  0.0228  1.4945
14666TIP3    H265414   6.773   6.315  13.551 -1.3064  0.1793  0.5061
14667TIP3   OH265415   4.023   6.350  13.980  0.0374 -0.3501  0.2248
14667TIP3    H165416   3.931   6.364  13.955 -0.1137 -1.1070  0.3438
14667TIP3    H265417   4.063   6.437  13.974 -0.5751 -0.1014 -0.2877
14668TIP3   OH265418   4.425   4.663  15.488 -0.6875  0.5977  0.5247
14668TIP3    H165419   4.476   4.627  15.561  1.1878 -1.2843 -1.5386
14668TIP3    H265420   4.401   4.751  15.517  1.3563  0.5514  2.7480
14669TIP3   OH265421   3.904   3.097   0.634 -0.2891  0.4600  0.2455
14669TIP3    H165422   3.825   3.108   0.687  0.1918  0.5474  0.9600
14669TIP3    H265423   3.952   3.026   0.678  0.8746  1.5921  0.8680
14670TIP3   OH265424   2.143   1.939   4.114 -0.1288  0.0323 -0.2535
14670TIP3    H165425   2.170   1.952   4.205 -3.7331 -0.6724  1.1304
14670TIP3    H265426   2.157   2.023   4.072 -0.8109  1.2293  1.7543
14671TIP3   OH265427   3.252   0.961   6.084  0.0974 -0.3597 -0.1440
14671TIP3    H165428   3.298   1.043   6.065 -1.7906  0.9889  0.8669
14671TIP3    H265429   3.320   0.904   6.121  1.5777  0.4996 -1.4057
14672TIP3   OH265430   2.252   4.937   3.379 -0.0521  0.5419  0.7489
14672TIP3    H165431   2.194   5.009   3.356 -0.5318 -0.0249  0.1714
14672TIP3    H265432   2.319   4.937   3.310 -0.4247  0.0309  0.3771
14673TIP3   OH265433   2.942   1.834   3.591  0.1601 -0.3852 -0.7566
14673TIP3    H165434   2.873   1.779   3.554  0.2772 -1.9824  1.2507
14673TIP3    H265435   3.022   1.805   3.547 -0.0023 -0.6825 -0.8570
14674TIP3   OH265436   3.189   0.565   2.286  0.6157  0.1422 -0.5348
14674TIP3    H165437   3.266   0.518   2.253  0.5341 -0.7823  0.5353
14674TIP3    H265438   3.221   0.617   2.359  0.2107 -0.3337 -0.0118
14675TIP3   OH265439   5.928   3.815  12.441  0.3257 -0.3119  0.0676
14675TIP3    H165440   5.867   3.889  12.444 -0.0658 -0.6416  1.9249
14675TIP3    H265441   5.935   3.793  12.348 -2.3334 -0.1870 -0.2528
14676TIP3   OH265442   1.431   2.451  11.319 -0.3597 -0.6827 -0.4461
14676TIP3    H165443   1.488   2.495  11.255 -1.2365  0.5383 -0.4194
14676TIP3    H265444   1.479   2.372  11.343  0.5397 -0.5535 -1.7091
14677TIP3   OH265445   3.032   5.940   2.938 -0.9384 -0.1054 -0.4267
14677TIP3    H165446   2.972   6.013   2.919 -1.4562 -0.6751 -1.0367
14677TIP3    H265447   3.046   5.899   2.853 -0.1407 -0.3356 -0.1870
14678TIP3   OH265448   1.045   3.819  15.862  0.4944  0.5169 -0.0987
14678TIP3    H165449   1.131   3.791  15.893  0.8189  1.0605 -0.4803
14678TIP3    H265450   1.056   3.826  15.767  0.1291  0.9288 -0.1096
14679TIP3   OH265451   0.702   5.518  14.888  0.5024  0.4355  0.2587
14679TIP3    H165452   0.643   5.564  14.948 -0.1715  0.4373 -0.3964
14679TIP3    H265453   0.690   5.425  14.910 -1.6088  0.2197 -1.4773
14680TIP3   OH265454   5.006   3.289  12.916  0.5596 -0.3384  0.0484
14680TIP3    H165455   4.975   3.249  12.997  0.1033  0.4863  0.2963
14680TIP3    H265456   5.089   3.246  12.898  0.1690 -1.2660  0.3923
14681TIP3   OH265457   5.840   4.148  12.855 -0.3016  0.0412 -0.2335
14681TIP3    H165458   5.797   4.197  12.785 -0.5346  0.1648 -0.0040
14681TIP3    H265459   5.771   4.093  12.891  0.2132 -1.2973 -1.2248
14682TIP3   OH265460   3.501   6.405  16.063 -0.2835  0.3735 -0.0013
14682TIP3    H165461   3.438   6.430  16.130 -1.1220 -0.6922 -0.3674
14682TIP3    H265462   3.470   6.320  16.031  0.3840  0.6121 -1.3754
14683TIP3   OH265463   4.369   1.679  15.053  0.4391  0.2291 -0.4123
14683TIP3    H165464   4.425   1.615  15.008  1.2121  0.3593  0.3326
14683TIP3    H265465   4.312   1.626  15.109 -1.7137 -0.0659 -2.7133
14684TIP3   OH265466   3.157   4.410  12.571  0.0489 -0.0707 -0.3871
14684TIP3    H165467   3.151   4.464  12.492  0.1739  0.7932  0.1807
14684TIP3    H265468   3.250   4.408  12.592  0.0665 -0.6549 -0.4946
14685TIP3   OH265469   6.230   2.251  16.996  0.2318  0.1913  0.2889
14685TIP3    H165470   6.301   2.299  16.954 -0.3815  0.5581 -0.3444
14685TIP3    H265471   6.166   2.236  16.926  0.0577 -0.8741  0.6483
14686TIP3   OH265472   3.080   0.049  16.532 -0.2568 -0.4893  0.8412
14686TIP3    H165473   3.071   0.019  16.441 -0.6156 -0.2285  0.7871
14686TIP3    H265474   3.104   0.141  16.523 -0.6568 -0.3674  1.0140
14687TIP3   OH265475   6.371   5.357   4.029  0.5734 -0.4737 -0.6119
14687TIP3    H165476   6.405   5.299   4.097 -0.3846  0.3851  0.6555
14687TIP3    H265477   6.276   5.347   4.035  0.4714 -0.5908 -2.0528
14688TIP3   OH265478   5.353   3.507   0.209  0.0422  0.0697  1.0709
14688TIP3    H165479   5.272   3.525   0.161  0.0342 -1.2875  0.5161
14688TIP3    H265480   5.397   3.439   0.157  0.4704 -0.8046  2.5192
14689TIP3   OH265481   1.107   1.108  14.273  0.2358  0.0126 -0.3240
14689TIP3    H165482   1.153   1.036  14.316  0.3652 -0.0500 -0.5640
14689TIP3    H265483   1.015   1.096  14.296 -0.0868 -1.5105 -2.1302
14690TIP3   OH265484   0.652   0.691   1.706  1.0717 -0.3100 -0.8089
14690TIP3    H165485   0.739   0.716   1.674  1.1554  3.0656  1.5168
14690TIP3    H265486   0.594   0.760   1.673 -0.2737 -1.2101 -0.3886
14691TIP3   OH265487   1.026   4.816  10.410  0.1569 -0.4379  0.3033
14691TIP3    H165488   0.972   4.856  10.478  0.3693  0.4106 -0.0209
14691TIP3    H265489   0.994   4.854  10.329 -0.0725 -1.4243 -0.0890
14692TIP3   OH265490   3.628   0.795  16.471 -0.1190 -0.2235 -0.2968
14692TIP3    H165491   3.580   0.713  16.470  0.1420 -0.6695  4.0027
14692TIP3    H265492   3.592   0.843  16.546  0.8050  2.9244 -1.7109
14693TIP3   OH265493   5.263   3.930  16.895  0.1177 -0.5883 -0.0022
14693TIP3    H165494   5.352   3.929  16.859  0.1646 -1.5640  0.1157
14693TIP3    H265495   5.248   4.022  16.919 -0.2121  0.3224 -3.1883
14694TIP3   OH265496   6.486   5.928   5.592  0.3169  0.5914  0.1809
14694TIP3    H165497   6.506   6.004   5.537  1.1572 -1.1367 -2.0385
14694TIP3    H265498   6.404   5.894   5.558  0.3783 -0.0000  0.6021
14695TIP3   OH265499   1.552   4.246  14.611  0.0064  0.5220 -0.4935
14695TIP3    H165500   1.496   4.174  14.581 -0.5647  0.6183  0.2956
14695TIP3    H265501   1.616   4.203  14.668 -0.5216  0.6572  0.2239
14696TIP3   OH265502   3.041   2.280  15.483  0.1807 -0.2148  0.1457
14696TIP3    H165503   3.042   2.191  15.520  0.8203 -0.6153 -0.8127
14696TIP3    H265504   3.129   2.313  15.497  0.1020  0.0648 -0.0168
14697TIP3   OH265505   3.028   5.047   0.376 -0.5430 -0.2670 -0.1189
14697TIP3    H165506   3.092   5.083   0.436 -0.9948  1.1100 -0.4313
14697TIP3    H265507   3.029   4.953   0.393  0.1989 -0.0409  1.1810
14698TIP3   OH265508   3.758   2.412   3.366  0.2957 -0.2799  0.0890
14698TIP3    H165509   3.757   2.504   3.337 -0.4525  0.4693  2.3403
14698TIP3    H265510   3.667   2.390   3.383  0.4428 -1.5415 -0.5941
14699TIP3   OH265511   6.046   4.930  10.734 -0.8851 -0.1723  0.2033
14699TIP3    H165512   6.141   4.938  10.744 -0.7853 -1.6796  0.7269
14699TIP3    H265513   6.033   4.916  10.641 -0.6029  0.1122  0.1187
14700TIP3   OH265514   2.706   2.468  10.507  0.1164  0.5391 -0.6745
14700TIP3    H165515   2.622   2.488  10.464 -0.8177  0.5429  1.0531
14700TIP3    H265516   2.694   2.380  10.543 -0.3678  1.6620  2.1992
14701TIP3   OH265517   6.286   0.345   6.747 -0.4403 -0.6014 -0.7171
14701TIP3    H165518   6.375   0.359   6.715 -0.6686 -1.1428 -1.6356
14701TIP3    H265519   6.273   0.251   6.740 -1.0971 -0.5204 -0.6312
14702TIP3   OH265520   2.073   3.944   0.867 -0.7126 -0.3695 -0.6319
14702TIP3    H165521   2.082   3.999   0.945 -1.3991 -0.0790 -0.7470
14702TIP3    H265522   2.065   4.007   0.795 -1.2392 -0.6150 -0.7952
14703TIP3   OH265523   0.367   6.004   2.309 -0.2564 -0.4595  0.2131
14703TIP3    H165524   0.431   5.939   2.279 -0.0478 -0.0932 -0.1485
14703TIP3    H265525   0.410   6.047   2.383 -1.1147 -1.9529  1.6373
14704TIP3   OH265526   3.593   1.532   1.020  0.0031  0.3947  0.0529
14704TIP3    H165527   3.669   1.575   0.981  0.5006 -0.5383 -0.0380
14704TIP3    H265528   3.518   1.585   0.992  0.5546  0.9489 -0.4026
14705TIP3   OH265529   1.830   4.309  15.836  0.0712  1.0790  0.4751
14705TIP3    H165530   1.760   4.268  15.786 -0.2509  0.5051  1.3714
14705TIP3    H265531   1.817   4.403  15.823 -0.2059  0.9418 -0.2397
14706TIP3   OH265532   6.249   1.182   2.616 -0.1107  0.4665  0.3180
14706TIP3    H165533   6.287   1.129   2.686  0.3277 -0.6064 -0.6917
14706TIP3    H265534   6.306   1.165   2.540 -0.7090  1.4093 -0.3650
14707TIP3   OH265535   2.820   5.201  12.966  0.5045  0.0393 -0.2590
14707TIP3    H165536   2.827   5.232  13.056 -0.4032 -4.9349  1.8831
14707TIP3    H265537   2.897   5.146  12.953 -0.8407 -1.7006 -1.3611
14708TIP3   OH265538   3.192   5.140  15.521 -0.0009  0.1262 -0.4426
14708TIP3    H165539   3.189   5.050  15.489 -0.9157  0.1754 -0.5381
14708TIP3    H265540   3.243   5.135  15.601  1.6379 -0.1313 -1.4712
14709TIP3   OH265541   0.397   0.159   6.985  0.2297 -0.3247 -0.0972
14709TIP3    H165542   0.415   0.065   6.985  3.5179  0.2004  0.2042
14709TIP3    H265543   0.394   0.183   6.892 -0.4856 -0.6646 -0.1710
14710TIP3   OH265544   1.112   2.501   0.981 -0.5329  0.2420  0.0499
14710TIP3    H165545   1.099   2.449   0.902 -0.8054 -1.2355  1.0294
14710TIP3    H265546   1.033   2.487   1.033  0.3896 -0.2732  1.3681
14711TIP3   OH265547   3.946   5.186   1.516 -0.5006  0.2123  0.6885
14711TIP3    H165548   3.870   5.195   1.458  1.4163  0.3496 -1.9458
14711TIP3    H265549   3.998   5.116   1.476  2.7963  2.8610 -0.0734
14712TIP3   OH265550   4.591   4.596  15.717  0.7440  0.1102 -0.0808
14712TIP3    H165551   4.656   4.663  15.696 -0.2817  0.9931 -0.4849
14712TIP3    H265552   4.558   4.621  15.804  0.0032  0.4234 -0.4469
14713TIP3   OH265553   6.576   1.424  13.207 -0.1671 -0.0496 -0.7551
14713TIP3    H165554   6.610   1.367  13.276 -1.3116 -0.0363 -0.1622
14713TIP3    H265555   6.482   1.430  13.224 -1.0221 -2.1889 -3.7983
14714TIP3   OH265556   1.617   3.734   3.776 -0.3312 -0.2686  0.0568
14714TIP3    H165557   1.665   3.743   3.859 -1.7822  0.0386  0.9084
14714TIP3    H265558   1.646   3.651   3.740 -0.2621 -0.7966  1.2822
14715TIP3   OH265559   0.507   3.306   1.509  0.6305 -0.4410  0.4660
14715TIP3    H165560   0.441   3.272   1.570 -1.1057  1.0544 -0.4399
14715TIP3    H265561   0.493   3.257   1.429 -0.0426  0.4765 -0.0031
14716TIP3   OH265562   3.240   0.265  13.887 -0.0484 -0.3477  0.4666
14716TIP3    H165563   3.223   0.195  13.824  0.7704  0.6731 -0.9526
14716TIP3    H265564   3.205   0.344  13.847  1.8423  0.5990  0.5496
14717TIP3   OH265565   4.153   2.558  11.934  0.5570  0.3528  0.4486
14717TIP3    H165566   4.091   2.525  11.869  1.8139  0.4248 -0.8230
14717TIP3    H265567   4.097   2.593  12.004 -0.8238 -1.2514  0.2274
14718TIP3   OH265568   3.553   3.602   2.836 -0.5559 -0.1282 -0.7988
14718TIP3    H165569   3.524   3.602   2.744  1.6902  2.0886 -1.6417
14718TIP3    H265570   3.509   3.677   2.875 -0.8879 -0.5900 -0.2830
14719TIP3   OH265571   5.541   5.034  15.075  0.3327  0.4043  0.1588
14719TIP3    H165572   5.601   5.045  15.149 -0.2941 -0.0844  0.7515
14719TIP3    H265573   5.587   5.073  15.001  1.3568  0.0893  0.6113
14720TIP3   OH265574   4.155   6.233  16.767  0.0533 -0.2908 -0.7666
14720TIP3    H165575   4.124   6.162  16.710 -0.0557 -0.3430 -0.6443
14720TIP3    H265576   4.124   6.313  16.724 -0.6427 -0.3618 -0.4184
14721TIP3   OH265577   0.304   0.825  16.052  0.0895 -0.4345 -0.3128
14721TIP3    H165578   0.392   0.792  16.035  1.3882  0.7955  3.1769
14721TIP3    H265579   0.299   0.908  16.005  0.9591 -0.2996 -0.1686
14722TIP3   OH265580   3.039   2.707  14.253 -0.1831 -0.1672 -0.6687
14722TIP3    H165581   2.944   2.698  14.249 -0.4419  0.9922  1.5997
14722TIP3    H265582   3.055   2.801  14.263  0.8751 -0.5896  3.1775
14723TIP3   OH265583   4.418   0.146   3.969 -0.0737  0.1219  0.2389
14723TIP3    H165584   4.355   0.180   4.032  0.9675  2.8600 -0.0761
14723TIP3    H265585   4.503   0.152   4.013  0.1834 -2.2834  0.1908
14724TIP3   OH265586   4.469   3.308   1.830 -0.3785  0.4811  0.1040
14724TIP3    H165587   4.427   3.326   1.747 -2.5342  1.8932  1.4152
14724TIP3    H265588   4.453   3.386   1.883  1.3789 -0.1583  1.6927
14725TIP3   OH265589   4.787   0.995   1.745  0.0834 -0.1829  0.1278
14725TIP3    H165590   4.696   0.966   1.747  0.0504 -0.1572  2.6040
14725TIP3    H265591   4.785   1.080   1.700 -0.6483 -1.3581 -2.2185
14726TIP3   OH265592   2.441   0.080  13.843  0.1291  0.0988  0.2763
14726TIP3    H165593   2.392   0.118  13.916  0.0390 -0.7074  0.6493
14726TIP3    H265594   2.520   0.045  13.884 -0.1138 -0.7234  0.0624
14727TIP3   OH265595   1.860   5.749   5.110 -0.1347  0.3483  0.3666
14727TIP3    H165596   1.903   5.667   5.085 -0.4830  0.2562  0.0708
14727TIP3    H265597   1.848   5.742   5.204 -0.6376 -0.1660  0.2667
14728TIP3   OH265598   2.523   2.594   3.435 -0.0276 -0.0454  0.2129
14728TIP3    H165599   2.589   2.583   3.504  1.0208 -0.4441 -0.8177
14728TIP3    H265600   2.472   2.671   3.462  1.0688  0.4668  0.8777
14729TIP3   OH265601   0.208   0.048   2.757 -0.0240 -0.3536 -0.2899
14729TIP3    H165602   0.181   0.136   2.783 -0.3869 -0.9704  1.5378
14729TIP3    H265603   0.139   0.018   2.698 -0.5866  0.0795  0.1400
14730TIP3   OH265604   3.451   4.517   5.265  0.4708 -0.1123  0.0427
14730TIP3    H165605   3.357   4.501   5.257  0.5020 -1.5948  2.0564
14730TIP3    H265606   3.483   4.449   5.324  2.4367  1.6956  1.2208
14731TIP3   OH265607   5.271   4.848   5.225 -0.3814 -0.2791 -0.4839
14731TIP3    H165608   5.277   4.822   5.317 -0.3865  0.9307 -0.1263
14731TIP3    H265609   5.178   4.870   5.212 -1.0390 -3.3185 -1.6163
14732TIP3   OH265610   3.035   1.871  13.816  0.1453  0.1937 -0.3178
14732TIP3    H165611   2.962   1.872  13.754  0.8195 -2.9149 -1.3336
14732TIP3    H265612   3.111   1.847  13.764  0.8894 -1.6804  1.4957
14733TIP3   OH265613   2.165   5.398   5.478 -0.0773 -0.3243 -0.3913
14733TIP3    H165614   2.108   5.402   5.401 -1.0336  0.7759  0.3554
14733TIP3    H265615   2.109   5.368   5.549  1.5517 -5.0759 -0.7171
14734TIP3   OH265616   0.638   5.256  16.765  0.1591  0.1703 -0.3663
14734TIP3    H165617   0.715   5.201  16.779  0.4982  0.9058  0.8227
14734TIP3    H265618   0.566   5.207  16.804 -0.1444 -0.8527 -2.1234
14735TIP3   OH265619   4.959   4.569   0.903 -0.0757  0.1725  0.1488
14735TIP3    H165620   4.966   4.518   0.984 -0.7972  1.2846  0.9472
14735TIP3    H265621   4.866   4.589   0.895 -0.0403 -0.0577 -1.0652
14736TIP3   OH265622   2.768   5.480  14.745  0.0985  0.7613 -0.1929
14736TIP3    H165623   2.695   5.465  14.805 -0.1503  2.4114 -0.0378
14736TIP3    H265624   2.744   5.431  14.666  0.1046 -0.8688  0.7566
14737TIP3   OH265625   1.419   5.008  12.397 -0.2556 -0.1392  0.3403
14737TIP3    H165626   1.444   4.971  12.482  1.2302  1.2947  0.5933
14737TIP3    H265627   1.324   4.997  12.393 -0.2712 -0.8965  1.8614
14738TIP3   OH265628   3.808   1.388  12.383  0.1853  0.3103 -0.4821
14738TIP3    H165629   3.892   1.415  12.344 -0.3254  2.9745  0.0939
14738TIP3    H265630   3.796   1.446  12.458 -1.4749 -1.0718  0.4063
14739TIP3   OH265631   6.247   4.512  11.306 -0.2423 -0.4428 -0.0348
14739TIP3    H165632   6.278   4.597  11.275  0.2331 -0.3741  0.6036
14739TIP3    H265633   6.311   4.449  11.273 -0.7908 -0.6063 -0.8161
14740TIP3   OH265634   0.518   5.668   5.388 -0.5570 -0.2227  0.0061
14740TIP3    H165635   0.507   5.590   5.442  0.2267 -0.2304  0.1697
14740TIP3    H265636   0.607   5.699   5.408 -0.3643 -0.0539 -1.0469
14741TIP3   OH265637   2.022   0.710  13.650  0.0232  0.1948 -0.4512
14741TIP3    H165638   1.939   0.698  13.602 -0.2642  0.9224 -0.1440
14741TIP3    H265639   2.055   0.794  13.619 -0.3799  0.8936  0.9277
14742TIP3   OH265640   1.376   1.908  14.246 -0.2704  0.1169 -0.1825
14742TIP3    H165641   1.353   1.815  14.246 -0.2008  0.1001  0.3345
14742TIP3    H265642   1.470   1.909  14.261 -0.4056  0.3045  0.6793
14743TIP3   OH265643   6.759   1.118  10.823 -0.4827 -0.3318  0.1385
14743TIP3    H165644   6.738   1.047  10.764 -3.2693  0.7630 -0.3072
14743TIP3    H265645   6.676   1.143  10.863  0.8284  0.8890  2.3733
14744TIP3   OH265646   1.093   4.914  11.473  0.3406 -0.1753  0.3424
14744TIP3    H165647   1.012   4.964  11.476  0.0520 -0.5859 -0.3151
14744TIP3    H265648   1.081   4.853  11.400  0.8304 -0.9417  0.8900
14745TIP3   OH265649   5.413   5.178  13.294  0.8010  0.5396  0.1483
14745TIP3    H165650   5.459   5.108  13.248  0.4793 -0.6826  1.5995
14745TIP3    H265651   5.350   5.211  13.229  1.1063 -0.3687 -0.6454
14746TIP3   OH265652   4.885   6.186  13.755  0.2171  0.5365  0.3006
14746TIP3    H165653   4.875   6.197  13.850  0.2520  2.7607  0.1121
14746TIP3    H265654   4.796   6.179  13.722  0.2101 -0.3951  0.4889
14747TIP3   OH265655   4.558   6.006   5.247 -0.3797 -0.3877  0.2457
14747TIP3    H165656   4.488   6.068   5.264 -0.2216 -0.3156  0.6540
14747TIP3    H265657   4.519   5.939   5.191 -0.9874 -0.7536  1.0926
14748TIP3   OH265658   2.206   6.144   3.124  0.3924 -0.2045  0.2277
14748TIP3    H165659   2.180   6.187   3.206  0.5678  3.1244 -1.2785
14748TIP3    H265660   2.298   6.122   3.136 -0.0136 -1.3488  1.4826
14749TIP3   OH265661   1.154   6.079   2.853 -0.2266 -0.1019 -0.4700
14749TIP3    H165662   1.131   6.079   2.946  1.5446 -0.6339  0.0010
14749TIP3    H265663   1.146   6.171   2.827  2.2526  0.6368  1.0366
14750TIP3   OH265664   5.460   1.237  11.377 -0.4158 -0.5145 -0.2606
14750TIP3    H165665   5.378   1.287  11.366 -0.5703 -0.6267  0.3346
14750TIP3    H265666   5.460   1.212  11.469  0.1143 -0.8333 -0.3455
14751TIP3   OH265667   3.132   3.690  12.058 -0.0020  0.3074  0.2752
14751TIP3    H165668   3.038   3.674  12.064  0.0273 -0.4204 -0.9003
14751TIP3    H265669   3.157   3.656  11.972  1.7475 -1.7207  1.4853
14752TIP3   OH265670   5.782   0.021  16.504 -0.6986 -0.6581  0.3787
14752TIP3    H165671   5.762   0.001  16.413  1.1412  0.1691 -0.2509
14752TIP3    H265672   5.864   0.070  16.501 -3.0442  3.9049  2.0689
14753TIP3   OH265673   4.758   1.947   4.952 -0.0769 -0.1074 -0.1112
14753TIP3    H165674   4.730   1.856   4.943 -1.4765 -0.0860  3.0235
14753TIP3    H265675   4.853   1.945   4.935  0.2656 -2.5079  1.6574
14754TIP3   OH265676   0.874   3.704  12.188 -0.3786 -0.1344 -0.0376
14754TIP3    H165677   0.921   3.776  12.230 -2.4272  1.5477 -0.5135
14754TIP3    H265678   0.908   3.625  12.232  1.3721  1.1476  1.0246
14755TIP3   OH265679   1.511   4.670  11.834  0.1439  0.6851  0.3663
14755TIP3    H165680   1.494   4.587  11.790  0.5873  1.2650 -0.9641
14755TIP3    H265681   1.601   4.662  11.867 -0.3813  0.0387  1.7109
14756TIP3   OH265682   1.085   6.547   0.073  0.3003 -0.1450  0.3033
14756TIP3    H165683   1.077   6.565   0.167  2.4453 -1.3987  0.7872
14756TIP3    H265684   1.148   6.611   0.041  0.5220 -0.5184 -0.0160
14757TIP3   OH265685   2.789   4.725  15.384  0.4302 -0.1618 -0.0448
14757TIP3    H165686   2.793   4.751  15.476 -1.0353  1.1180 -0.3001
14757TIP3    H265687   2.719   4.659  15.381  0.6993 -0.4457 -0.2018
14758TIP3   OH265688   6.196   5.628  17.217  0.3971  0.2940  0.0834
14758TIP3    H165689   6.141   5.660  17.289  2.0049  1.6622  0.7725
14758TIP3    H265690   6.203   5.703  17.157  0.9112 -0.0943 -0.3500
14759TIP3   OH265691   4.108   2.132  15.344  0.0204 -0.1029 -0.0344
14759TIP3    H165692   4.105   2.167  15.255 -0.4672  0.3366  0.1525
14759TIP3    H265693   4.053   2.053  15.341  1.4001 -1.0914 -0.5432
14760TIP3   OH265694   3.037   1.614  15.074  0.1509  0.0331 -0.5559
14760TIP3    H165695   3.053   1.536  15.021  1.0823 -0.2201  0.0877
14760TIP3    H265696   2.946   1.605  15.103  0.2908 -0.8651 -0.3965
14761TIP3   OH265697   3.523   2.219   5.540  0.1792  0.6458 -0.2764
14761TIP3    H165698   3.601   2.275   5.539  1.1664 -0.6555  0.1441
14761TIP3    H265699   3.537   2.158   5.467  0.8446 -1.2208  1.3367
14762TIP3   OH265700   4.221   3.996  11.627  0.1940 -0.1039 -0.1126
14762TIP3    H165701   4.292   3.938  11.655  0.1865  0.6363  1.5749
14762TIP3    H265702   4.232   4.002  11.532  3.3126  1.0954  0.1906
14763TIP3   OH265703   3.766   3.980   4.784 -0.4457  0.5156  0.2289
14763TIP3    H165704   3.860   3.973   4.803 -0.6425 -2.7094  0.5643
14763TIP3    H265705   3.725   3.978   4.871 -0.8440  0.8752  0.0454
14764TIP3   OH265706   0.914   4.324  11.511  0.1707  0.3947  0.3222
14764TIP3    H165707   0.995   4.338  11.463  0.2032  0.7644  0.4769
14764TIP3    H265708   0.941   4.285  11.594  0.1311 -0.0639  0.1259
14765TIP3   OH265709   0.075   1.590  12.709  0.3145 -0.3463  1.1537
14765TIP3    H165710   0.131   1.626  12.777  1.1832 -0.6994  0.6530
14765TIP3    H265711  -0.014   1.601  12.742  0.7460 -1.4331  2.8182
14766TIP3   OH265712   5.723   4.710  17.067  0.0807  0.0153  0.2400
14766TIP3    H165713   5.716   4.633  17.011 -1.0018  0.4198 -0.2147
14766TIP3    H265714   5.771   4.774  17.014 -1.0310  0.4332 -0.3088
14767TIP3   OH265715   1.568   1.168   0.729 -0.1277  0.3532 -0.0457
14767TIP3    H165716   1.574   1.162   0.824  0.0814 -0.4156 -0.0987
14767TIP3    H265717   1.645   1.218   0.702 -0.1144  0.4512  0.1790
14768TIP3   OH265718   3.992   3.157   1.893  0.4602 -0.4514  0.2298
14768TIP3    H165719   3.934   3.149   1.969 -0.0939 -0.5338 -0.1978
14768TIP3    H265720   4.023   3.247   1.897 -2.3237  0.7061 -1.3751
14769TIP3   OH265721   6.609   2.699   0.198 -0.3565 -0.0161 -0.5072
14769TIP3    H165722   6.535   2.711   0.258 -0.3445  0.7258 -0.6319
14769TIP3    H265723   6.599   2.609   0.165 -2.2695  0.6256 -1.9138
14770TIP3   OH265724   1.218   6.592   2.536  0.2957  0.1631 -0.0902
14770TIP3    H165725   1.270   6.522   2.575  0.0182 -0.4016 -0.7240
14770TIP3    H265726   1.280   6.664   2.524  1.0679 -0.6576 -1.2613
14771TIP3   OH265727   4.166   0.894  12.154  1.7128 -0.1433  0.3100
14771TIP3    H165728   4.233   0.835  12.187  0.0178 -1.5819  1.3572
14771TIP3    H265729   4.100   0.836  12.115  0.5678  1.1327  0.2588
14772TIP3   OH265730   3.408   2.797  16.521  0.2087  0.2454  0.5700
14772TIP3    H165731   3.366   2.835  16.444  0.9655 -2.4490 -1.3511
14772TIP3    H265732   3.432   2.871  16.575 -4.2699  2.1125  0.4054
14773TIP3   OH265733   0.791   0.321  15.649 -0.3219 -0.5341 -0.0892
14773TIP3    H165734   0.823   0.402  15.687 -1.2561  0.4574 -1.3205
14773TIP3    H265735   0.870   0.274  15.623  0.2344  0.9700 -1.2876
14774TIP3   OH265736   2.144   3.048  11.887  0.3610  0.0166  0.0013
14774TIP3    H165737   2.194   3.031  11.967  0.4645  1.3781  0.2394
14774TIP3    H265738   2.057   3.076  11.918 -0.6144 -2.2964 -0.4046
14775TIP3   OH265739   2.734   1.743  12.414  0.4788 -0.5163  0.0178
14775TIP3    H165740   2.669   1.768  12.348 -0.6321  2.7246  2.1305
14775TIP3    H265741   2.818   1.763  12.373  0.0374 -1.6232 -1.5306
14776TIP3   OH265742   2.109   4.497   3.385  0.3261 -0.5458  0.2233
14776TIP3    H165743   2.177   4.433   3.403 -0.0972 -0.9049  0.5850
14776TIP3    H265744   2.081   4.479   3.295  1.3399  0.2080 -0.2633
14777TIP3   OH265745   3.464   4.782   5.366 -0.4365 -0.3166 -0.0827
14777TIP3    H165746   3.411   4.782   5.446  0.0044 -0.5670  0.2208
14777TIP3    H265747   3.473   4.689   5.343  1.2628 -0.4299  0.8419
14778TIP3   OH265748   5.919   5.336   2.754 -0.4881  0.0840  0.1381
14778TIP3    H165749   5.834   5.292   2.748  0.5309 -1.8887 -0.8864
14778TIP3    H265750   5.942   5.330   2.847 -0.0530 -2.3506 -0.0565
14779TIP3   OH265751   2.589   4.445  12.311 -0.0063  0.0710 -0.5294
14779TIP3    H165752   2.572   4.408  12.398  1.4520  0.5302 -0.0143
14779TIP3    H265753   2.590   4.369  12.253  1.9954 -0.6587  0.3609
14780TIP3   OH265754   6.338   1.657  16.912  0.1172 -0.0425 -0.3988
14780TIP3    H165755   6.381   1.717  16.973  0.8966 -1.6613  0.7361
14780TIP3    H265756   6.376   1.677  16.827  2.2311 -0.5460  0.3619
14781TIP3   OH265757   3.416   1.939   1.525  0.3325 -0.1990  0.4625
14781TIP3    H165758   3.397   1.852   1.490 -0.1607  0.6375 -1.4867
14781TIP3    H265759   3.407   1.998   1.450 -0.4479  1.6895  1.9428
14782TIP3   OH265760   5.304   1.237  11.685 -0.2229  0.2587 -0.4271
14782TIP3    H165761   5.399   1.245  11.674 -0.4354  1.2730 -1.8504
14782TIP3    H265762   5.268   1.263  11.600 -1.7598 -0.8803 -0.1691
14783TIP3   OH265763   6.237   5.253  11.143 -0.2088  0.2816  0.2844
14783TIP3    H165764   6.274   5.223  11.060 -0.6270  0.0440  0.1794
14783TIP3    H265765   6.146   5.225  11.140 -0.8958  2.3624 -0.2155
14784TIP3   OH265766   0.938   1.580  13.452  0.3438  0.7921  0.4189
14784TIP3    H165767   0.980   1.648  13.505  0.0510  0.2573  1.3592
14784TIP3    H265768   0.880   1.535  13.513 -0.4473  0.5329 -0.5063
14785TIP3   OH265769   0.764   2.688   5.338 -0.4211  0.0835 -0.0921
14785TIP3    H165770   0.804   2.771   5.366 -0.2197 -0.5426  1.5369
14785TIP3    H265771   0.809   2.621   5.389 -1.2401 -0.9557 -0.6938
14786TIP3   OH265772   5.310   2.639  11.039 -0.4815 -0.2725  0.3440
14786TIP3    H165773   5.293   2.628  10.946 -0.9195 -0.0272  0.3912
14786TIP3    H265774   5.323   2.733  11.050 -1.2457 -0.1906  0.6549
14787TIP3   OH265775   0.360   2.235   3.226 -0.6268  0.7982 -0.0642
14787TIP3    H165776   0.364   2.143   3.199 -2.1287  0.8940 -0.7026
14787TIP3    H265777   0.379   2.285   3.146 -1.5428  1.0466 -0.1399
14788TIP3   OH265778   5.416   0.772   1.449  0.0601  0.4407  0.3565
14788TIP3    H165779   5.361   0.696   1.466  3.0160 -2.0588 -0.2294
14788TIP3    H265780   5.398   0.795   1.358 -0.9645  0.5521  0.5820
14789TIP3   OH265781   0.195   0.562  13.644  0.5320 -0.7075  0.3038
14789TIP3    H165782   0.174   0.469  13.643  0.3385 -0.6971 -1.7737
14789TIP3    H265783   0.123   0.604  13.597  1.0873  0.3594  0.3634
14790TIP3   OH265784   3.434   5.497   1.302  0.8753  0.0387  0.0766
14790TIP3    H165785   3.506   5.539   1.255  0.7606  0.0497 -0.0899
14790TIP3    H265786   3.455   5.512   1.395  0.8702  0.4092  0.0221
14791TIP3   OH265787   4.305   0.879  10.625 -0.4871 -0.1620  0.0805
14791TIP3    H165788   4.284   0.820  10.553 -0.4134  0.6111 -0.5921
14791TIP3    H265789   4.230   0.939  10.629  0.9427  1.9291 -1.6111
14792TIP3   OH265790   3.067   6.200   3.625  0.4508 -0.6040  0.2245
14792TIP3    H165791   3.153   6.162   3.645  0.7003  0.5466  1.5491
14792TIP3    H265792   3.074   6.290   3.657 -1.1646 -0.4233  0.1073
14793TIP3   OH265793   0.645   3.685  14.912  0.4842  0.6787 -0.3699
14793TIP3    H165794   0.552   3.689  14.931  0.3479  1.0913 -1.0585
14793TIP3    H265795   0.667   3.774  14.883  0.9173  0.4002 -0.9345
14794TIP3   OH265796   4.808   0.027  13.435 -0.5775 -0.0363 -0.3888
14794TIP3    H165797   4.804   0.117  13.404 -0.7758 -0.2888 -1.1113
14794TIP3    H265798   4.770  -0.025  13.364 -0.0375 -0.7369 -0.1777
14795TIP3   OH265799   5.150   5.043   1.931  0.2743  0.8093  0.2017
14795TIP3    H165800   5.134   5.130   1.895 -0.2416  0.9443  0.7506
14795TIP3    H265801   5.243   5.043   1.954  0.2948  1.1794  0.1123
14796TIP3   OH265802   1.222   4.979   2.925  0.1196 -0.0166  0.6886
14796TIP3    H165803   1.308   4.942   2.948 -0.5530 -1.5146  0.9316
14796TIP3    H265804   1.212   4.959   2.832  0.5771  1.3332  0.3313
14797TIP3   OH265805   0.693   1.364  15.436 -0.3112  0.1980 -0.0776
14797TIP3    H165806   0.721   1.292  15.492  0.3127  0.4533 -0.0598
14797TIP3    H265807   0.673   1.322  15.352  0.3159  0.0426 -0.1498
14798TIP3   OH265808   6.672   3.484  14.232 -0.0180  0.2467 -0.4129
14798TIP3    H165809   6.649   3.462  14.322  1.1089 -1.4913 -0.5021
14798TIP3    H265810   6.696   3.577  14.234  1.2412 -0.0837  1.3497
14799TIP3   OH265811   6.757   2.240   4.956 -0.3630 -0.2150 -0.0186
14799TIP3    H165812   6.680   2.288   4.986 -1.0006 -1.4087  0.3268
14799TIP3    H265813   6.721   2.162   4.914  0.6701 -0.8983  0.3349
14800TIP3   OH265814   0.244   4.361   0.255  0.2503  0.3825 -0.8015
14800TIP3    H165815   0.174   4.296   0.251  0.8764 -0.4193  0.4481
14800TIP3    H265816   0.283   4.349   0.342  0.7476  2.0606 -0.7444
14801TIP3   OH265817   0.872   5.931  11.642  0.3859  0.2740 -0.1808
14801TIP3    H165818   0.854   5.971  11.557 -1.8834  1.0176  0.5604
14801TIP3    H265819   0.869   6.004  11.704 -0.6110 -0.5663  0.8146
14802TIP3   OH265820   4.724   4.701  15.312  0.2933  0.2047  0.0572
14802TIP3    H165821   4.649   4.702  15.253  1.6077 -1.0809 -1.7737
14802TIP3    H265822   4.709   4.626  15.369  0.2943 -0.2051 -0.4735
14803TIP3   OH265823   1.048   5.511   4.372 -0.4651 -0.1289  0.4062
14803TIP3    H165824   1.103   5.455   4.426 -2.5638 -1.0478  1.7067
14803TIP3    H265825   0.961   5.507   4.413 -1.2744  2.1307 -0.8837
14804TIP3   OH265826   5.304   3.576   6.682 -0.0710 -0.1586  0.5092
14804TIP3    H165827   5.247   3.502   6.659 -0.2405 -0.0372  0.5340
14804TIP3    H265828   5.249   3.653   6.668  0.0452 -0.0482  0.6663
14805TIP3   OH265829   6.627   3.174  11.841  0.1963 -0.0561 -0.2023
14805TIP3    H165830   6.704   3.225  11.866  0.6214 -0.8632  0.1805
14805TIP3    H265831   6.560   3.239  11.819  0.6132  0.6583  0.6235
14806TIP3   OH265832   5.623   3.966  10.520 -0.1512 -0.5817  0.2460
14806TIP3    H165833   5.582   4.031  10.578 -2.0864 -0.7182 -0.8840
14806TIP3    H265834   5.691   4.016  10.473 -0.5910  0.2501  0.4757
14807TIP3   OH265835   5.137   0.393  17.167 -0.2970 -0.0281  0.0362
14807TIP3    H165836   5.227   0.378  17.194  0.5210 -0.6927 -2.7938
14807TIP3    H265837   5.096   0.306  17.171 -0.2578 -0.0742 -0.5182
14808TIP3   OH265838   2.843   0.490   1.633  0.5298 -0.1963 -0.1931
14808TIP3    H165839   2.813   0.559   1.573  0.1237  0.1169  0.3636
14808TIP3    H265840   2.876   0.421   1.575  0.0904  0.0791 -0.7844
14809TIP3   OH265841   2.582   6.435  12.498 -0.4858 -0.1614  0.2357
14809TIP3    H165842   2.582   6.525  12.530  1.3631 -0.0380 -0.0204
14809TIP3    H265843   2.597   6.381  12.576  0.6172 -0.0811  0.0949
14810TIP3   OH265844   4.262   0.139   3.711 -0.2693 -0.3725  0.0926
14810TIP3    H165845   4.253   0.044   3.726 -1.2427 -0.3087  0.0118
14810TIP3    H265846   4.321   0.169   3.780  2.1185 -1.4303 -1.3834
14811TIP3   OH265847   5.192   1.009   4.554 -0.2111  0.0120 -0.9853
14811TIP3    H165848   5.134   1.045   4.621  0.9338 -0.6734  0.4419
14811TIP3    H265849   5.278   1.046   4.575  0.4224 -1.2673 -1.2410
14812TIP3   OH265850   1.612   3.740   4.081  0.6431  0.1390  0.4638
14812TIP3    H165851   1.537   3.731   4.022  1.0310 -1.7175  0.2061
14812TIP3    H265852   1.601   3.827   4.120 -0.7384  0.5731 -0.7939
14813TIP3   OH265853   0.647   6.398  13.584 -0.7490 -0.2234 -0.1595
14813TIP3    H165854   0.608   6.403  13.671 -0.2107  0.6746  0.0396
14813TIP3    H265855   0.738   6.373  13.600 -0.5295  0.3873 -0.4282
14814TIP3   OH265856   1.959   1.278  13.112  0.5333  0.0398  0.3084
14814TIP3    H165857   1.947   1.352  13.053  0.4432  0.4610  0.8481
14814TIP3    H265858   2.040   1.298  13.159  0.6451 -0.3307  0.2807
14815TIP3   OH265859   5.437   4.804  17.095 -0.3508 -0.0473 -0.0034
14815TIP3    H165860   5.530   4.781  17.102  0.2044  0.9785 -2.6717
14815TIP3    H265861   5.432   4.896  17.120 -0.2659  0.4228 -1.5828
14816TIP3   OH265862   6.778   3.072  13.890 -0.2575 -0.0432  0.4377
14816TIP3    H165863   6.730   3.042  13.967  0.7628 -0.6733  0.8433
14816TIP3    H265864   6.755   3.165  13.882 -1.3019 -0.2667  0.7869
14817TIP3   OH265865   1.653   3.860   0.875 -0.1603 -0.5185 -0.4014
14817TIP3    H165866   1.653   3.954   0.857  0.3319 -0.1992  1.1769
14817TIP3    H265867   1.694   3.821   0.797 -0.1229  0.5854 -0.9525
14818TIP3   OH265868   2.037   5.423   2.361  0.3607 -0.2786 -0.5867
14818TIP3    H165869   1.971   5.360   2.333  1.9611 -2.6147  0.5298
14818TIP3    H265870   2.035   5.492   2.295 -1.0448 -1.8387 -2.2624
14819TIP3   OH265871   4.130   2.258   5.588 -0.1259 -0.2681  0.6734
14819TIP3    H165872   4.214   2.298   5.566 -0.2256 -0.6079 -0.4095
14819TIP3    H265873   4.148   2.164   5.589 -0.4359 -0.3288  0.7021
14820TIP3   OH265874   3.354   3.897  15.503 -0.1933  0.5718  0.2414
14820TIP3    H165875   3.406   3.858  15.574  1.2096 -0.3991 -1.2478
14820TIP3    H265876   3.353   3.830  15.435  1.0355  2.5392 -1.8403
14821TIP3   OH265877   5.885   2.702   5.777 -0.3027  0.1299  0.1771
14821TIP3    H165878   5.979   2.692   5.764 -0.2808 -1.4638  1.1693
14821TIP3    H265879   5.874   2.789   5.814  0.6370  0.7973 -1.0750
14822TIP3   OH265880   1.125   1.256  14.969  0.0008 -0.2948  0.3593
14822TIP3    H165881   1.133   1.294  15.057 -1.1318  0.7945  0.0264
14822TIP3    H265882   1.051   1.303  14.930 -0.0319 -1.3410 -0.8880
14823TIP3   OH265883   1.600   4.700   0.774 -0.4973  0.5861 -0.5301
14823TIP3    H165884   1.589   4.732   0.685 -1.5208 -2.2776 -1.5555
14823TIP3    H265885   1.522   4.647   0.790  1.0992 -1.5384  0.8255
14824TIP3   OH265886   6.514   2.093  11.146 -0.1061 -0.9459 -0.4330
14824TIP3    H165887   6.559   2.021  11.103  0.3678  0.4266 -2.3666
14824TIP3    H265888   6.442   2.116  11.087 -0.3501  0.0395  0.2169
14825TIP3   OH265889   3.201   0.327   1.590  0.3657  0.2377  0.0270
14825TIP3    H165890   3.199   0.418   1.621  0.1730  0.2906 -0.1446
14825TIP3    H265891   3.290   0.297   1.612 -0.0998 -0.0767  1.6657
14826TIP3   OH265892   1.278   1.744  11.952 -0.5205 -0.3504  0.2099
14826TIP3    H165893   1.206   1.769  12.010  0.5835  0.6133  1.2104
14826TIP3    H265894   1.304   1.826  11.910  0.8137 -0.4449  0.8141
14827TIP3   OH265895   3.822   3.512  13.318  0.1744  0.3811 -0.1383
14827TIP3    H165896   3.903   3.550  13.285  1.3054 -1.1166  0.7662
14827TIP3    H265897   3.772   3.489  13.240  1.1449  0.2851 -0.7490
14828TIP3   OH265898   4.042   3.529  16.002  0.0754  0.8875  0.4734
14828TIP3    H165899   4.057   3.475  16.080 -1.2799 -0.0034  0.1510
14828TIP3    H265900   3.971   3.589  16.028 -1.1794 -0.1727 -0.3970
14829TIP3   OH265901   1.284   2.691  17.028 -0.2243 -0.2187 -0.0471
14829TIP3    H165902   1.363   2.648  16.995 -0.9145 -0.4956 -1.4240
14829TIP3    H265903   1.286   2.778  16.988 -2.1398 -1.2588 -2.7573
14830TIP3   OH265904   2.388   5.748   5.390  0.7761  0.1903  0.5033
14830TIP3    H165905   2.470   5.780   5.428  1.2022 -1.1619  0.7872
14830TIP3    H265906   2.332   5.730   5.466  0.6657 -0.0278  0.3716
14831TIP3   OH265907   1.256   4.202   1.554 -0.2157 -0.4300 -0.0487
14831TIP3    H165908   1.308   4.267   1.601 -1.1400  0.7176 -0.5446
14831TIP3    H265909   1.227   4.140   1.621  0.2975 -0.0581  0.5186
14832TIP3   OH265910   4.758   6.405  14.289 -0.1286  0.0464  0.3984
14832TIP3    H165911   4.824   6.391  14.221 -2.0769 -1.1603 -1.3559
14832TIP3    H265912   4.736   6.498  14.281  0.3815  0.1479  0.0840
14833TIP3   OH265913   2.604   3.220   3.602  0.7962  0.7808  0.6372
14833TIP3    H165914   2.580   3.139   3.647  0.1229  1.0455  0.7686
14833TIP3    H265915   2.677   3.255   3.652  1.9056 -0.3520 -0.1217
14834TIP3   OH265916   0.938   0.426  16.538 -0.1915 -0.0792  0.8215
14834TIP3    H165917   0.919   0.454  16.449  1.2356  1.1734  0.8715
14834TIP3    H265918   0.872   0.358  16.557 -1.4109  0.6417 -0.6514
14835TIP3   OH265919   0.255   2.218  15.194 -0.0379 -0.2719 -0.4583
14835TIP3    H165920   0.349   2.229  15.180 -0.1123  0.0487 -0.7130
14835TIP3    H265921   0.218   2.304  15.175 -0.6118 -0.8982 -2.3359
14836TIP3   OH265922   1.052   1.001   5.223 -0.3403 -0.1653 -0.2051
14836TIP3    H165923   1.097   0.922   5.253 -0.0550 -0.9104 -2.3780
14836TIP3    H265924   1.016   1.041   5.302  1.1098 -1.4647  1.1662
14837TIP3   OH265925   3.883   4.732   0.389  0.3503 -0.6028  0.1026
14837TIP3    H165926   3.890   4.710   0.296  1.3818  0.5410 -0.1129
14837TIP3    H265927   3.809   4.792   0.394  0.2751 -0.6889  0.0303
14838TIP3   OH265928   6.367   4.048   3.285  0.3964 -0.2277  0.3478
14838TIP3    H165929   6.390   4.065   3.193  0.4402 -2.6398 -0.1577
14838TIP3    H265930   6.312   4.123   3.310 -0.0293  0.2518 -1.7992
14839TIP3   OH265931   5.294   1.468  13.760 -0.5819 -0.0061  0.0619
14839TIP3    H165932   5.212   1.424  13.784  0.0054 -0.9666  0.3485
14839TIP3    H265933   5.292   1.472  13.664 -0.0945 -1.7799 -0.0465
14840TIP3   OH265934   2.895   3.387  14.291 -0.0110  0.3553  0.5905
14840TIP3    H165935   2.933   3.313  14.339  1.6871  1.2010  0.6677
14840TIP3    H265936   2.869   3.448  14.360 -0.0516  0.4337  0.5058
14841TIP3   OH265937   0.349   0.245  13.481 -0.2992  0.2269  0.0021
14841TIP3    H165938   0.340   0.179  13.412  0.5002 -0.1845  0.2827
14841TIP3    H265939   0.259   0.261  13.511 -0.6750  0.5090 -1.2086
14842TIP3   OH265940   3.262   6.366  14.902  0.0858 -0.8413  0.5396
14842TIP3    H165941   3.197   6.322  14.847 -0.7248 -0.7009  1.3612
14842TIP3    H265942   3.251   6.327  14.989  0.9249 -0.6264  0.7585
14843TIP3   OH265943   1.040   4.078   2.169 -0.3374  0.1783 -0.4758
14843TIP3    H165944   1.060   4.125   2.250  2.5929 -0.8161 -0.5111
14843TIP3    H265945   0.986   4.005   2.197  2.5282 -1.5422  1.1440
14844TIP3   OH265946   2.757   2.550  12.461  0.0551  0.3260  0.1566
14844TIP3    H165947   2.727   2.508  12.380 -1.3667 -0.2412  0.9320
14844TIP3    H265948   2.704   2.629  12.467  0.4004  0.5426  0.3619
14845TIP3   OH265949   1.953   1.929  13.103  0.0759 -0.6422  1.2223
14845TIP3    H165950   2.033   1.930  13.051  1.2143 -0.2158  2.9044
14845TIP3    H265951   1.939   1.836  13.123 -1.0677 -0.9604 -0.7802
14846TIP3   OH265952   1.813   1.239  14.276 -0.4274 -0.2126 -0.2595
14846TIP3    H165953   1.746   1.200  14.332  0.8700 -0.7312  0.9980
14846TIP3    H265954   1.861   1.164  14.241  0.6232  0.1880  0.2983
14847TIP3   OH265955   5.808   4.708   5.894  0.3024  0.2942 -0.4710
14847TIP3    H165956   5.832   4.653   5.968  1.3755  0.5066 -0.6537
14847TIP3    H265957   5.751   4.775   5.932 -0.4546 -0.5139 -0.1300
14848TIP3   OH265958   0.304   5.225   5.271  0.0734  0.1305  0.1556
14848TIP3    H165959   0.357   5.180   5.337 -0.2740 -0.9552 -0.2924
14848TIP3    H265960   0.215   5.224   5.307  0.0425  0.3542  0.0857
14849TIP3   OH265961   3.220   5.353   3.718 -0.3300  0.0037  0.6691
14849TIP3    H165962   3.183   5.266   3.729  0.4601 -0.5771 -1.0101
14849TIP3    H265963   3.281   5.363   3.792 -0.5241 -0.8085  0.9439
14850TIP3   OH265964   2.423   6.733   3.203 -0.0733 -0.1729 -0.0384
14850TIP3    H165965   2.362   6.781   3.146  0.4448 -2.5155 -2.8426
14850TIP3    H265966   2.382   6.647   3.215  1.1543 -0.6712  0.7674
14851TIP3   OH265967   1.382   3.586   5.463  0.3957  0.1556 -0.7281
14851TIP3    H165968   1.304   3.558   5.416 -0.2750  0.0158  0.4349
14851TIP3    H265969   1.453   3.537   5.422 -0.1962 -0.1158 -1.4523
14852TIP3   OH265970   4.565   4.683  14.475  0.2623 -0.7076  0.6126
14852TIP3    H165971   4.535   4.709  14.388  1.9380 -0.2958  0.1201
14852TIP3    H265972   4.485   4.658  14.521 -0.7983  0.1426 -0.6698
14853TIP3   OH265973   0.334   6.162  16.131 -0.3579 -0.4666  0.0234
14853TIP3    H165974   0.358   6.084  16.181 -0.0899 -0.7276 -0.4998
14853TIP3    H265975   0.387   6.156  16.051  0.4911  0.8259  0.4592
14854TIP3   OH265976   0.743   3.902  14.775 -0.2905 -0.0378  0.7542
14854TIP3    H165977   0.659   3.942  14.799 -0.5729 -0.2554  0.1659
14854TIP3    H265978   0.809   3.962  14.810 -0.7050  1.3514 -0.7154
14855TIP3   OH265979   0.104   4.363   1.742 -0.3617 -0.5561 -0.0251
14855TIP3    H165980   0.120   4.441   1.794 -0.1779 -0.0339 -0.8525
14855TIP3    H265981   0.160   4.296   1.781 -0.0679 -0.1170  0.3111
14856TIP3   OH265982   4.673   6.539   4.807 -0.2884 -0.2294  0.4404
14856TIP3    H165983   4.647   6.600   4.738  0.1323 -0.2706  0.2434
14856TIP3    H265984   4.726   6.592   4.867 -2.0656  0.2562  1.6878
14857TIP3   OH265985   5.966   0.140  15.916  0.0208  0.2811 -0.2417
14857TIP3    H165986   5.953   0.046  15.909  0.1037  0.0156  2.2046
14857TIP3    H265987   5.912   0.178  15.846 -0.4448 -1.5432 -0.9080
14858TIP3   OH265988   4.773   6.069   2.191  0.1390  0.4966  0.4913
14858TIP3    H165989   4.715   6.130   2.144  1.8107  0.1584 -2.1969
14858TIP3    H265990   4.851   6.121   2.211  1.7484 -0.7015 -2.1852
14859TIP3   OH265991   3.611   2.171  11.545 -0.4799  0.2072 -0.0709
14859TIP3    H165992   3.625   2.221  11.465  2.2832 -0.7747 -0.2975
14859TIP3    H265993   3.517   2.152  11.545 -0.8337  1.5589 -2.2348
14860TIP3   OH265994   0.388   2.006   2.201  0.1038  0.4020  0.4731
14860TIP3    H165995   0.388   1.914   2.176  0.2103  1.0239 -2.0375
14860TIP3    H265996   0.301   2.020   2.238 -0.7874 -0.2133 -1.2763
14861TIP3   OH265997   0.311   6.122   2.637 -0.1644  0.0803  0.1921
14861TIP3    H165998   0.392   6.135   2.588  0.3131  0.1039  0.9702
14861TIP3    H265999   0.256   6.197   2.613  0.9310  1.3266  1.3945
14862TIP3   OH266000   3.427   4.309   6.149 -0.0679 -0.3303  0.3161
14862TIP3    H166001   3.434   4.367   6.073  1.3006 -0.3585  0.3980
14862TIP3    H266002   3.517   4.281   6.166 -0.5313 -1.3655  1.1465
14863TIP3   OH266003   1.990   4.262  15.351 -0.4566  0.4113  0.6241
14863TIP3    H166004   1.929   4.331  15.325 -0.0646  0.3729 -0.4086
14863TIP3    H266005   2.030   4.233  15.270  1.5654  1.0237  1.3512
14864TIP3   OH266006   4.969   3.223   4.704  0.2915  0.4121 -0.9104
14864TIP3    H166007   5.010   3.161   4.644  0.5912 -0.7256  0.4170
14864TIP3    H266008   4.879   3.190   4.714  1.3868 -2.2640  2.6999
14865TIP3   OH266009   1.292   0.589  17.212  0.4087 -0.0111  0.0958
14865TIP3    H166010   1.210   0.565  17.255  0.1191 -2.9874 -1.7790
14865TIP3    H266011   1.264   0.636  17.133  0.7783  2.4743  1.3690
14866TIP3   OH266012   2.176   4.593   4.013  0.1930 -0.3208  0.3799
14866TIP3    H166013   2.140   4.507   4.036  0.9387 -0.3489  1.5535
14866TIP3    H266014   2.265   4.575   3.984 -0.0017 -0.0349 -0.4384
14867TIP3   OH266015   6.017   5.230   4.550 -1.0691 -0.4758  0.0319
14867TIP3    H166016   5.924   5.248   4.540 -1.0468 -0.6996 -0.6379
14867TIP3    H266017   6.028   5.209   4.642 -1.3215  1.6830  0.6200
14868TIP3   OH266018   5.751   6.457  16.968  0.0110  0.2858  0.0067
14868TIP3    H166019   5.658   6.453  16.990  0.4126 -0.2189  1.7417
14868TIP3    H266020   5.755   6.513  16.890 -1.4218  3.3060  1.9219
14869TIP3   OH266021   3.884   0.166  15.156  0.4764  0.1524 -0.7582
14869TIP3    H166022   3.966   0.124  15.180  0.0735  0.7890  2.1207
14869TIP3    H266023   3.818   0.098  15.168  0.5051 -0.3236 -2.9472
14870TIP3   OH266024   2.642   5.189  15.532 -1.0906  0.3878 -1.0284
14870TIP3    H166025   2.733   5.204  15.508 -1.3143  1.2393 -1.4056
14870TIP3    H266026   2.596   5.182  15.448 -1.3411 -0.2603 -0.8401
14871TIP3   OH266027   3.888   6.556  15.458 -0.4775  0.3661 -0.0611
14871TIP3    H166028   3.899   6.623  15.525  1.7625  0.1181 -0.0994
14871TIP3    H266029   3.798   6.525  15.469 -0.6555  1.4136  1.7933
14872TIP3   OH266030   6.495   4.379   3.008  0.4856  0.1610  0.1871
14872TIP3    H166031   6.545   4.392   3.089 -0.9486  1.3587  0.9457
14872TIP3    H266032   6.541   4.432   2.943  1.4030 -0.4585  0.3157
14873TIP3   OH266033   0.205   5.214  12.229  0.3846 -0.0544 -0.2651
14873TIP3    H166034   0.262   5.271  12.178 -1.2026  1.1932 -0.7559
14873TIP3    H266035   0.128   5.202  12.173  0.9888 -3.4440 -0.5516
14874TIP3   OH266036   1.792   4.872   5.258  0.1559 -0.0910 -0.6681
14874TIP3    H166037   1.789   4.787   5.214 -0.2056  0.3023 -1.4212
14874TIP3    H266038   1.863   4.919   5.215 -0.0027  0.1921 -0.6233
14875TIP3   OH266039   3.888   2.255  11.001  0.1571 -0.5737 -0.4130
14875TIP3    H166040   3.796   2.260  11.024 -0.2837 -1.6122 -1.8163
14875TIP3    H266041   3.890   2.206  10.919  2.0246 -1.4943  0.1066
14876TIP3   OH266042   6.622   1.304   6.848  0.1472  0.7456  0.1014
14876TIP3    H166043   6.596   1.331   6.760 -1.2384  2.0846  0.8702
14876TIP3    H266044   6.555   1.242   6.876 -0.3509  1.5918  0.8192
14877TIP3   OH266045   5.634   4.247   2.754 -0.1770  0.6883 -0.1444
14877TIP3    H166046   5.566   4.187   2.785 -0.2969  1.5253  1.2546
14877TIP3    H266047   5.586   4.312   2.701 -0.1945  0.2147 -0.7235
14878TIP3   OH266048   6.231   3.551  14.952 -0.0341 -0.1903 -0.1155
14878TIP3    H166049   6.206   3.621  14.891 -0.3011 -0.1839 -0.0014
14878TIP3    H266050   6.270   3.483  14.896 -0.6097 -0.3427 -0.3468
14879TIP3   OH266051   1.651   0.141   3.378 -0.1360  0.6958  0.0328
14879TIP3    H166052   1.657   0.173   3.288  0.2588 -0.4710 -0.3747
14879TIP3    H266053   1.737   0.159   3.415  0.2801 -0.3486 -0.3747
14880TIP3   OH266054   0.695   6.756   5.712  0.8873 -0.3195 -0.7941
14880TIP3    H166055   0.738   6.832   5.671  1.3554 -1.8364 -3.2755
14880TIP3    H266056   0.767   6.697   5.733  0.5675  0.0438  1.5636
14881TIP3   OH266057   4.822   4.408  15.858 -0.3603 -0.0889  0.1248
14881TIP3    H166058   4.793   4.449  15.776 -1.5306  0.5227  0.8073
14881TIP3    H266059   4.851   4.482  15.911 -1.6312 -0.2051  1.0336
14882TIP3   OH266060   6.108   4.184   0.681  0.5227  0.3424 -0.0856
14882TIP3    H166061   6.190   4.165   0.635  0.6326 -0.1948  0.3151
14882TIP3    H266062   6.065   4.251   0.628  1.1795  0.5610 -0.3490
14883TIP3   OH266063   5.016   3.164  15.708 -0.5283 -0.0388 -0.7078
14883TIP3    H166064   4.941   3.122  15.665  0.1241 -1.0444 -0.8933
14883TIP3    H266065   5.022   3.250  15.665 -1.4653 -0.0116 -0.8068
14884TIP3   OH266066   3.195   3.573   2.186  0.3207  0.7067  0.2057
14884TIP3    H166067   3.213   3.664   2.164 -1.0802  1.4049  1.7405
14884TIP3    H266068   3.277   3.540   2.223  1.8391  0.3267 -3.1609
14885TIP3   OH266069   1.621   2.448  15.856 -0.3883  0.1661 -0.4839
14885TIP3    H166070   1.694   2.454  15.918 -1.6793 -0.1594  1.1471
14885TIP3    H266071   1.662   2.437  15.771  1.4961 -2.5496  0.6299
14886TIP3   OH266072   5.513   2.786  12.566 -0.0974  0.2196 -0.5731
14886TIP3    H166073   5.464   2.799  12.485 -2.2291  1.2887  0.7789
14886TIP3    H266074   5.573   2.860  12.570  0.2357 -0.0064 -1.3205
14887TIP3   OH266075   6.348   5.539  16.215 -0.1032  0.1705 -0.2699
14887TIP3    H166076   6.308   5.614  16.171  0.7100 -0.2633 -1.8188
14887TIP3    H266077   6.442   5.555  16.211 -0.0050  0.7888  2.6399
14888TIP3   OH266078   3.513   3.500   1.980  0.1363  0.6639 -0.6920
14888TIP3    H166079   3.524   3.581   2.029  0.3628  1.1932 -1.6073
14888TIP3    H266080   3.421   3.497   1.957 -0.3102 -0.3255  0.9939
14889TIP3   OH266081   6.633   6.725  17.017 -0.7270  0.0407  0.0259
14889TIP3    H166082   6.638   6.686  17.104  0.2058  0.3410  0.1283
14889TIP3    H266083   6.722   6.714  16.981 -0.4840  1.8290 -0.0235
14890TIP3   OH266084   2.150   0.435  11.060  0.6173 -0.0366  0.3343
14890TIP3    H166085   2.233   0.477  11.081  0.7196  0.4637 -0.9712
14890TIP3    H266086   2.154   0.420  10.966 -1.5098  1.6999 -0.1199
14891TIP3   OH266087   6.343   5.896  12.570  0.0748 -0.7043 -0.5190
14891TIP3    H166088   6.252   5.915  12.546 -0.1867 -0.3572  0.7059
14891TIP3    H266089   6.366   5.964  12.632  0.9465 -1.2177 -0.2689
14892TIP3   OH266090   2.174   3.435   1.235 -0.4531  0.1918  0.5913
14892TIP3    H166091   2.149   3.438   1.327 -0.3792 -0.9217  0.6660
14892TIP3    H266092   2.261   3.475   1.232  0.5703 -1.8009  1.4247
14893TIP3   OH266093   5.278   1.213   0.362  0.2330  0.4780  0.1559
14893TIP3    H166094   5.323   1.297   0.370 -0.1511  0.9436 -1.9008
14893TIP3    H266095   5.229   1.203   0.444  3.6281  0.1454  2.3288
14894TIP3   OH266096   2.929   2.072   1.586 -0.3857 -0.0469 -0.0082
14894TIP3    H166097   2.993   2.115   1.529  0.2805  0.0677  0.8013
14894TIP3    H266098   2.972   1.992   1.614 -1.2343 -0.7620 -0.7028
14895TIP3   OH266099   6.664   5.125  16.062  0.0181  0.1474  0.0612
14895TIP3    H166100   6.618   5.115  15.979  0.3395  1.1013 -0.2515
14895TIP3    H266101   6.743   5.175  16.039  1.1853 -1.3838  0.5831
14896TIP3   OH266102   1.160   3.676   0.974  0.2363  0.0529  0.7697
14896TIP3    H166103   1.152   3.615   0.900 -1.5671  3.0171 -1.7601
14896TIP3    H266104   1.249   3.709   0.969 -0.1296  0.9520 -0.8846
14897TIP3   OH266105   2.365   2.870  14.370 -0.1783  0.5649  0.4141
14897TIP3    H166106   2.352   2.949  14.423  0.7489  1.0875 -0.1138
14897TIP3    H266107   2.396   2.805  14.433 -1.0148  0.5877  0.8669
14898TIP3   OH266108   4.782   2.838   5.896 -0.3562 -0.2891  0.7262
14898TIP3    H166109   4.863   2.855   5.848  0.0765 -1.0933  1.1376
14898TIP3    H266110   4.755   2.923   5.929 -1.1531  0.4611 -1.6620
14899TIP3   OH266111   2.727   5.479  15.660 -0.3098  0.5731 -0.6898
14899TIP3    H166112   2.770   5.394  15.657 -2.7269 -0.7320 -0.8286
14899TIP3    H266113   2.649   5.465  15.713 -1.0154  2.5878 -1.1008
14900TIP3   OH266114   6.551   1.183   3.341  0.0965 -0.2581 -0.1215
14900TIP3    H166115   6.495   1.182   3.419 -0.3279  0.7864 -0.4009
14900TIP3    H266116   6.636   1.212   3.373 -0.3385  1.1675 -0.1888
14901TIP3   OH266117   0.357   3.011  11.528  0.3196 -0.0815  0.2254
14901TIP3    H166118   0.266   3.021  11.499  0.8097 -0.4324 -1.5181
14901TIP3    H266119   0.354   2.941  11.593 -0.4814 -0.9780 -0.7499
14902TIP3   OH266120   3.113   1.950   6.516  0.2412 -0.0132  0.1129
14902TIP3    H166121   3.060   1.952   6.596  0.7861  2.6906  0.5142
14902TIP3    H266122   3.087   2.028   6.468  1.7218 -0.2463 -1.1475
14903TIP3   OH266123   3.008   1.790  10.784 -0.5361 -0.3145  0.2654
14903TIP3    H166124   3.051   1.706  10.802 -0.4536 -0.8207 -1.9777
14903TIP3    H266125   2.943   1.769  10.717 -1.2450  1.2420  0.4289
14904TIP3   OH266126   0.956   1.828  13.298  0.1756  0.1965 -0.2188
14904TIP3    H166127   1.049   1.833  13.317 -0.1018  2.0122  1.0060
14904TIP3    H266128   0.927   1.745  13.335  1.9476 -2.5723 -4.3021
14905TIP3   OH266129   5.080   6.583  14.785 -0.3157 -0.0509 -0.0310
14905TIP3    H166130   5.130   6.510  14.822 -0.6993 -0.7661 -0.8555
14905TIP3    H266131   5.016   6.540  14.727 -0.5194  0.9469 -0.5632
14906TIP3   OH266132   3.872   3.988  12.701  0.1637  0.4258 -0.1229
14906TIP3    H166133   3.939   3.969  12.766 -0.3586  1.3014  0.6818
14906TIP3    H266134   3.801   3.926  12.721 -0.8310  1.9890  1.4359
14907TIP3   OH266135   3.100   1.685  13.208  0.1063 -0.5239  0.2059
14907TIP3    H166136   3.131   1.612  13.262  1.4527 -0.5420 -0.5291
14907TIP3    H266137   3.089   1.757  13.269  0.2378 -0.9276  0.7144
14908TIP3   OH266138   6.502   1.197   5.644 -0.4371  0.1857 -0.1156
14908TIP3    H166139   6.587   1.173   5.608 -1.1077 -2.2122 -0.2712
14908TIP3    H266140   6.514   1.193   5.739  0.1918  2.1871 -0.0746
14909TIP3   OH266141   4.351   2.257  12.812 -0.6417 -0.1046  0.0803
14909TIP3    H166142   4.362   2.312  12.890  1.4081 -0.5091  0.1285
14909TIP3    H266143   4.431   2.270  12.762 -1.1599 -1.2333 -1.0814
14910TIP3   OH266144   5.100   5.129   5.323  0.3442 -0.3605 -0.3105
14910TIP3    H166145   5.034   5.191   5.290 -0.9777 -1.3374  0.3801
14910TIP3    H266146   5.142   5.094   5.245  0.5969  0.8369 -0.7376
14911TIP3   OH266147   1.768   0.719   3.207  0.1856  0.6248  0.4208
14911TIP3    H166148   1.737   0.802   3.171  0.4569  1.3173  1.6953
14911TIP3    H266149   1.688   0.667   3.219  0.1266  0.2284 -1.4451
14912TIP3   OH266150   3.232   5.041  12.059 -0.4204  0.0986  0.0051
14912TIP3    H166151   3.191   5.012  12.141 -0.4403 -1.0646 -0.4058
14912TIP3    H266152   3.258   5.132  12.077 -1.9360  0.4346  0.7325
14913TIP3   OH266153   4.811   4.178   5.816 -0.2733  0.4169 -0.3334
14913TIP3    H166154   4.800   4.115   5.888  1.1977 -0.7102 -1.0402
14913TIP3    H266155   4.724   4.217   5.806 -1.0714 -0.9991  0.6009
14914TIP3   OH266156   2.090   1.911  15.874 -0.1610 -0.0668  0.5634
14914TIP3    H166157   2.130   1.954  15.798 -0.8801 -1.2963 -0.5612
14914TIP3    H266158   2.073   1.821  15.844 -2.2163 -0.0468  1.5296
14915TIP3   OH266159   5.935   4.085   2.735 -0.2483 -0.1628  0.1968
14915TIP3    H166160   6.028   4.109   2.727 -0.3549  0.8950  1.7522
14915TIP3    H266161   5.925   4.010   2.677  1.4715 -0.0042 -0.3680
14916TIP3   OH266162   1.298   0.305   3.367 -0.2399 -0.2179  0.3938
14916TIP3    H166163   1.226   0.267   3.317  0.1788  2.1982 -2.3641
14916TIP3    H266164   1.302   0.396   3.337  2.3247  0.4497  2.3830
14917TIP3   OH266165   6.591   1.932  13.140  0.1478  0.4187  0.4245
14917TIP3    H166166   6.551   1.862  13.089  0.3255 -1.3422  2.5290
14917TIP3    H266167   6.517   1.977  13.181  0.1060  0.0462  0.7703
14918TIP3   OH266168   3.534   4.532   2.323 -0.0707 -0.5287 -0.5650
14918TIP3    H166169   3.470   4.571   2.382  0.7597 -0.3334  0.2341
14918TIP3    H266170   3.619   4.549   2.364  0.4224 -1.8638 -0.9586
14919TIP3   OH266171   0.779   3.986  12.979 -0.1291  0.5816  0.1804
14919TIP3    H166172   0.773   4.039  12.900  2.9969  1.6706  0.5467
14919TIP3    H266173   0.778   3.895  12.947  0.9827  0.9947 -1.1249
14920TIP3   OH266174   1.746   5.127  13.917 -0.1698  0.1399  0.0547
14920TIP3    H166175   1.828   5.114  13.869  0.2184  0.7427  0.5465
14920TIP3    H266176   1.706   5.039  13.921  0.3814 -0.1305 -0.3000
14921TIP3   OH266177   2.172   6.656   2.385 -0.8436  0.3470 -0.1630
14921TIP3    H166178   2.102   6.651   2.320 -0.3297 -0.8693 -0.6468
14921TIP3    H266179   2.251   6.676   2.335 -0.5806  0.2073  0.1870
14922TIP3   OH266180   1.506   4.413  11.649  0.5426  0.4449 -0.0692
14922TIP3    H166181   1.514   4.404  11.554 -0.0244  1.7985 -0.2629
14922TIP3    H266182   1.596   4.417  11.681  0.8589 -2.8807 -0.1897
14923TIP3   OH266183   3.144   2.336  16.767 -0.1377 -0.1980  0.2574
14923TIP3    H166184   3.069   2.396  16.769  1.0043  1.3107 -0.2996
14923TIP3    H266185   3.147   2.298  16.855 -1.1554  0.2165  0.4840
14924TIP3   OH266186   3.587   3.826  13.959 -0.8532 -0.2422  0.0872
14924TIP3    H166187   3.540   3.879  14.023  1.4169  0.4623  1.2824
14924TIP3    H266188   3.625   3.755  14.011 -1.0650 -1.1165 -0.9290
14925TIP3   OH266189   0.083   2.320  13.864  0.2585 -0.2738 -0.1760
14925TIP3    H166190   0.102   2.396  13.807  0.7539 -0.8376 -0.7871
14925TIP3    H266191   0.067   2.358  13.950 -0.3910  0.5961 -0.6618
14926TIP3   OH266192   1.554   2.630   4.773 -0.2883  0.3204  0.2712
14926TIP3    H166193   1.610   2.553   4.784  1.2453  1.4397  0.6017
14926TIP3    H266194   1.493   2.626   4.847  2.4312  1.5370  2.7795
14927TIP3   OH266195   3.878   1.869  11.439 -0.2772 -0.4258 -0.3831
14927TIP3    H166196   3.837   1.789  11.407  1.8776 -1.2595 -1.2891
14927TIP3    H266197   3.883   1.925  11.362 -2.7834  1.1354  0.4768
14928TIP3   OH266198   3.338   5.497  12.562  0.3992 -0.2792  0.8339
14928TIP3    H166199   3.370   5.415  12.599  1.2347 -0.2077  0.3111
14928TIP3    H266200   3.319   5.476  12.470  0.7438  0.1266  0.6626
14929TIP3   OH266201   6.211   2.609   6.115  0.5112 -0.0893  0.0085
14929TIP3    H166202   6.174   2.694   6.089  0.4731 -0.0050  0.3357
14929TIP3    H266203   6.250   2.625   6.201  2.1068  0.0481 -0.7038
14930TIP3   OH266204   6.776   6.788   3.500  0.3431 -0.0844 -0.4503
14930TIP3    H166205   6.726   6.834   3.567 -0.7846 -0.5056 -0.9883
14930TIP3    H266206   6.788   6.853   3.430 -2.0519 -0.7787 -1.6245
14931TIP3   OH266207   1.466   5.721  14.591  0.4826  0.1590 -0.4394
14931TIP3    H166208   1.484   5.714  14.498 -1.0737  0.7529 -0.8090
14931TIP3    H266209   1.379   5.682  14.602  0.2727  0.8793  0.6172
14932TIP3   OH266210   0.742   0.232  16.598  0.3204  0.1407  0.1308
14932TIP3    H166211   0.795   0.153  16.610  0.4151  0.1575 -0.1871
14932TIP3    H266212   0.668   0.220  16.658  0.0008 -0.4833 -0.3793
14933TIP3   OH266213   5.478   0.784  13.607 -0.1710  0.1931  0.3114
14933TIP3    H166214   5.390   0.752  13.621 -0.2870  0.3305 -0.0892
14933TIP3    H266215   5.535   0.714  13.638 -0.4197 -0.3561 -0.4588
14934TIP3   OH266216   4.397   1.688  15.711 -0.0249  0.5835 -0.8700
14934TIP3    H166217   4.407   1.680  15.616 -1.1607 -0.7686 -0.9066
14934TIP3    H266218   4.338   1.617  15.735 -0.6973  1.6230  0.7006
14935TIP3   OH266219   6.375   3.948   3.858  0.0699 -0.4969  0.0024
14935TIP3    H166220   6.336   3.924   3.774  1.3135  2.5007 -1.5946
14935TIP3    H266221   6.469   3.931   3.846  0.3051  0.2998  0.6137
14936TIP3   OH266222   2.548   3.086   5.167  0.3973  0.6858 -0.3906
14936TIP3    H166223   2.530   3.126   5.082  0.2977 -1.1478 -1.2825
14936TIP3    H266224   2.626   3.033   5.153 -0.2846 -0.5631  0.3282
14937TIP3   OH266225   2.952   0.199   1.202  0.0837 -0.0172 -0.3852
14937TIP3    H166226   2.936   0.287   1.168  0.1654  0.0425 -0.2716
14937TIP3    H266227   3.036   0.206   1.249  0.1797 -0.1994 -0.5290
14938TIP3   OH266228   6.053   4.848   1.007 -0.0011  0.0349 -0.1618
14938TIP3    H166229   6.075   4.911   1.076 -2.4396 -0.0887  0.8179
14938TIP3    H266230   6.137   4.828   0.966  1.2368  1.7632  1.3442
14939TIP3   OH266231   4.095   4.696   4.128  0.3119  0.5277 -0.7377
14939TIP3    H166232   4.079   4.614   4.174  1.5538  0.3502 -0.5987
14939TIP3    H266233   4.032   4.696   4.056  1.1868 -1.1817 -1.5449
14940TIP3   OH266234   3.980   5.197   3.614 -0.3691  0.3403 -0.6844
14940TIP3    H166235   3.957   5.245   3.535 -0.3306 -0.2456 -1.0639
14940TIP3    H266236   3.917   5.124   3.616 -0.0345  0.0583 -0.4586
14941TIP3   OH266237   0.370   4.859  15.518 -0.0755  0.4022 -0.1515
14941TIP3    H166238   0.415   4.913  15.453 -2.1518  0.3516 -1.7189
14941TIP3    H266239   0.291   4.908  15.540  0.0372 -0.1043  1.5863
14942TIP3   OH266240   0.886   3.504  15.687  0.2568 -0.2303 -0.3013
14942TIP3    H166241   0.976   3.498  15.720  0.2199  0.0527 -0.1446
14942TIP3    H266242   0.895   3.503  15.592  0.4719  0.3353 -0.2936
14943TIP3   OH266243   5.519   1.913   3.967  0.2677 -0.2288  0.5250
14943TIP3    H166244   5.566   1.936   4.047  0.5692  1.9314 -0.2043
14943TIP3    H266245   5.498   1.998   3.927 -2.7468 -1.1354 -0.0444
14944TIP3   OH266246   6.539   3.438   4.158  0.5996 -0.1882 -0.0169
14944TIP3    H166247   6.484   3.487   4.097 -0.1947 -2.0160 -0.8596
14944TIP3    H266248   6.531   3.485   4.241 -1.0434  0.4548 -0.4893
14945TIP3   OH266249   3.453   5.257   2.563  0.1573  0.2475  0.5442
14945TIP3    H166250   3.426   5.340   2.524  0.7932  1.6450  2.8342
14945TIP3    H266251   3.415   5.259   2.651  0.2263 -1.8966  0.6653
14946TIP3   OH266252   0.566   0.594  12.288 -1.0334 -0.4527  0.0522
14946TIP3    H166253   0.489   0.601  12.343 -0.2562  1.8139  0.9947
14946TIP3    H266254   0.629   0.654  12.328  0.6504 -1.0375 -1.5861
14947TIP3   OH266255   0.274   6.682   1.250 -0.7128 -0.8677 -0.0092
14947TIP3    H166256   0.271   6.741   1.326  1.4423  0.6197 -0.9938
14947TIP3    H266257   0.351   6.709   1.202  0.3024 -4.4308 -0.6355
14948TIP3   OH266258   6.040   1.532   0.831  0.0811 -0.2877  0.2113
14948TIP3    H166259   5.995   1.470   0.889 -1.1068  0.1241 -0.2445
14948TIP3    H266260   5.973   1.597   0.809  1.1350  0.8058  0.1681
14949TIP3   OH266261   0.417   2.837  13.059  0.0266 -0.0327 -0.1409
14949TIP3    H166262   0.465   2.764  13.020  0.7179 -0.2749  1.0846
14949TIP3    H266263   0.337   2.796  13.094  0.1018 -0.0917 -0.0346
14950TIP3   OH266264   3.914   2.625  17.161  0.2489  0.3009 -0.3763
14950TIP3    H166265   3.876   2.712  17.172  1.3410  0.4858  3.1063
14950TIP3    H266266   4.008   2.638  17.174  0.4119 -1.4177  0.4334
14951TIP3   OH266267   3.282   6.043   3.354  0.0994 -0.2327 -0.3164
14951TIP3    H166268   3.246   5.974   3.298  0.3921  0.7403 -1.7863
14951TIP3    H266269   3.338   6.094   3.295 -0.3876  1.4559  0.6014
14952TIP3   OH266270   2.727   5.943   1.152 -0.2434  0.0875  0.0927
14952TIP3    H166271   2.685   6.026   1.170  0.7562  0.5387  0.4335
14952TIP3    H266272   2.808   5.966   1.107 -1.1324 -0.8448 -2.1332
14953TIP3   OH266273   3.091   2.313   6.112  0.7106 -0.0766  0.0056
14953TIP3    H166274   3.116   2.286   6.201 -0.8063 -0.6962  0.2669
14953TIP3    H266275   3.164   2.368   6.083  1.2877  0.0580  1.5937
14954TIP3   OH266276   6.534   4.405  12.559  0.3633  0.2315  0.0777
14954TIP3    H166277   6.603   4.440  12.616  1.3158  0.2669 -1.0560
14954TIP3    H266278   6.484   4.482  12.533  1.7400  0.6709 -1.4637
14955TIP3   OH266279   4.255   1.059   3.026 -0.3129  0.1475  0.1582
14955TIP3    H166280   4.216   1.071   2.940 -0.5553  3.1289  0.5770
14955TIP3    H266281   4.302   1.141   3.043  0.8028 -0.8472  2.3427
14956TIP3   OH266282   3.805   1.890   0.725 -0.3087  0.1445  0.3206
14956TIP3    H166283   3.764   1.860   0.644  1.6679 -0.7384 -0.4205
14956TIP3    H266284   3.841   1.976   0.703 -1.3627  0.7569  0.8661
14957TIP3   OH266285   4.591   1.196  11.886 -0.2658 -0.4032 -0.1764
14957TIP3    H166286   4.609   1.179  11.978 -1.0112  1.3467  0.3457
14957TIP3    H266287   4.612   1.289  11.875 -0.7745 -0.4338 -1.6175
14958TIP3   OH266288   3.167   3.127  13.719 -0.0421  0.3214  0.5389
14958TIP3    H166289   3.204   3.204  13.676 -1.5699  1.1236  0.5746
14958TIP3    H266290   3.085   3.158  13.759 -1.2862 -1.5490 -0.3867
14959TIP3   OH266291   3.734   3.986   4.496  0.0521 -0.4784  0.2356
14959TIP3    H166292   3.715   3.980   4.590  3.1837 -1.8492  0.8972
14959TIP3    H266293   3.730   3.896   4.465  0.2971 -0.1908 -0.6704
14960TIP3   OH266294   5.854   3.385  14.209 -0.3473 -0.1745 -0.0543
14960TIP3    H166295   5.864   3.290  14.216 -0.4210 -0.1071  1.1105
14960TIP3    H266296   5.760   3.399  14.215 -0.3261 -0.0153 -0.0974
14961TIP3   OH266297   3.879   3.537   1.267 -0.7284  0.7156 -0.5645
14961TIP3    H166298   3.841   3.468   1.214  0.2129  0.4780 -0.9496
14961TIP3    H266299   3.965   3.553   1.228 -0.2913  1.0014  0.4736
14962TIP3   OH266300   4.769   5.578   1.536 -0.4645 -0.0384  0.3520
14962TIP3    H166301   4.708   5.592   1.608  0.4607  2.6268  0.7309
14962TIP3    H266302   4.753   5.651   1.476  1.5698  0.1137 -0.0714
14963TIP3   OH266303   2.968   2.853  16.451 -0.1010  0.3595  0.1304
14963TIP3    H166304   2.939   2.779  16.504 -0.1186  1.2654  1.4181
14963TIP3    H266305   2.895   2.871  16.392  0.3274 -1.3257 -0.9857
14964TIP3   OH266306   2.776   3.584   3.294 -0.1159  0.7279  0.1560
14964TIP3    H166307   2.815   3.616   3.213  0.5204  0.3535  0.3078
14964TIP3    H266308   2.819   3.634   3.363  3.1652 -2.3854  0.6612
14965TIP3   OH266309   0.128   6.589   3.594  0.3661  0.2850 -0.3614
14965TIP3    H166310   0.084   6.668   3.561 -0.4735  1.1746  2.6103
14965TIP3    H266311   0.188   6.621   3.661 -0.7919 -1.6275  1.7039
14966TIP3   OH266312   5.827   1.931  11.484  0.1560  0.5190 -0.0190
14966TIP3    H166313   5.823   1.837  11.504 -2.7771  0.7939  1.1768
14966TIP3    H266314   5.778   1.941  11.403 -1.7667  1.2285  1.1641
14967TIP3   OH266315   5.410   5.925   5.624 -0.0246  0.3830  0.2420
14967TIP3    H166316   5.348   5.980   5.671 -0.8156  0.4903 -0.8891
14967TIP3    H266317   5.468   5.891   5.692  0.3277  2.3758  1.0141
14968TIP3   OH266318   2.509   2.416  16.964 -0.6415  0.1671 -0.4344
14968TIP3    H166319   2.536   2.365  17.041 -1.1302 -0.4420 -0.6575
14968TIP3    H266320   2.492   2.350  16.897 -0.4098  0.6853 -1.0086
14969TIP3   OH266321   1.089   0.873   2.229  0.6790  0.0370  0.3012
14969TIP3    H166322   1.063   0.959   2.198 -0.0918 -0.0085  0.7722
14969TIP3    H266323   1.176   0.859   2.193  0.7649  0.9606  0.1286
14970TIP3   OH266324   2.860   5.284   1.832 -0.4189 -0.4721  0.0563
14970TIP3    H166325   2.902   5.198   1.839  1.3128  0.3429  0.0405
14970TIP3    H266326   2.782   5.276   1.888  0.8141 -1.4167  1.7546
14971TIP3   OH266327   0.698   5.863   4.298 -0.3866  0.5246  0.2204
14971TIP3    H166328   0.628   5.923   4.324 -0.0419  1.3349 -0.6604
14971TIP3    H266329   0.756   5.917   4.243 -0.7967 -0.9391 -1.7627
14972TIP3   OH266330   3.617   3.313  12.868  0.5026  0.3931  0.1453
14972TIP3    H166331   3.666   3.387  12.831  0.0798  0.7848  0.3499
14972TIP3    H266332   3.540   3.304  12.812 -0.1801  1.0357  0.9397
14973TIP3   OH266333   6.684   1.614  16.956  0.0784 -0.2604  0.1202
14973TIP3    H166334   6.666   1.554  17.029 -0.9144 -0.8182 -0.5571
14973TIP3    H266335   6.707   1.697  16.998 -0.5695 -0.5408  1.0623
14974TIP3   OH266336   2.474   3.531   4.009 -0.1565  0.0439 -0.1786
14974TIP3    H166337   2.554   3.484   3.989  0.6570  0.5040  1.7251
14974TIP3    H266338   2.426   3.473   4.069 -0.0250  0.8055  0.6928
14975TIP3   OH266339   6.059   2.011  13.507  0.0578 -0.2630  0.3697
14975TIP3    H166340   6.145   1.991  13.543  0.7692  3.3189  1.0474
14975TIP3    H266341   6.003   2.023  13.584 -0.3269  0.1362  0.0367
14976TIP3   OH266342   0.835   4.280   4.855 -0.0958 -0.1900  0.3021
14976TIP3    H166343   0.839   4.318   4.767 -0.7190 -0.2961  0.2222
14976TIP3    H266344   0.860   4.352   4.913 -1.8576  0.5501  0.1952
14977TIP3   OH266345   1.100   0.517   5.689  0.1252  0.1234  0.4712
14977TIP3    H166346   1.125   0.464   5.614  2.9698  3.8450 -1.5786
14977TIP3    H266347   1.017   0.557   5.663 -1.3794 -2.1787  1.4968
14978TIP3   OH266348   5.010   3.317  14.402  0.7998  0.1335 -0.0770
14978TIP3    H166349   5.067   3.382  14.361  1.5312  1.8130  3.2994
14978TIP3    H266350   5.059   3.285  14.477 -2.2355  1.0021  2.5038
14979TIP3   OH266351   6.417   1.648  14.101  0.2457  0.7972 -0.6432
14979TIP3    H166352   6.462   1.712  14.156 -1.3329  0.2220  1.4267
14979TIP3    H266353   6.471   1.569  14.108 -0.2950  0.5257  0.6850
14980TIP3   OH266354   3.693   5.104   1.187 -0.2064  0.4584  0.0808
14980TIP3    H166355   3.741   5.131   1.109  0.8953  0.6023  0.7938
14980TIP3    H266356   3.647   5.024   1.160  1.1362 -0.1936 -0.3874
14981TIP3   OH266357   4.626   3.736  14.351  0.5003 -0.2409  0.3772
14981TIP3    H166358   4.563   3.755  14.420  0.6659  0.4062  0.3525
14981TIP3    H266359   4.603   3.648  14.321 -1.5611  0.6618 -0.8674
14982TIP3   OH266360   4.345   3.467  13.333  0.0398  0.1957 -0.3739
14982TIP3    H166361   4.358   3.408  13.408 -0.6307  0.3108 -0.1614
14982TIP3    H266362   4.425   3.520  13.331  1.2074 -1.5136 -1.3120
14983TIP3   OH266363   0.460   4.694   5.749 -0.5602 -0.0832 -0.1589
14983TIP3    H166364   0.440   4.683   5.656  0.6186  0.0130 -0.4357
14983TIP3    H266365   0.549   4.660   5.759  0.2394  2.0145  0.4563
14984TIP3   OH266366   3.207   4.629   2.774 -0.6836 -0.2248  0.5530
14984TIP3    H166367   3.143   4.700   2.780 -1.2852 -0.8011  1.1532
14984TIP3    H266368   3.205   4.603   2.682 -0.0038  0.9292  0.1928
14985TIP3   OH266369   0.468   2.968  15.798 -0.2176  0.2740  0.0861
14985TIP3    H166370   0.519   2.894  15.831 -1.1742  0.0085  1.0299
14985TIP3    H266371   0.451   3.022  15.875 -1.0382  0.5425 -0.2699
14986TIP3   OH266372   6.435   1.046   2.802 -0.9785 -0.0072  0.1756
14986TIP3    H166373   6.505   0.985   2.778 -0.4947  0.8271 -0.6146
14986TIP3    H266374   6.480   1.117   2.848 -1.4142  0.1959  0.2927
14987TIP3   OH266375   3.191   0.230   1.317 -0.2891 -0.0947  0.4104
14987TIP3    H166376   3.236   0.162   1.366 -0.2686 -0.8928 -0.6692
14987TIP3    H266377   3.179   0.301   1.380  0.2970 -0.8203  1.3766
14988TIP3   OH266378   2.247   4.968  12.852 -0.4248 -0.7975 -0.8695
14988TIP3    H166379   2.193   4.997  12.926 -0.2580  1.7997 -1.6570
14988TIP3    H266380   2.326   4.933  12.893 -0.5838  0.0395  0.2052
14989TIP3   OH266381   2.985   2.545  13.174 -0.3112 -0.4690 -0.2427
14989TIP3    H166382   3.043   2.506  13.108  0.6487 -0.4054  0.5355
14989TIP3    H266383   3.008   2.638  13.174 -0.4587 -0.4309  0.0277
14990TIP3   OH266384   2.372   4.646   6.329  0.1510  1.1848  0.5488
14990TIP3    H166385   2.292   4.698   6.321  0.1845  1.1226 -0.2621
14990TIP3    H266386   2.358   4.570   6.273  0.2379  0.4756  1.4652
14991TIP3   OH266387   2.461   6.742   4.457  0.3909  0.2042 -0.3172
14991TIP3    H166388   2.449   6.813   4.520 -2.0661  1.0035 -1.5775
14991TIP3    H266389   2.513   6.677   4.505 -1.6491  0.5909  2.7249
14992TIP3   OH266390   4.277   1.021   5.495 -0.3457  0.2740 -0.3400
14992TIP3    H166391   4.189   1.009   5.459 -0.8300 -0.1297  0.9215
14992TIP3    H266392   4.293   0.941   5.545 -0.4654  1.5116  1.8319
14993TIP3   OH266393   2.543   3.396   3.115 -0.0405  0.6157 -0.0312
14993TIP3    H166394   2.613   3.355   3.165 -1.5447 -0.4493  1.3264
14993TIP3    H266395   2.536   3.344   3.035  0.0776  0.1117  0.2819
14994TIP3   OH266396   0.053   1.828  15.064 -0.5843  0.2161  0.0418
14994TIP3    H166397   0.043   1.812  15.158  1.0088  0.2618  0.2334
14994TIP3    H266398  -0.026   1.790  15.025 -2.2242  1.8556  1.5570
14995TIP3   OH266399   3.416   2.917   4.720  0.3010 -0.0718  0.7121
14995TIP3    H166400   3.399   2.962   4.803  1.8571 -0.5784  1.3479
14995TIP3    H266401   3.479   2.974   4.675  0.8333 -0.6583  0.6937
14996TIP3   OH266402   6.141   4.603   1.595  0.1090 -0.3627  0.6919
14996TIP3    H166403   6.141   4.658   1.516 -2.6629  2.2174  2.2464
14996TIP3    H266404   6.115   4.517   1.564 -2.0520  0.8302 -1.1685
14997TIP3   OH266405   3.901   5.683   3.365  0.2579 -0.5467  0.0768
14997TIP3    H166406   3.935   5.758   3.316  0.2404 -0.4530  0.2078
14997TIP3    H266407   3.806   5.696   3.366  0.3535  0.1533  1.2680
14998TIP3   OH266408   3.124   0.693   3.627 -0.2915  0.5042 -0.1211
14998TIP3    H166409   3.149   0.702   3.535  1.0127  0.6085  0.2347
14998TIP3    H266410   3.157   0.607   3.652 -1.0346  0.2855  0.1490
14999TIP3   OH266411   3.148   0.393   5.723  0.4280 -0.1912  0.7153
14999TIP3    H166412   3.115   0.305   5.743  0.2266 -0.2442  0.1702
14999TIP3    H266413   3.070   0.448   5.721  0.3927 -0.2651 -0.3058
15000TIP3   OH266414   2.554   2.194   2.644  0.4314 -0.0122 -0.0625
15000TIP3    H166415   2.496   2.270   2.656  0.4355  0.3771 -2.0992
15000TIP3    H266416   2.586   2.174   2.732 -1.3590  0.9061  0.8573
15001TIP3   OH266417   6.354   4.001   0.768 -0.0197  0.5175  0.3298
15001TIP3    H166418   6.324   3.923   0.815  3.2846 -0.5907  0.9012
15001TIP3    H266419   6.327   3.987   0.677  0.0720 -1.0809  0.5251
15002TIP3   OH266420   4.177   0.534  15.596 -0.2373 -0.3677 -0.5151
15002TIP3    H166421   4.179   0.472  15.669 -1.5943 -0.0670 -0.2093
15002TIP3    H266422   4.090   0.574  15.600  0.2104  0.7497 -1.3874
15003TIP3   OH266423   2.979   1.803   0.075  0.7207 -0.0041 -0.5591
15003TIP3    H166424   2.906   1.848   0.117  0.0336 -1.8033  0.2719
15003TIP3    H266425   2.943   1.772  -0.008  0.8438 -0.0156 -0.6075
15004TIP3   OH266426   2.983   0.092   1.785  0.0059  0.7577 -0.1366
15004TIP3    H166427   2.967   0.184   1.806  1.4801  1.5037 -1.9560
15004TIP3    H266428   3.014   0.094   1.694 -1.5984 -1.7177 -0.8408
15005TIP3   OH266429   3.926   2.120  12.814 -0.1714  0.0850 -0.2130
15005TIP3    H166430   3.891   2.153  12.731  0.2532  1.5625  0.1687
15005TIP3    H266431   3.982   2.047  12.790  0.8207  1.1937 -1.3416
15006TIP3   OH266432   6.697   5.307  16.679  0.2154 -0.2154  0.0215
15006TIP3    H166433   6.692   5.321  16.774  0.1234  1.8761 -0.2405
15006TIP3    H266434   6.783   5.340  16.654  0.0937 -0.4119 -0.6779
15007TIP3   OH266435   0.128   1.324   0.237 -0.5935 -0.0128 -0.1316
15007TIP3    H166436   0.079   1.399   0.202  0.6323 -0.0416 -2.0619
15007TIP3    H266437   0.172   1.287   0.161  0.2396 -1.6489  1.0882
15008TIP3   OH266438   0.792   5.906  12.357 -0.2811 -0.7534  0.4480
15008TIP3    H166439   0.784   5.813  12.338  0.6928 -0.7863  0.1339
15008TIP3    H266440   0.789   5.911  12.453  0.5547 -1.2167  0.5134
15009TIP3   OH266441   4.021   0.372   6.680 -0.1796 -0.5101  0.0093
15009TIP3    H166442   4.017   0.358   6.585 -0.8442 -3.3671  0.3663
15009TIP3    H266443   4.113   0.362   6.702 -0.0569 -0.0774 -0.2889
15010TIP3   OH266444   3.229   1.175  15.272 -0.3589  0.0241  0.6907
15010TIP3    H166445   3.307   1.120  15.280  0.3051  1.1077  2.1282
15010TIP3    H266446   3.157   1.113  15.258  0.2548 -1.3087  2.8661
15011TIP3   OH266447   0.776   1.247   5.196 -0.2088 -0.3587 -0.2427
15011TIP3    H166448   0.838   1.214   5.131 -1.0137 -0.8919 -0.7442
15011TIP3    H266449   0.831   1.268   5.272  0.6241 -0.5469 -0.7814
15012TIP3   OH266450   4.985   5.589  14.471  0.2214  0.0504 -0.3358
15012TIP3    H166451   5.007   5.633  14.553  0.0240  1.2299 -0.8949
15012TIP3    H266452   5.070   5.566  14.432  0.3835  1.2007 -0.6949
15013TIP3   OH266453   6.348   5.963  14.059  0.0137 -0.3218  0.1588
15013TIP3    H166454   6.266   5.915  14.073  0.0204  0.0931  1.7227
15013TIP3    H266455   6.365   5.953  13.965 -2.0887 -0.0275 -0.3130
15014TIP3   OH266456   3.097   3.098   4.144  0.0201  0.3579  0.2945
15014TIP3    H166457   3.174   3.156   4.147  0.2611  0.1306 -0.7988
15014TIP3    H266458   3.126   3.018   4.187  0.1583  0.5430  0.5472
15015TIP3   OH266459   0.509   1.157   5.180 -0.4983 -0.0629  0.0364
15015TIP3    H166460   0.586   1.181   5.231  1.0378 -1.6116 -1.4298
15015TIP3    H266461   0.460   1.098   5.236 -0.4128  0.6086  0.8279
15016TIP3   OH266462   2.932   5.927   3.713  0.4071  0.7284 -0.1247
15016TIP3    H166463   2.841   5.899   3.711  0.0614  1.8237 -0.3809
15016TIP3    H266464   2.936   5.999   3.651  0.7682  2.6733  2.0379
15017TIP3   OH266465   0.427   3.112  10.296  0.4882 -0.3649 -0.1426
15017TIP3    H166466   0.483   3.149  10.227 -0.1590  0.0324 -0.4628
15017TIP3    H266467   0.463   3.147  10.377 -0.6126  1.7060 -0.4809
15018TIP3   OH266468   1.104   3.961   3.262  0.7628  0.7510  0.0380
15018TIP3    H166469   1.121   3.961   3.356 -0.5825  0.1618  0.3141
15018TIP3    H266470   1.050   3.882   3.248 -0.7729  1.9086 -0.8813
15019TIP3   OH266471   0.568   5.238  11.720 -0.2955  0.2644 -0.3764
15019TIP3    H166472   0.529   5.320  11.752 -0.1547 -0.4731  1.8376
15019TIP3    H266473   0.497   5.193  11.675 -0.8218  0.8475 -0.1352
15020TIP3   OH266474   3.025   1.145  12.596  0.5989  0.0436 -0.1256
15020TIP3    H166475   3.058   1.231  12.571  0.5954 -0.1602 -0.8481
15020TIP3    H266476   3.090   1.083  12.563 -0.2341 -0.3282 -1.0952
15021TIP3   OH266477   6.185   2.339   4.633 -0.5056  0.3961  0.5598
15021TIP3    H166478   6.135   2.258   4.645 -0.1884  0.1507  0.2404
15021TIP3    H266479   6.271   2.320   4.670 -0.2892  0.4372  0.0856
15022TIP3   OH266480   3.360   0.443   2.063 -0.1998  0.4660  0.3794
15022TIP3    H166481   3.451   0.414   2.069 -0.3676 -0.1722 -0.0431
15022TIP3    H266482   3.309   0.363   2.069 -0.6712  0.6330 -1.0117
15023TIP3   OH266483   1.862   6.264   5.246 -0.9138  0.4954  0.4496
15023TIP3    H166484   1.938   6.219   5.282 -0.1074  0.3984 -1.3031
15023TIP3    H266485   1.806   6.193   5.213 -0.3517  0.6699 -0.9384
15024TIP3   OH266486   0.164   3.257  15.025  0.1502 -0.0500  0.6196
15024TIP3    H166487   0.192   3.191  14.961  0.6644 -0.0130  0.7953
15024TIP3    H266488   0.166   3.340  14.977 -1.3194 -0.2580  0.1643
15025TIP3   OH266489   0.031   5.806  15.845  0.6312  0.4601 -0.0160
15025TIP3    H166490   0.026   5.756  15.926  0.6421  0.5746  0.0563
15025TIP3    H266491   0.083   5.884  15.868  1.6491 -0.0756 -0.4151
15026TIP3   OH266492   3.395   0.590  11.366  0.2495  0.1884  0.4150
15026TIP3    H166493   3.326   0.589  11.433 -0.8464 -0.8862 -0.6681
15026TIP3    H266494   3.347   0.585  11.283  1.6569 -1.6106 -0.3435
15027TIP3   OH266495   3.271   3.755   3.239  0.6698 -0.5631  0.8068
15027TIP3    H166496   3.208   3.704   3.188 -0.6585  1.6242  0.1195
15027TIP3    H266497   3.355   3.737   3.197  0.5170 -3.1984  1.4569
15028TIP3   OH266498   2.417   4.433   5.890  0.0037 -0.8731  0.1504
15028TIP3    H166499   2.344   4.424   5.829 -0.4237 -0.6710  0.6262
15028TIP3    H266500   2.376   4.447   5.975  0.5767 -1.9403  0.6213
15029TIP3   OH266501   6.285   5.909  15.531  0.2994  0.3019  0.1720
15029TIP3    H166502   6.340   5.906  15.609 -0.4756  1.4386  0.7883
15029TIP3    H266503   6.335   5.861  15.465  1.2136 -0.2207  1.2005
15030TIP3   OH266504   2.364   0.603   0.721 -0.3017  0.0152  0.4051
15030TIP3    H166505   2.424   0.664   0.678 -0.2618 -0.4165 -0.1642
15030TIP3    H266506   2.345   0.644   0.805 -0.4060  0.9008 -0.0331
15031TIP3   OH266507   5.581   6.509   4.021  0.5339 -0.5343 -0.2464
15031TIP3    H166508   5.610   6.458   4.096  0.6981 -1.6273 -1.0241
15031TIP3    H266509   5.487   6.489   4.014  0.3652  0.1164  0.0747
15032TIP3   OH266510   2.816   3.895   2.851  0.0502  0.1107 -0.1882
15032TIP3    H166511   2.836   3.886   2.758 -3.0514  0.7361 -1.0134
15032TIP3    H266512   2.870   3.969   2.880  2.7767 -1.4664 -0.8009
15033TIP3   OH266513   4.456   6.466  11.171 -0.0443 -0.3226  0.3247
15033TIP3    H166514   4.551   6.455  11.166 -0.0858 -0.7348  0.3883
15033TIP3    H266515   4.430   6.490  11.082  0.0250 -0.9923  0.1198
15034TIP3   OH266516   1.570   6.604  13.325  0.1739 -0.4834  0.2223
15034TIP3    H166517   1.582   6.588  13.232 -0.0176  1.3814 -0.1663
15034TIP3    H266518   1.539   6.694  13.330  0.3438 -0.4846  2.1073
15035TIP3   OH266519   5.708   3.899  13.957  0.6064  0.3372 -0.3578
15035TIP3    H166520   5.689   3.834  13.890 -0.8675  1.5035 -1.1365
15035TIP3    H266521   5.623   3.917  13.998  1.3696  0.0811  1.4551
15036TIP3   OH266522   6.217   4.531   6.617  0.1941 -0.5178 -0.6949
15036TIP3    H166523   6.256   4.552   6.532  0.6169  0.7360 -0.2263
15036TIP3    H266524   6.211   4.436   6.618  1.9287 -0.6843 -1.3872
15037TIP3   OH266525   4.357   0.544  10.627 -0.4587  0.5813  0.0245
15037TIP3    H166526   4.296   0.494  10.681 -0.4380  0.7864  0.2409
15037TIP3    H266527   4.437   0.548  10.679  0.3788 -1.2509 -1.0236
15038TIP3   OH266528   6.098   0.577  13.348 -0.5837 -0.3530 -0.2161
15038TIP3    H166529   6.069   0.496  13.307  0.1308  0.0312 -1.5162
15038TIP3    H266530   6.017   0.616  13.383 -0.8821 -1.8095  0.8378
15039TIP3   OH266531   3.469   2.913  12.061  0.2887 -0.1669  0.5639
15039TIP3    H166532   3.391   2.963  12.037  0.2219  0.4090  1.9166
15039TIP3    H266533   3.470   2.913  12.156  1.1170 -1.4856  0.5898
15040TIP3   OH266534   5.979   4.418  11.217 -1.0558 -0.1820 -0.2800
15040TIP3    H166535   5.930   4.494  11.246 -0.3392 -0.6087  2.3441
15040TIP3    H266536   6.065   4.452  11.192 -0.6519 -0.1101  1.1300
15041TIP3   OH266537   3.085   2.205   0.192 -0.6089  0.5881 -0.2101
15041TIP3    H166538   3.021   2.276   0.196 -0.8756  0.3067  0.7081
15041TIP3    H266539   3.057   2.144   0.260 -0.0952 -0.1575 -0.6584
15042TIP3   OH266540   5.737   1.599  10.867 -0.1210 -0.1571  0.4334
15042TIP3    H166541   5.650   1.635  10.885  0.4821  1.1451  0.8770
15042TIP3    H266542   5.727   1.556  10.782 -1.0623  0.4292  0.2271
15043TIP3   OH266543   0.032   3.589  14.551  0.2832 -0.0743 -0.2617
15043TIP3    H166544   0.026   3.648  14.626 -4.0682  0.0801 -0.5125
15043TIP3    H266545   0.043   3.648  14.476 -0.6927  0.2176 -0.1913
15044TIP3   OH266546   2.208   4.061  13.747  0.2881  0.5272  0.3785
15044TIP3    H166547   2.228   4.123  13.677  0.5539 -0.1682 -0.1815
15044TIP3    H266548   2.276   4.074  13.812  0.4397  0.7053  0.1852
15045TIP3   OH266549   0.204   6.707   0.649  0.5314 -0.4199  0.2084
15045TIP3    H166550   0.287   6.709   0.696 -0.0949 -0.2642  1.3364
15045TIP3    H266551   0.197   6.617   0.617  1.4974 -0.2300 -0.5843
15046TIP3   OH266552   6.773   5.733   2.105  0.1965 -0.3244 -0.0396
15046TIP3    H166553   6.861   5.697   2.095  0.7079  0.6051  0.9602
15046TIP3    H266554   6.786   5.818   2.147 -1.0779  0.4658 -1.1822
15047TIP3   OH266555   2.848   2.863  14.088  0.4218 -0.2866  0.0918
15047TIP3    H166556   2.842   2.783  14.036  0.0671 -0.1180 -0.1276
15047TIP3    H266557   2.764   2.870  14.132 -0.2041  0.8581 -1.2133
15048TIP3   OH266558   3.211   0.437  16.764  0.5092  0.1149 -0.1054
15048TIP3    H166559   3.252   0.514  16.724 -2.1061  1.7454  0.0925
15048TIP3    H266560   3.153   0.403  16.696 -1.0905  0.5924  0.9641
15049TIP3   OH266561   3.955   4.120   2.059 -0.3657 -0.4557 -0.7646
15049TIP3    H166562   3.965   4.215   2.062 -0.4872 -0.4256 -1.2931
15049TIP3    H266563   4.039   4.087   2.091 -0.0518 -0.1680 -1.2648
15050TIP3   OH266564   2.482   5.759  13.199 -0.0132 -0.4416  0.6228
15050TIP3    H166565   2.451   5.842  13.234 -0.2038 -0.1093 -0.3080
15050TIP3    H266566   2.576   5.758  13.217 -0.1937 -0.5083  1.5866
15051TIP3   OH266567   2.936   6.133   4.861 -0.5699 -0.2857 -0.3481
15051TIP3    H166568   2.882   6.146   4.939  1.3969 -1.9887  1.4239
15051TIP3    H266569   2.920   6.043   4.835  0.5431 -0.4614 -0.4768
15052TIP3   OH266570   5.076   1.401   4.065 -0.3121 -0.5318  0.2618
15052TIP3    H166571   5.137   1.451   4.010  1.0846 -1.7516  0.6387
15052TIP3    H266572   5.034   1.468   4.120  2.1650  0.2449  1.3988
15053TIP3   OH266573   4.740   5.105  12.329  0.2061  0.4543  0.0452
15053TIP3    H166574   4.745   5.087  12.235  0.4746 -1.0996  0.3431
15053TIP3    H266575   4.790   5.186  12.340  1.8044 -0.3499 -0.8943
15054TIP3   OH266576   1.892   3.088  15.476 -0.0901  0.0601  0.1830
15054TIP3    H166577   1.932   3.072  15.391  0.7223 -0.7057  0.6819
15054TIP3    H266578   1.830   3.159  15.461 -2.0895 -1.9349 -1.6581
15055TIP3   OH266579   4.777   3.612   5.727 -0.1842 -0.0490 -0.2667
15055TIP3    H166580   4.853   3.603   5.785 -0.3226  1.6042  0.2498
15055TIP3    H266581   4.812   3.656   5.649 -0.8904  2.8703  0.8997
15056TIP3   OH266582   3.698   0.742  16.756 -0.5616 -0.4531 -0.0731
15056TIP3    H166583   3.726   0.834  16.761 -1.0079 -0.3810  1.7089
15056TIP3    H266584   3.695   0.713  16.847 -0.7733 -2.1410 -0.5927
15057TIP3   OH266585   0.454   0.185  15.371  0.1239  0.0841 -0.1119
15057TIP3    H166586   0.459   0.277  15.348  0.2743 -0.3283 -1.9022
15057TIP3    H266587   0.515   0.174  15.444  0.0285  1.3995  0.1780
15058TIP3   OH266588   3.563   4.234  12.832  0.2519 -0.1264 -0.0403
15058TIP3    H166589   3.605   4.259  12.749  0.5182  3.3165  0.9637
15058TIP3    H266590   3.482   4.191  12.806  1.2431 -0.9426 -2.0444
15059TIP3   OH266591   3.938   6.446  11.029 -0.3061  0.2452 -0.1909
15059TIP3    H166592   3.983   6.463  10.946  0.3115 -3.1093 -0.6787
15059TIP3    H266593   3.855   6.406  11.004 -0.4950 -0.0040  0.8120
15060TIP3   OH266594   3.012   1.745   6.365  0.6256 -0.1058 -0.3982
15060TIP3    H166595   3.053   1.815   6.415  1.2076 -1.2441  0.8045
15060TIP3    H266596   3.051   1.751   6.278  2.1475 -0.1370  0.2517
15061TIP3   OH266597   5.005   0.050   5.868  0.5126  0.1485 -0.2602
15061TIP3    H166598   4.933   0.082   5.922  0.4050  0.9087 -0.8416
15061TIP3    H266599   5.042  -0.023   5.918  0.4979  0.9087  0.8891
15062TIP3   OH266600   1.613   5.086  15.079 -0.7156 -0.4433  0.3042
15062TIP3    H166601   1.573   5.085  14.992 -1.6549  0.9267  0.6804
15062TIP3    H266602   1.588   5.171  15.115  0.4690 -0.5911  1.5453
15063TIP3   OH266603   2.139   0.048   6.107  0.1340 -0.6085 -0.0366
15063TIP3    H166604   2.060   0.072   6.155 -0.5384 -0.4671 -1.1726
15063TIP3    H266605   2.208   0.045   6.173 -1.3992 -4.0782  1.6901
15064TIP3   OH266606   5.223   0.556   1.483  0.2492 -0.1529  0.5336
15064TIP3    H166607   5.173   0.497   1.540  0.8602 -1.6993 -0.4796
15064TIP3    H266608   5.159   0.588   1.420 -0.1798  0.6559  1.3526
15065TIP3   OH266609   5.311   0.143  10.351 -0.5824 -0.2483 -0.1723
15065TIP3    H166610   5.235   0.167  10.297 -0.9153  2.0601  1.1788
15065TIP3    H266611   5.284   0.162  10.441  1.1066 -0.7683  0.4914
15066TIP3   OH266612   1.251   0.720   1.968  0.0731  0.3188 -0.9044
15066TIP3    H166613   1.346   0.734   1.976  0.5627 -2.1101 -1.5749
15066TIP3    H266614   1.227   0.763   1.886  0.3584  1.7955 -0.2510
15067TIP3   OH266615   6.682   0.141  11.760 -0.3424 -0.2848 -0.6925
15067TIP3    H166616   6.746   0.174  11.824  0.6081  0.1683 -1.8447
15067TIP3    H266617   6.725   0.066  11.720 -0.0726  0.6287 -2.1911
15068TIP3   OH266618   1.034   2.469  10.596  0.2921  0.2146  0.3880
15068TIP3    H166619   1.096   2.458  10.524  0.6120 -1.6385  0.9105
15068TIP3    H266620   1.003   2.560  10.587  0.1982 -0.0085 -2.1488
15069TIP3   OH266621   3.651   6.136   5.288  0.4346  0.3482 -0.2903
15069TIP3    H166622   3.599   6.208   5.253 -0.0481  0.0406 -0.2128
15069TIP3    H266623   3.727   6.178   5.328 -0.4903  0.9204  0.9152
15070TIP3   OH266624   2.629   0.777  16.057  0.1825  0.0357  0.9399
15070TIP3    H166625   2.666   0.707  16.002  0.6837  0.5638  0.5978
15070TIP3    H266626   2.535   0.774  16.039 -0.1453 -1.9501  2.5228
15071TIP3   OH266627   2.396   4.035  16.202  0.1303  0.2177 -0.2247
15071TIP3    H166628   2.352   3.974  16.262  0.2073  0.8906  0.5227
15071TIP3    H266629   2.488   4.008  16.204 -0.5198 -3.6507 -4.6226
15072TIP3   OH266630   4.584   2.994   0.922  0.4904 -0.2254 -0.3475
15072TIP3    H166631   4.547   2.964   1.005 -0.1472  0.2854 -0.4381
15072TIP3    H266632   4.679   2.993   0.937  0.3946 -0.4200  0.2888
15073TIP3   OH266633   5.595   5.337   2.834 -0.6363  0.1441  0.4274
15073TIP3    H166634   5.539   5.352   2.910 -1.9162  1.3115 -0.6761
15073TIP3    H266635   5.594   5.242   2.822  0.0018 -0.1014  2.1284
15074TIP3   OH266636   2.523   3.388  11.882  0.1453  0.6708 -0.1129
15074TIP3    H166637   2.575   3.355  11.809  1.7006  1.2059  0.7037
15074TIP3    H266638   2.568   3.467  11.911 -0.0142  0.1031  1.8571
15075TIP3   OH266639   2.841   4.292   4.523  0.0764  0.1574  0.2486
15075TIP3    H166640   2.869   4.232   4.592  0.7917  0.9778  0.6841
15075TIP3    H266641   2.778   4.350   4.567  0.3712  0.5453  0.1618
15076TIP3   OH266642   4.110   0.486   5.402  0.3700  0.2484 -0.0527
15076TIP3    H166643   4.076   0.530   5.480  1.1640 -2.4882  2.0199
15076TIP3    H266644   4.205   0.486   5.414  0.4525 -0.9205 -0.5864
15077TIP3   OH266645   0.760   4.007  14.401 -0.0750  0.6764 -0.0294
15077TIP3    H166646   0.749   4.061  14.480  0.2617  0.8620 -0.1098
15077TIP3    H266647   0.851   3.979  14.403 -0.5501 -0.9083  0.6535
15078TIP3   OH266648   2.531   0.892   3.515  0.0423  0.1042  0.0172
15078TIP3    H166649   2.550   0.928   3.428 -0.8910 -2.0517 -1.1516
15078TIP3    H266650   2.616   0.880   3.555  0.6727 -1.0166 -1.5520
15079TIP3   OH266651   0.562   0.377   4.957  0.2747 -0.4043 -0.7579
15079TIP3    H166652   0.577   0.286   4.984 -0.2237  0.1743  1.7004
15079TIP3    H266653   0.649   0.411   4.938  0.8941 -0.4979  1.5962
15080TIP3   OH266654   2.982   6.190   1.275 -0.5008  0.0341 -0.5571
15080TIP3    H166655   2.995   6.102   1.312 -2.5922 -0.0092  0.2163
15080TIP3    H266656   2.893   6.188   1.240 -0.6179  1.8790 -0.4404
15081TIP3   OH266657   1.107   6.731  12.097 -0.4821  0.3027 -0.3169
15081TIP3    H166658   1.126   6.770  12.012  1.4189 -1.8265 -1.0028
15081TIP3    H266659   1.143   6.792  12.161  3.2558 -0.5191 -1.3746
15082TIP3   OH266660   5.115   6.656   6.026 -0.5774  0.0370 -0.7095
15082TIP3    H166661   5.105   6.584   5.964  0.3384 -2.3802  1.7365
15082TIP3    H266662   5.044   6.643   6.089  0.9417 -0.2053  1.0488
15083TIP3   OH266663   2.599   1.375  14.447  0.6534  0.6130 -0.0801
15083TIP3    H166664   2.563   1.446  14.393  1.5026  0.4364 -0.9102
15083TIP3    H266665   2.686   1.405  14.470  1.0983 -0.2360 -0.6103
15084TIP3   OH266666   1.632   3.832  14.670  0.5559 -0.7678 -0.3310
15084TIP3    H166667   1.641   3.805  14.579  0.5248  1.7274 -1.1236
15084TIP3    H266668   1.599   3.921  14.666  0.6072 -0.5687  2.1397
15085TIP3   OH266669   6.507   5.371   5.272 -0.8855 -0.5125 -0.3853
15085TIP3    H166670   6.588   5.373   5.220 -0.8121 -2.4681 -0.4127
15085TIP3    H266671   6.443   5.417   5.217  0.4644  2.4228  0.2650
15086TIP3   OH266672   0.045   3.633   0.593 -0.1980  0.2463 -0.1861
15086TIP3    H166673  -0.030   3.655   0.647 -1.1627  0.8299 -1.6792
15086TIP3    H266674   0.120   3.669   0.639 -1.1115  1.7013  0.2195
15087TIP3   OH266675   0.868   3.944   5.542  0.0664 -0.6907  0.6782
15087TIP3    H166676   0.854   3.920   5.634 -0.0107 -1.3619  0.4946
15087TIP3    H266677   0.791   3.997   5.519 -0.2042 -1.0148  0.8330
15088TIP3   OH266678   5.646   5.352   1.676 -0.2826  0.7950 -0.1451
15088TIP3    H166679   5.590   5.306   1.739 -1.6282 -0.9556 -2.4544
15088TIP3    H266680   5.735   5.341   1.709 -0.8374 -1.1057  0.8282
15089TIP3   OH266681   1.616   2.517   1.793  0.3261  0.1319 -0.1308
15089TIP3    H166682   1.568   2.473   1.722 -0.0873  0.1539  0.1308
15089TIP3    H266683   1.695   2.464   1.804  1.0003  0.8252 -1.4313
15090TIP3   OH266684   1.109   4.506  14.552  0.4538  0.7557 -0.4616
15090TIP3    H166685   1.113   4.467  14.639 -0.2178 -1.1469 -1.2386
15090TIP3    H266686   1.186   4.471  14.507  1.2314  2.3401 -0.4414
15091TIP3   OH266687   3.982   2.139  13.504 -0.1283  0.3438 -0.7745
15091TIP3    H166688   4.053   2.078  13.525 -1.8538 -0.8088  2.1515
15091TIP3    H266689   4.007   2.221  13.547  0.4036  0.6275 -1.5865
15092TIP3   OH266690   6.594   4.584   1.974  0.8454 -0.2586  0.3201
15092TIP3    H166691   6.607   4.490   1.985 -2.9084 -0.8900  0.8764
15092TIP3    H266692   6.594   4.598   1.880  1.2067 -0.8732  0.2278
15093TIP3   OH266693   1.497   5.220   1.160 -0.5990 -0.2274 -0.4577
15093TIP3    H166694   1.549   5.200   1.238 -1.3965 -0.0647  0.1343
15093TIP3    H266695   1.463   5.135   1.132  1.7897 -0.6715 -2.2008
15094TIP3   OH266696   0.274   2.596  14.133  0.2777  0.4160  0.1639
15094TIP3    H166697   0.333   2.620  14.061 -1.6577  1.6749 -1.0848
15094TIP3    H266698   0.227   2.676  14.153 -1.2024 -0.6091  0.9463
15095TIP3   OH266699   0.369   2.263   1.916  0.6180 -0.2046  0.2736
15095TIP3    H166700   0.378   2.219   1.831  1.2203 -0.9391  0.7033
15095TIP3    H266701   0.437   2.224   1.970  0.0891  0.0907  1.1689
15096TIP3   OH266702   2.519   6.255   2.784  0.0519 -0.0591 -0.0709
15096TIP3    H166703   2.601   6.297   2.759 -0.6532  0.2084 -2.2065
15096TIP3    H266704   2.530   6.232   2.876  2.1596  0.7657 -0.0633
15097TIP3   OH266705   4.577   2.535   2.830  0.1677  0.3546 -0.4326
15097TIP3    H166706   4.633   2.503   2.759 -1.2783 -0.7980 -1.1208
15097TIP3    H266707   4.591   2.630   2.830  3.1006  0.0223  0.3440
15098TIP3   OH266708   6.357   0.217   6.015 -0.9363 -0.5369  0.1387
15098TIP3    H166709   6.317   0.259   5.940 -2.6193  1.3291  1.9568
15098TIP3    H266710   6.423   0.279   6.046  0.8576 -1.9621 -0.6235
15099TIP3   OH266711   3.581   6.428  12.481 -0.3074 -0.8372  0.0460
15099TIP3    H166712   3.492   6.417  12.447 -0.3254  0.0974 -0.2253
15099TIP3    H266713   3.619   6.496  12.426 -0.6332  1.4000  2.4456
15100TIP3   OH266714   5.061   0.882   1.690  0.0477 -0.6164 -0.1729
15100TIP3    H166715   5.044   0.975   1.704 -0.9549 -0.5720 -1.5114
15100TIP3    H266716   4.981   0.838   1.720  0.3894 -1.0288  0.1509
15101TIP3   OH266717   0.284   5.738   5.489 -0.0687 -0.1036  0.2676
15101TIP3    H166718   0.373   5.735   5.454  0.0800  0.5579  0.5623
15101TIP3    H266719   0.234   5.786   5.422  0.4673  2.2130  1.4010
15102TIP3   OH266720   0.922   3.381   5.032  0.0505 -0.1917 -0.3098
15102TIP3    H166721   0.965   3.307   5.074  2.3232  2.2375  1.9872
15102TIP3    H266722   0.867   3.419   5.100  0.2323  1.1998 -0.9036
15103TIP3   OH266723   0.318   5.378   0.625 -0.2372  0.0115  0.7455
15103TIP3    H166724   0.275   5.387   0.540 -1.4886 -0.6313  1.2651
15103TIP3    H266725   0.287   5.453   0.675  0.4605  0.3630  0.6534
15104TIP3   OH266726   6.597   1.139  15.802 -0.1671 -0.1003  0.1790
15104TIP3    H166727   6.555   1.139  15.888  0.6235  0.6099  0.5798
15104TIP3    H266728   6.685   1.173  15.818 -0.7080  2.2077 -1.2403
15105TIP3   OH266729   5.418   3.209   1.071  0.0914  0.6603  0.1647
15105TIP3    H166730   5.406   3.199   1.165 -1.0661  0.8072  0.0473
15105TIP3    H266731   5.334   3.242   1.039  0.4333  0.5200 -0.9348
15106TIP3   OH266732   5.768   6.204   0.007  0.3099  0.4435  0.2207
15106TIP3    H166733   5.792   6.193   0.099 -1.6585 -0.8785  0.6458
15106TIP3    H266734   5.760   6.298  -0.004  2.2886  0.7340  0.8978
15107TIP3   OH266735   2.505   2.252   5.556 -0.5407  0.2560  0.0312
15107TIP3    H166736   2.412   2.245   5.535 -0.9675  1.1132  1.5034
15107TIP3    H266737   2.508   2.252   5.652  0.8240  1.9741  0.0325
15108TIP3   OH266738   2.975   1.061   6.197 -0.2854 -0.3671  0.0754
15108TIP3    H166739   2.977   1.126   6.127 -1.5031  0.1623  0.5047
15108TIP3    H266740   3.065   1.028   6.202  0.3318  1.2024 -0.2118
15109TIP3   OH266741   2.427   2.530   1.175 -0.0091 -0.0293 -0.8001
15109TIP3    H166742   2.499   2.557   1.233  0.3927  0.9771 -1.7353
15109TIP3    H266743   2.348   2.553   1.223  0.3245  1.5370 -0.9410
15110TIP3   OH266744   6.118   6.160  17.004  0.9188  0.1782  0.6424
15110TIP3    H166745   6.138   6.080  17.053  0.4087 -0.3308  0.0356
15110TIP3    H266746   6.181   6.224  17.036  1.2619 -0.4373  1.2178
15111TIP3   OH266747   4.450   3.688  14.841 -0.1880  0.5763  0.2639
15111TIP3    H166748   4.411   3.619  14.896  0.9032  1.1926  1.8905
15111TIP3    H266749   4.465   3.761  14.901 -0.0624  1.7551 -1.1411
15112TIP3   OH266750   5.754   1.464  10.626  0.3744  0.5843  0.3793
15112TIP3    H166751   5.815   1.399  10.591 -1.4401 -1.4777  0.8974
15112TIP3    H266752   5.729   1.517  10.550 -0.5389 -1.3647 -0.7565
15113TIP3   OH266753   1.926   2.244  14.463  0.0437 -0.0378  0.0250
15113TIP3    H166754   2.002   2.198  14.500  0.0524 -0.3595 -0.3859
15113TIP3    H266755   1.929   2.224  14.370  0.7990  1.8665 -0.4155
15114TIP3   OH266756   2.221   2.005  12.352 -0.1151  0.0289 -0.5738
15114TIP3    H166757   2.241   1.971  12.439  1.1027  1.2863 -0.3229
15114TIP3    H266758   2.306   2.013  12.309 -0.6601 -0.2081 -1.7667
15115TIP3   OH266759   6.333   0.319   3.643 -0.6915 -0.1662 -0.4840
15115TIP3    H166760   6.298   0.391   3.590  0.7920  0.4740 -0.6657
15115TIP3    H266761   6.331   0.243   3.585 -0.1304  0.2757 -1.1045
15116TIP3   OH266762   3.684   5.976  13.630  0.3004  0.0236 -0.7078
15116TIP3    H166763   3.604   5.946  13.587  1.1370 -1.1371 -1.4886
15116TIP3    H266764   3.658   5.990  13.721 -0.6675 -0.8035 -0.8424
15117TIP3   OH266765   3.260   3.993  13.848 -0.1623 -0.3163 -0.2246
15117TIP3    H166766   3.216   4.034  13.923  0.1809 -1.4294  0.6125
15117TIP3    H266767   3.219   3.907  13.840  0.2149 -0.4361 -0.9514
15118TIP3   OH266768   1.499   5.157   3.657  0.3466 -0.2266 -0.3366
15118TIP3    H166769   1.512   5.132   3.749 -0.0604  1.4752  0.2131
15118TIP3    H266770   1.581   5.199   3.632  0.6067 -1.0496 -0.8954
15119TIP3   OH266771   0.548   6.758   1.406  0.4559  0.0128  0.2730
15119TIP3    H166772   0.636   6.795   1.413  0.3406  0.3271  0.0985
15119TIP3    H266773   0.490   6.831   1.427  0.2504 -0.4449  1.3574
15120TIP3   OH266774   0.223   3.024   2.704  0.1017  0.0693  0.5040
15120TIP3    H166775   0.276   3.103   2.693 -0.1802  0.5114  1.9890
15120TIP3    H266776   0.143   3.041   2.655  0.1546  0.5992  0.5986
15121TIP3   OH266777   5.015   0.350  16.893  0.2492 -0.3983 -0.0390
15121TIP3    H166778   5.072   0.386  16.960  1.2995 -2.1472  0.0564
15121TIP3    H266779   5.052   0.382  16.810 -0.0948  0.4362  0.1163
15122TIP3   OH266780   0.012   2.504   4.676  0.2284  0.0820 -0.8333
15122TIP3    H166781  -0.066   2.518   4.729 -0.0094  2.6015 -1.7065
15122TIP3    H266782   0.081   2.484   4.739 -0.3622  1.4905  0.3258
15123TIP3   OH266783   4.427   5.570   2.513  0.6560 -0.1031  0.0600
15123TIP3    H166784   4.456   5.480   2.502  0.5076 -0.0398 -1.0282
15123TIP3    H266785   4.383   5.572   2.598 -0.8172 -1.4775 -0.6089
15124TIP3   OH266786   3.081   3.190   4.552  0.3486  0.4793  0.3939
15124TIP3    H166787   3.042   3.265   4.508 -1.4660 -0.4733  0.2769
15124TIP3    H266788   3.109   3.223   4.637  0.3460  1.4530  0.0298
15125TIP3   OH266789   2.984   5.562  10.720  0.6682  0.0926 -0.1921
15125TIP3    H166790   2.946   5.644  10.688 -0.0033 -0.1174  0.0517
15125TIP3    H266791   2.940   5.494  10.669  1.4960 -0.1032 -0.6591
15126TIP3   OH266792   3.780   6.317   6.033 -0.1312  0.0363 -0.0452
15126TIP3    H166793   3.740   6.303   5.947 -0.1269  0.2539 -0.0845
15126TIP3    H266794   3.829   6.237   6.049 -1.0195 -0.4652  0.2522
15127TIP3   OH266795   2.418   6.116  11.988 -1.0956  0.0161 -0.2955
15127TIP3    H166796   2.382   6.154  12.068 -1.3176 -0.6574 -0.0706
15127TIP3    H266797   2.508   6.093  12.010 -1.0822  0.0478 -0.3157
15128TIP3   OH266798   3.556   5.595  11.812 -0.4003  0.5863 -0.4877
15128TIP3    H166799   3.614   5.666  11.782  0.3491 -0.0402 -0.5485
15128TIP3    H266800   3.488   5.640  11.862  1.0532  1.2326  1.0209
15129TIP3   OH266801   0.820   5.885   0.507  0.3357  0.2296  0.4725
15129TIP3    H166802   0.828   5.976   0.478 -0.2453  0.1186 -0.0696
15129TIP3    H266803   0.738   5.884   0.558  0.5112  0.0808  0.7508
15130TIP3   OH266804   4.744   6.662   1.236 -0.0380 -0.1715 -0.1223
15130TIP3    H166805   4.814   6.713   1.196  0.2337  0.5402  1.2049
15130TIP3    H266806   4.709   6.719   1.305 -1.6404 -0.6787 -0.4628
15131TIP3   OH266807   4.988   4.089  17.062 -0.4165 -0.1826  0.1389
15131TIP3    H166808   4.986   3.998  17.092 -1.5731 -0.3677 -0.4588
15131TIP3    H266809   4.920   4.094  16.995 -1.4882  1.4982  1.2741
15132TIP3   OH266810   5.014   5.071   4.072 -0.2761 -0.4294 -0.4172
15132TIP3    H166811   5.082   5.005   4.056 -0.1449 -0.0006 -1.7489
15132TIP3    H266812   5.063   5.151   4.088 -0.4556 -0.3250 -0.3974
15133TIP3   OH266813   6.234   1.803  11.332 -0.5591  0.1999 -0.3092
15133TIP3    H166814   6.252   1.729  11.390 -0.9521  0.6213  0.3590
15133TIP3    H266815   6.198   1.870  11.389 -1.6236  0.3700 -1.1576
15134TIP3   OH266816   4.513   4.436  12.752  0.3955 -0.8348 -0.0433
15134TIP3    H166817   4.541   4.525  12.728 -1.4898 -0.4350 -0.9538
15134TIP3    H266818   4.503   4.391  12.668 -0.3470 -1.3662  0.3195
15135TIP3   OH266819   0.048   5.182  10.632 -0.0649 -0.1298  0.2412
15135TIP3    H166820   0.104   5.126  10.578 -0.1041  0.3847 -0.3407
15135TIP3    H266821   0.104   5.254  10.660 -0.3517  0.2421 -0.1198
15136TIP3   OH266822   0.594   4.710  12.328  0.2979 -0.0809 -0.3206
15136TIP3    H166823   0.633   4.714  12.415  0.1394 -0.9365 -0.1928
15136TIP3    H266824   0.654   4.759  12.272 -0.1224  1.3594  0.4384
15137TIP3   OH266825   1.953   6.648   2.209 -0.5450 -0.2460 -0.8042
15137TIP3    H166826   1.946   6.572   2.150  1.6429 -1.6926  0.6791
15137TIP3    H266827   1.881   6.636   2.271 -0.1306 -1.2072 -0.4934
15138TIP3   OH266828   3.618   3.248  11.548  0.0296 -0.1048 -0.1864
15138TIP3    H166829   3.615   3.190  11.625 -0.7405 -1.0478 -0.9066
15138TIP3    H266830   3.568   3.325  11.574  0.7470  0.1054  0.6521
15139TIP3   OH266831   3.545   6.085  14.647  0.1464 -0.3987  0.5575
15139TIP3    H166832   3.519   6.087  14.739  0.6252  1.4220  0.6962
15139TIP3    H266833   3.626   6.034  14.646  0.8208  0.6207  1.3653
15140TIP3   OH266834   4.630   3.320  15.059  0.0160 -0.0613  0.6589
15140TIP3    H166835   4.705   3.363  15.101  0.3049  1.0744 -0.9151
15140TIP3    H266836   4.562   3.320  15.125  0.8360  0.5564  1.5270
15141TIP3   OH266837   4.182   2.109   6.132  0.4440 -0.0664 -0.2820
15141TIP3    H166838   4.129   2.182   6.164  2.8692  1.3633  0.6889
15141TIP3    H266839   4.131   2.074   6.058 -2.1703  0.6912  1.0167
15142TIP3   OH266840   4.139   3.875  14.506  0.0470 -0.0677  0.6044
15142TIP3    H166841   4.101   3.873  14.594 -0.3908 -2.2721  0.4361
15142TIP3    H266842   4.161   3.784  14.488 -0.3173  0.2491 -1.7500
15143TIP3   OH266843   3.871   1.132   3.688 -0.0301  0.3215 -0.5021
15143TIP3    H166844   3.857   1.068   3.618 -0.4388 -1.9686  1.5407
15143TIP3    H266845   3.957   1.110   3.723 -0.7829 -0.1362  1.1615
15144TIP3   OH266846   2.305   4.796  13.140 -0.4277 -0.6907  0.3350
15144TIP3    H166847   2.257   4.713  13.138 -0.9956 -0.3664 -1.7236
15144TIP3    H266848   2.397   4.770  13.147 -0.6108 -1.4982 -0.1154
15145TIP3   OH266849   4.496   1.312  12.689  0.2640 -0.4985  0.3218
15145TIP3    H166850   4.591   1.311  12.700  0.2301  0.6561  0.8403
15145TIP3    H266851   4.480   1.379  12.622 -0.1898 -0.6605  0.2618
15146TIP3   OH266852   6.614   0.293   3.013 -0.1002 -0.0668 -0.1396
15146TIP3    H166853   6.518   0.302   3.013 -0.2512 -1.0970  1.9176
15146TIP3    H266854   6.642   0.334   3.094  1.0147 -1.3675  0.1688
15147TIP3   OH266855   5.041   2.837   3.909 -0.7996  0.1363 -0.6744
15147TIP3    H166856   4.976   2.795   3.965 -0.4710  0.8800  0.2893
15147TIP3    H266857   5.008   2.825   3.820 -1.2998 -1.1166 -0.3368
15148TIP3   OH266858   1.137   3.044  14.397  0.2249  0.1833  0.7867
15148TIP3    H166859   1.186   3.101  14.456  2.9533  1.1888 -2.1256
15148TIP3    H266860   1.116   3.100  14.322  0.7671 -1.9636 -1.0834
15149TIP3   OH266861   6.468   0.616  14.673  0.9986  0.1590 -0.3508
15149TIP3    H166862   6.526   0.693  14.678  2.0165 -0.6199  0.1946
15149TIP3    H266863   6.436   0.604  14.762 -1.1472  1.3780 -0.8740
15150TIP3   OH266864   3.885   2.581   4.326 -0.3824 -0.0774  0.5498
15150TIP3    H166865   3.802   2.622   4.303  0.5198 -0.2432 -3.6909
15150TIP3    H266866   3.861   2.492   4.351 -1.5928  0.4056  1.1928
15151TIP3   OH266867   6.524   3.218   1.851 -0.2843  0.3065 -0.1283
15151TIP3    H166868   6.482   3.262   1.925  1.4560  0.6735  0.7007
15151TIP3    H266869   6.453   3.198   1.790 -1.5618  1.2537  1.0166
15152TIP3   OH266870   4.479   1.937   4.021 -0.4015  0.7525  0.5266
15152TIP3    H166871   4.480   1.951   3.926 -1.8105  1.6010  0.6096
15152TIP3    H266872   4.557   1.982   4.052  1.3182 -1.3834 -0.4156
15153TIP3   OH266873   3.524   2.792   1.264 -0.0865  0.1205  0.0523
15153TIP3    H166874   3.537   2.697   1.267  0.9396  0.2453 -0.0526
15153TIP3    H266875   3.562   2.823   1.346 -0.1204  0.4741 -0.0658
15154TIP3   OH266876   3.056   2.023   4.448  0.0839  0.3816 -0.2223
15154TIP3    H166877   3.043   1.993   4.538  1.2049 -0.4913 -0.3267
15154TIP3    H266878   3.121   1.963   4.412  0.6544  1.5266 -1.1965
15155TIP3   OH266879   6.254   3.393  15.553 -0.5328 -0.2089  0.3342
15155TIP3    H166880   6.173   3.392  15.605 -1.3467  2.8375 -0.6229
15155TIP3    H266881   6.322   3.419  15.615 -0.7496 -0.4411  0.6734
15156TIP3   OH266882   4.070   4.365   2.909  0.1251 -0.3340  0.8116
15156TIP3    H166883   4.109   4.363   2.996  1.0196  0.6018  0.4547
15156TIP3    H266884   4.009   4.438   2.911  0.3353 -0.1508  0.5793
15157TIP3   OH266885   5.995   2.785   1.632 -0.1626 -0.0183 -0.6568
15157TIP3    H166886   5.913   2.834   1.622  0.0411  0.2027 -1.2888
15157TIP3    H266887   6.038   2.792   1.547  0.8018  0.3832 -0.1602
15158TIP3   OH266888   2.701   3.708  11.871  0.0948 -0.3527  0.2845
15158TIP3    H166889   2.682   3.801  11.881  1.4821 -0.1077  0.8960
15158TIP3    H266890   2.770   3.705  11.805 -0.0871 -0.9678  0.1186
15159TIP3   OH266891   4.989   5.351  16.605 -0.1711 -0.0080  0.0442
15159TIP3    H166892   5.038   5.269  16.607  2.3907  1.4103  0.4138
15159TIP3    H266893   4.897   5.325  16.608  0.4309 -2.9290 -2.3937
15160TIP3   OH266894   1.001   1.658   4.398  0.4620 -0.0093 -0.2676
15160TIP3    H166895   0.961   1.743   4.415  0.2263 -0.1764  0.0112
15160TIP3    H266896   0.934   1.608   4.352  1.0592  0.4055 -1.6689
15161TIP3   OH266897   5.450   3.490   4.947 -0.3251 -0.2469  0.3375
15161TIP3    H166898   5.400   3.569   4.969 -0.7807 -0.8157  1.4600
15161TIP3    H266899   5.495   3.512   4.866 -2.3345  0.3362 -0.6802
15162TIP3   OH266900   3.567   1.559  12.064 -0.2690 -0.1793 -0.5315
15162TIP3    H166901   3.477   1.590  12.070  0.2348  1.4243 -0.8570
15162TIP3    H266902   3.585   1.555  11.970  0.0206 -0.4778 -0.4658
15163TIP3   OH266903   0.270   5.130  16.304  0.5795  0.6194 -0.5148
15163TIP3    H166904   0.360   5.102  16.293  0.9429  0.7784  1.6380
15163TIP3    H266905   0.220   5.049  16.313  0.6623  0.5565 -0.6186
15164TIP3   OH266906   4.529   2.555  14.325 -0.0957 -0.3117 -0.1570
15164TIP3    H166907   4.470   2.559  14.250  0.3285  0.3342 -0.4586
15164TIP3    H266908   4.487   2.610  14.391 -0.2234 -0.4869 -0.0917
15165TIP3   OH266909   0.686   6.161  12.323  0.1823 -0.3159 -0.1341
15165TIP3    H166910   0.743   6.199  12.257 -1.3220 -0.7971 -1.7901
15165TIP3    H266911   0.708   6.067  12.324  1.6922  0.0026  1.6637
15166TIP3   OH266912   3.117   3.226   1.854 -0.3675  0.5855  0.6851
15166TIP3    H166913   3.054   3.186   1.914 -2.6504  3.3831  0.3753
15166TIP3    H266914   3.073   3.224   1.768  1.5495 -0.6080 -0.3278
15167TIP3   OH266915   6.657   0.654  11.390 -0.1989 -0.9107 -0.3549
15167TIP3    H166916   6.610   0.672  11.308  0.8139 -1.0587 -0.9831
15167TIP3    H266917   6.625   0.568  11.417 -0.3922 -0.9495 -0.6974
15168TIP3   OH266918   4.861   4.231  11.731 -0.2945  0.7577  0.5723
15168TIP3    H166919   4.796   4.299  11.751  0.8466  2.4196 -0.9966
15168TIP3    H266920   4.906   4.263  11.652  1.8281 -0.7467  1.0721
15169TIP3   OH266921   1.957   6.593  15.553  0.0904  0.6025  0.0590
15169TIP3    H166922   1.927   6.586  15.462  1.8018 -0.6160 -0.4644
15169TIP3    H266923   1.910   6.525  15.600 -0.0715  0.5832 -0.1309
15170TIP3   OH266924   2.634   0.680   2.740 -0.4562  0.3232  0.0765
15170TIP3    H166925   2.597   0.612   2.797  2.0972 -1.6111 -0.3375
15170TIP3    H266926   2.619   0.762   2.787 -0.9560 -0.8852  2.1598
15171TIP3   OH266927   3.753   3.613  14.948 -0.3365 -0.2776 -0.4453
15171TIP3    H166928   3.788   3.622  15.037 -1.4810 -0.4471  0.0382
15171TIP3    H266929   3.662   3.587  14.961 -0.5384 -0.2149 -1.6741
15172TIP3   OH266930   3.876   6.122  11.680 -0.6276  0.4013 -0.2357
15172TIP3    H166931   3.852   6.182  11.609 -2.8608 -1.0366 -0.8122
15172TIP3    H266932   3.937   6.060  11.641 -0.7101  0.4917 -0.5069
15173TIP3   OH266933   3.522   1.118   0.592  0.3766 -0.0149 -0.2892
15173TIP3    H166934   3.591   1.054   0.573 -0.7008 -1.3609  0.1628
15173TIP3    H266935   3.482   1.137   0.507 -0.9100 -1.9019 -0.1807
15174TIP3   OH266936   1.390   3.612   0.634  0.3620 -0.1937 -0.5772
15174TIP3    H166937   1.303   3.606   0.594  0.1380  2.5289 -0.6638
15174TIP3    H266938   1.439   3.541   0.593 -1.4895 -1.1224 -1.3459
15175TIP3   OH266939   4.286   2.109  16.747  0.7714  0.0811  0.0682
15175TIP3    H166940   4.242   2.041  16.798 -2.7853  1.5923 -0.6474
15175TIP3    H266941   4.285   2.076  16.658  0.2980  0.4389 -0.0670
15176TIP3   OH266942   4.959   0.823  13.445 -0.0946 -0.5154  0.3127
15176TIP3    H166943   4.938   0.840  13.536  1.1677 -0.8642  0.6857
15176TIP3    H266944   4.918   0.738  13.427 -0.4477 -0.3908  0.5091
15177TIP3   OH266945   3.309   6.778  14.973  0.2693 -0.2537 -0.0790
15177TIP3    H166946   3.358   6.757  14.893  0.8556  1.8124 -0.3191
15177TIP3    H266947   3.365   6.749  15.044  1.7896  1.7754 -0.3617
15178TIP3   OH266948   3.388   3.394  13.245  0.0939  0.0906 -0.5804
15178TIP3    H166949   3.453   3.420  13.179 -1.7478  1.4971 -1.9907
15178TIP3    H266950   3.412   3.444  13.323  0.1625  1.4237 -1.4074
15179TIP3   OH266951   1.574   0.947   2.479 -0.0180  0.0424  0.7597
15179TIP3    H166952   1.621   0.985   2.405 -2.7800  0.9517 -0.6674
15179TIP3    H266953   1.556   1.022   2.536 -2.0781  0.2762 -0.1186
15180TIP3   OH266954   5.318   5.121   1.477 -0.2099 -0.0987  0.1117
15180TIP3    H166955   5.322   5.065   1.399  0.6912  0.5557 -0.3388
15180TIP3    H266956   5.303   5.209   1.442  0.4449  0.2345  0.6483
15181TIP3   OH266957   2.418   6.416   1.619  0.2273  0.1623  0.1891
15181TIP3    H166958   2.344   6.474   1.603  1.3685  1.4092 -0.8176
15181TIP3    H266959   2.398   6.337   1.569 -0.6924  0.2505  0.4167
15182TIP3   OH266960   6.781   6.626   4.811  0.1490 -0.4391  0.4536
15182TIP3    H166961   6.777   6.647   4.717 -0.1709 -2.2689  0.0261
15182TIP3    H266962   6.692   6.599   4.833  0.9783 -3.7188  0.3017
15183TIP3   OH266963   4.690   4.778   2.731  0.0736 -0.1248  1.0053
15183TIP3    H166964   4.654   4.702   2.777 -1.1322 -0.6950 -0.7765
15183TIP3    H266965   4.619   4.843   2.734 -1.2958 -1.2482 -2.5239
15184TIP3   OH266966   3.640   4.067   3.143  0.4920  0.2575 -0.4710
15184TIP3    H166967   3.694   4.132   3.188 -0.5621  1.4108 -0.8440
15184TIP3    H266968   3.678   4.060   3.056  0.3536  0.6872 -0.5667
15185TIP3   OH266969   5.840   4.031   0.341 -0.4753  0.0923  0.2815
15185TIP3    H166970   5.774   4.085   0.385  1.5425  0.7411  2.7192
15185TIP3    H266971   5.916   4.088   0.333  0.8698 -1.5876  0.5398
15186TIP3   OH266972   4.548   4.939  13.888  0.9267  0.2659  0.5507
15186TIP3    H166973   4.593   4.856  13.903 -0.6786 -0.6061  0.7533
15186TIP3    H266974   4.552   4.952  13.793  0.6921 -0.3325  0.4570
15187TIP3   OH266975   6.265   2.444   2.837 -0.1435 -0.5857 -0.3188
15187TIP3    H166976   6.211   2.375   2.875  1.5774 -1.4356  0.7315
15187TIP3    H266977   6.349   2.437   2.883  0.8529  0.7077 -1.8101
15188TIP3   OH266978   2.946   6.082  11.768  0.5332  0.3108 -0.0649
15188TIP3    H166979   2.880   6.136  11.809 -0.1117  0.2543 -0.9880
15188TIP3    H266980   3.025   6.136  11.769 -0.2476  1.5827 -1.5573
15189TIP3   OH266981   1.824   3.533   5.024  0.2294  0.5397 -0.1875
15189TIP3    H166982   1.866   3.447   5.037 -1.8955 -0.8049 -1.7321
15189TIP3    H266983   1.849   3.559   4.936  0.0788  1.0886 -0.0719
15190TIP3   OH266984   4.999   1.506  12.547 -0.4128 -0.3113  0.1214
15190TIP3    H166985   5.091   1.484  12.555 -0.6058 -0.7776  1.2445
15190TIP3    H266986   4.996   1.602  12.547  0.2341 -0.2403 -2.2351
15191TIP3   OH266987   1.479   1.738  13.808 -0.2978  0.3029 -0.1528
15191TIP3    H166988   1.388   1.747  13.838 -0.0393  0.4021  0.6281
15191TIP3    H266989   1.523   1.693  13.880  0.5375  1.3049 -0.0197
15192TIP3   OH266990   4.683   3.089   2.656  0.3464 -0.1491  0.4938
15192TIP3    H166991   4.707   3.025   2.723  0.1516 -0.4132  0.3111
15192TIP3    H266992   4.587   3.082   2.650  0.3724 -0.1935  0.1225
15193TIP3   OH266993   1.862   5.747  16.127 -0.3129 -0.2518  0.4441
15193TIP3    H166994   1.865   5.695  16.208 -1.8243  0.6875  1.1496
15193TIP3    H266995   1.772   5.736  16.095 -0.3974  1.1992  0.1344
15194TIP3   OH266996   5.883   5.315   3.725 -0.2400 -0.0999 -0.6113
15194TIP3    H166997   5.791   5.338   3.735 -0.2206 -0.1816 -0.2451
15194TIP3    H266998   5.884   5.220   3.717 -0.3301 -0.0007 -2.2379
15195TIP3   OH266999   1.061   1.301   0.865  0.1004 -0.0925  0.1984
15195TIP3    H167000   1.143   1.283   0.820  0.0032  1.2018 -0.5514
15195TIP3    H267001   0.994   1.293   0.797  0.0531  2.9212 -0.2422
15196TIP3   OH267002   3.093   4.157  13.148  0.3023  0.3003  1.0037
15196TIP3    H167003   3.170   4.111  13.115 -0.2102  1.0915 -1.4883
15196TIP3    H267004   3.092   4.137  13.242  1.7283 -2.3315  0.5657
15197TIP3   OH267005   6.455   5.097   4.981  0.2373 -0.6155 -0.2898
15197TIP3    H167006   6.391   5.041   4.936  0.2916 -0.1300 -0.9896
15197TIP3    H267007   6.402   5.164   5.023  0.1674 -1.2077  0.6023
15198TIP3   OH267008   3.163   4.378  10.957  0.5874  0.4401  0.4521
15198TIP3    H167009   3.214   4.300  10.934  0.4889  0.5555 -0.1850
15198TIP3    H267010   3.160   4.430  10.876  0.7406  1.1571  0.8950
15199TIP3   OH267011   0.675   1.659   0.571 -0.1444 -0.2033  0.3038
15199TIP3    H167012   0.630   1.584   0.611  1.6677 -1.3311  0.3500
15199TIP3    H267013   0.745   1.681   0.634  1.3914 -0.6006 -1.1955
15200TIP3   OH267014   2.555   1.877  13.516  0.6366  0.4470  0.0376
15200TIP3    H167015   2.491   1.908  13.452 -1.1499  1.4247  2.1856
15200TIP3    H267016   2.577   1.954  13.568  0.0721 -0.7940  2.2184
15201TIP3   OH267017   1.070   0.134   5.905 -0.1673 -0.5652 -0.3885
15201TIP3    H167018   1.010   0.141   5.979 -1.1298 -1.2410 -1.0730
15201TIP3    H267019   1.141   0.079   5.936  0.3474  0.5913  0.5743
15202TIP3   OH267020   3.901   0.529  14.813  0.0869  0.1306  0.2339
15202TIP3    H167021   3.853   0.448  14.829  0.5169 -0.0288  0.7397
15202TIP3    H267022   3.965   0.507  14.745  1.1195 -0.3288  1.3241
15203TIP3   OH267023   1.445   4.001   4.444  0.0674 -0.4717  0.0851
15203TIP3    H167024   1.388   3.959   4.509 -1.2317 -0.3415 -0.9088
15203TIP3    H267025   1.389   4.011   4.367  1.2883  0.2235 -0.7472
15204TIP3   OH267026   6.367   3.962  11.328 -0.0772 -0.4554  0.2776
15204TIP3    H167027   6.290   3.961  11.270 -0.6698  0.5724  1.0064
15204TIP3    H267028   6.358   4.044  11.378  0.0577 -1.5827  2.2686
15205TIP3   OH267029   0.061   6.290   3.118  0.4240 -0.0011  0.0122
15205TIP3    H167030   0.066   6.364   3.178  0.1662 -0.2099  0.2916
15205TIP3    H267031   0.115   6.317   3.043 -0.3409  0.8101 -0.2608
15206TIP3   OH267032   6.624   5.574   1.575 -0.0100 -0.2812  0.4575
15206TIP3    H167033   6.705   5.582   1.525 -0.8178  0.0743 -0.8213
15206TIP3    H267034   6.651   5.586   1.666  1.3081  0.2349  0.0161
15207TIP3   OH267035   5.361   4.154   0.699 -0.1573 -0.2954 -0.6084
15207TIP3    H167036   5.314   4.154   0.782  0.8077 -0.0757 -0.0521
15207TIP3    H267037   5.404   4.069   0.695  0.6539  0.0985 -0.3816
15208TIP3   OH267038   4.373   0.777  14.868  0.5689 -0.5408 -0.2253
15208TIP3    H167039   4.375   0.831  14.947 -0.2484 -1.8866  0.7467
15208TIP3    H267040   4.463   0.745  14.859  0.7960  0.0643 -0.1693
15209TIP3   OH267041   2.482   3.564   1.695  0.7998  0.0014  0.3127
15209TIP3    H167042   2.448   3.515   1.621  2.1631  0.4665 -0.6622
15209TIP3    H267043   2.463   3.655   1.675  1.2081  0.1327  0.5022
15210TIP3   OH267044   5.132   2.344   1.926  0.7215 -0.3531  0.0992
15210TIP3    H167045   5.061   2.374   1.982 -0.0535 -0.0211 -1.0225
15210TIP3    H267046   5.197   2.414   1.929 -0.9711  1.4822 -2.3273
15211TIP3   OH267047   0.762   3.691  13.291 -0.4982 -0.4970 -0.5493
15211TIP3    H167048   0.825   3.763  13.289 -1.4132  0.3429  0.1671
15211TIP3    H267049   0.723   3.690  13.204 -0.6784  0.0527 -0.4755
15212TIP3   OH267050   1.660   5.985  12.287  0.5788 -0.0622 -0.6135
15212TIP3    H167051   1.748   6.011  12.316 -0.0206 -0.2641  1.5401
15212TIP3    H267052   1.611   6.067  12.284  0.0096 -0.2640  1.4130
15213TIP3   OH267053   2.557   3.912   3.561 -0.4607 -0.4632  0.1504
15213TIP3    H167054   2.511   3.850   3.617  1.2046 -2.2817 -0.3697
15213TIP3    H267055   2.563   3.868   3.476  2.5658 -0.5750  0.3104
15214TIP3   OH267056   6.789   4.838   1.199 -0.8709 -1.1548  0.0836
15214TIP3    H167057   6.734   4.762   1.219 -2.1208 -0.2878  0.0013
15214TIP3    H267058   6.877   4.801   1.190 -0.9076 -2.2167  2.9794
15215TIP3   OH267059   6.216   2.665  17.222 -0.4030 -0.5352  0.2903
15215TIP3    H167060   6.160   2.590  17.203 -2.5999  0.8983  0.7916
15215TIP3    H267061   6.166   2.741  17.194  0.4716  0.9598  2.4876
15216TIP3   OH267062   4.263   0.265   4.249  0.1877  0.1783 -0.1053
15216TIP3    H167063   4.217   0.184   4.225 -1.7561  0.3260  2.6941
15216TIP3    H267064   4.244   0.325   4.177 -1.6123 -0.6871 -0.4020
15217TIP3   OH267065   1.948   1.271   2.704  0.0238  0.0295  0.3277
15217TIP3    H167066   2.032   1.297   2.666  0.2959 -1.2894 -0.0083
15217TIP3    H267067   1.964   1.268   2.798  0.3441 -0.1667  0.2685
15218TIP3   OH267068   2.910   3.521  16.816 -0.2305 -0.5372  0.1327
15218TIP3    H167069   2.918   3.605  16.771 -1.4936 -0.0462  0.7659
15218TIP3    H267070   2.940   3.457  16.753  3.4137  0.5410  0.5123
15219TIP3   OH267071   6.387   5.582  13.378 -0.1881  0.3616 -0.4221
15219TIP3    H167072   6.426   5.537  13.453  0.5282  0.3329 -0.8056
15219TIP3    H267073   6.332   5.650  13.417  0.8637  0.9206  0.1299
15220TIP3   OH267074   0.289   3.776   4.037  0.2814  0.1970  0.0461
15220TIP3    H167075   0.314   3.683   4.039 -0.5865 -0.0379  1.1696
15220TIP3    H267076   0.208   3.778   3.986 -0.3834  0.1327  1.0682
15221TIP3   OH267077   4.332   0.068   1.278 -0.3396 -0.2245 -0.0501
15221TIP3    H167078   4.356   0.118   1.200 -0.6566  0.9477  0.5803
15221TIP3    H267079   4.401   0.087   1.341 -0.0945 -1.1508 -0.0231
15222TIP3   OH267080   1.140   0.268  14.754  0.0128  0.0574 -0.7682
15222TIP3    H167081   1.192   0.346  14.735 -0.9351  0.6977 -0.8257
15222TIP3    H267082   1.156   0.252  14.847  3.5343 -2.2432 -1.5759
15223TIP3   OH267083   4.414   6.603   5.427  0.7864  0.1899 -0.6723
15223TIP3    H167084   4.447   6.658   5.499  0.9515 -0.5480 -0.1681
15223TIP3    H267085   4.321   6.593   5.446  1.0508 -0.9822  0.1256
15224TIP3   OH267086   4.382   2.742  11.655 -0.2697  0.6914  0.1734
15224TIP3    H167087   4.391   2.777  11.744  0.4599  0.7377  0.0840
15224TIP3    H267088   4.391   2.818  11.598 -0.7205  0.6591  0.0556
15225TIP3   OH267089   6.513   4.988  13.121  0.4474  0.5212  0.4757
15225TIP3    H167090   6.527   5.080  13.100  0.3313  0.1024 -1.7507
15225TIP3    H267091   6.513   4.944  13.035  1.7384 -1.7227  1.5359
15226TIP3   OH267092   3.075   2.925   4.494 -0.4601  0.0729 -0.0901
15226TIP3    H167093   3.093   3.018   4.510 -0.7158  0.3982 -1.6092
15226TIP3    H267094   3.089   2.913   4.400 -0.2355 -1.4829  0.1169
15227TIP3   OH267095   5.194   1.907   4.143  0.0804  0.3849  0.4053
15227TIP3    H167096   5.254   1.833   4.154 -1.8771 -1.5672 -1.3238
15227TIP3    H267097   5.142   1.908   4.224 -2.7261 -2.9819 -1.1228
15228TIP3   OH267098   0.351   5.655   2.433 -0.7808 -0.2371  0.0519
15228TIP3    H167099   0.330   5.724   2.496  0.7435  0.5913 -0.2804
15228TIP3    H267100   0.443   5.635   2.450 -1.1334 -2.0685 -0.0144
15229TIP3   OH267101   4.506   0.539   5.132 -0.0650  0.0490  0.5443
15229TIP3    H167102   4.549   0.612   5.177 -1.0708  1.2040 -0.3008
15229TIP3    H267103   4.575   0.472   5.124  1.1547  1.2545  0.5433
15230TIP3   OH267104   0.293   4.208  11.422  0.0750  0.1020 -0.3310
15230TIP3    H167105   0.210   4.168  11.397  1.3532 -0.5623 -4.3392
15230TIP3    H267106   0.348   4.135  11.449  0.1099  0.2099 -0.1057
15231TIP3   OH267107   5.220   6.292  12.306 -0.1339 -0.7233  0.1179
15231TIP3    H167108   5.259   6.361  12.359 -1.6097  0.8615 -0.7398
15231TIP3    H267109   5.265   6.298  12.221  0.6030 -1.6861  0.4240
15232TIP3   OH267110   3.483   1.313   5.682 -0.1784 -0.0023 -0.4739
15232TIP3    H167111   3.541   1.264   5.740 -0.0237  0.4365 -0.2553
15232TIP3    H267112   3.499   1.275   5.595  3.4880  2.7028 -1.2310
15233TIP3   OH267113   3.857   6.294  15.067 -0.0598  0.0829  0.1471
15233TIP3    H167114   3.795   6.222  15.080  0.1417 -0.6369 -2.2809
15233TIP3    H267115   3.943   6.252  15.071  0.0380 -0.1494 -2.3718
15234TIP3   OH267116   6.129   0.902  12.265 -0.0005  0.4095 -0.1718
15234TIP3    H167117   6.063   0.845  12.226 -0.4473  0.5232  0.4104
15234TIP3    H267118   6.109   0.989  12.231 -0.3427  0.4953  0.2353
15235TIP3   OH267119   4.416   6.247  11.827  0.1891  0.0766  0.4987
15235TIP3    H167120   4.453   6.312  11.767  1.0045 -2.1708 -1.5805
15235TIP3    H267121   4.347   6.204  11.776 -1.7559  0.5873  2.5273
15236TIP3   OH267122   3.078   6.691   2.652  0.0952 -0.4441 -0.2905
15236TIP3    H167123   3.132   6.638   2.711  0.4809  1.8736  1.6019
15236TIP3    H267124   3.090   6.651   2.566  1.6276 -2.3982  0.7490
15237TIP3   OH267125   5.968   4.128   4.728 -0.1020 -0.1521 -0.5918
15237TIP3    H167126   6.064   4.124   4.736 -0.1258 -0.5575 -0.4766
15237TIP3    H267127   5.936   4.105   4.815 -0.3109 -0.6891 -0.8009
15238TIP3   OH267128   4.499   3.268   0.070  0.3096 -0.1201  0.0607
15238TIP3    H167129   4.549   3.348   0.080 -0.7347  0.5919 -0.1819
15238TIP3    H267130   4.555   3.210   0.018  0.7301  0.7950 -0.5292
15239TIP3   OH267131   0.077   2.275   1.425  0.1989 -0.7332  0.2137
15239TIP3    H167132   0.115   2.191   1.453 -1.0344 -1.5608 -0.5111
15239TIP3    H267133   0.046   2.259   1.336  0.9036  0.8311 -0.3563
15240TIP3   OH267134   4.966   3.896   5.111  0.2095 -0.3371 -0.5719
15240TIP3    H167135   4.944   3.903   5.204  0.6869 -0.8955 -0.4055
15240TIP3    H267136   4.935   3.977   5.072 -1.7462 -0.8971 -0.2906
15241TIP3   OH267137   0.832   5.921  11.168  0.5590  0.1476  0.2863
15241TIP3    H167138   0.770   5.861  11.128  0.0832  0.8566 -0.0668
15241TIP3    H267139   0.792   6.008  11.157  0.9111  0.4642  1.3819
15242TIP3   OH267140   5.136   1.913   1.834 -0.2746  0.2513  0.1338
15242TIP3    H167141   5.153   1.979   1.901 -1.2303 -0.6519  1.2901
15242TIP3    H267142   5.206   1.926   1.770  1.0254  0.7324  1.5963
15243TIP3   OH267143   5.805   3.676  14.574 -0.0875 -0.0331  0.3261
15243TIP3    H167144   5.783   3.768  14.588  0.7489  0.0737  0.9824
15243TIP3    H267145   5.892   3.678  14.536  0.3765 -0.5867  1.3367
15244TIP3   OH267146   5.985   6.209   4.469 -0.1000  0.0403  0.1646
15244TIP3    H167147   6.069   6.178   4.503  0.2690  1.9400  1.1088
15244TIP3    H267148   5.942   6.130   4.435  2.3457 -0.8831 -1.0038
15245TIP3   OH267149   3.282   1.559  12.078  0.2002  0.0952  0.3505
15245TIP3    H167150   3.213   1.525  12.134 -0.7287  1.3599  0.0156
15245TIP3    H267151   3.236   1.595  12.002  1.2620  0.6278 -0.0610
15246TIP3   OH267152   0.297   5.139  11.638 -0.0815  0.4826 -0.4798
15246TIP3    H167153   0.266   5.138  11.728 -1.8868 -2.7277 -0.9527
15246TIP3    H267154   0.262   5.220  11.601 -0.4194  1.2100  1.3547
15247TIP3   OH267155   2.095   2.352  15.977  0.6382 -0.0812 -0.1144
15247TIP3    H167156   2.040   2.298  16.034  2.2431 -1.7665 -0.0532
15247TIP3    H267157   2.034   2.416  15.939 -1.2406 -1.4331  0.4246
15248TIP3   OH267158   0.695   5.355  15.266 -0.3333 -0.5652 -0.2940
15248TIP3    H167159   0.672   5.287  15.203 -2.3141  1.0089 -1.4085
15248TIP3    H267160   0.776   5.393  15.231  0.3176 -1.7341 -0.1202
15249TIP3   OH267161   3.619   1.319   0.256  0.4255  0.2313 -0.1746
15249TIP3    H167162   3.648   1.251   0.317 -0.6761  0.5797  0.7687
15249TIP3    H267163   3.549   1.279   0.205 -0.0331  0.5647  0.1866
15250TIP3   OH267164   4.640   6.048  15.212  0.3346  0.2554 -0.0428
15250TIP3    H167165   4.698   5.973  15.228 -0.3527 -0.5211 -1.1039
15250TIP3    H267166   4.560   6.010  15.176  0.1968  1.5452 -1.1915
15251TIP3   OH267167   4.529   3.185   3.382  0.4463 -0.0656  0.4660
15251TIP3    H167168   4.595   3.145   3.438  1.0318  0.8572  0.4450
15251TIP3    H267169   4.452   3.130   3.394  0.3990  0.3510  2.5725
15252TIP3   OH267170   1.683   4.963  11.976 -0.4068  0.3908 -0.0273
15252TIP3    H167171   1.735   5.020  12.033 -1.0379  1.4917 -0.5188
15252TIP3    H267172   1.651   4.894  12.033 -0.5016  1.1183  0.8162
15253TIP3   OH267173   6.568   5.004  12.261 -0.1984 -0.1230  0.4028
15253TIP3    H167174   6.661   4.989  12.277  0.1738  2.4347  1.1505
15253TIP3    H267175   6.558   4.993  12.166  1.4575  1.9442 -0.0956
15254TIP3   OH267176   0.746   1.108  11.767  0.3294 -0.1897 -0.4279
15254TIP3    H167177   0.808   1.075  11.832 -1.6425 -1.1177  1.0860
15254TIP3    H267178   0.685   1.036  11.753 -1.8198  1.4237  0.0116
15255TIP3   OH267179   2.471   1.830  12.858  0.1922 -0.0645  0.3751
15255TIP3    H167180   2.547   1.774  12.841 -0.7523 -1.2128 -0.2168
15255TIP3    H267181   2.427   1.836  12.774 -1.0355 -0.4420  0.9662
15256TIP3   OH267182   1.374   6.098   0.350 -0.4694 -0.1658  0.0948
15256TIP3    H167183   1.452   6.042   0.343 -0.1995  0.0718  1.0151
15256TIP3    H267184   1.324   6.060   0.422 -1.6602 -0.8267 -1.0294
15257TIP3   OH267185   3.552   2.322  12.488 -0.4623  0.1961  0.4259
15257TIP3    H167186   3.489   2.380  12.446  0.2745  0.8757  0.2547
15257TIP3    H267187   3.502   2.281  12.559 -1.2868  0.1929 -0.1343
15258TIP3   OH267188   1.260   3.698   4.330  0.3349 -0.0328 -0.0322
15258TIP3    H167189   1.259   3.783   4.287 -3.0908  1.3265  2.2990
15258TIP3    H267190   1.269   3.718   4.423  1.0924 -2.3959  0.4914
15259TIP3   OH267191   0.102   5.615   4.977  0.4852 -0.5640  0.1161
15259TIP3    H167192   0.153   5.534   4.979  0.3439 -0.6498  0.4547
15259TIP3    H267193   0.065   5.621   5.065  0.3584 -0.2177  0.0390
15260TIP3   OH267194   1.062   3.191   6.325  0.2228 -0.0597 -0.4504
15260TIP3    H167195   1.064   3.246   6.403  0.0429 -1.8454  0.8527
15260TIP3    H267196   1.154   3.185   6.297  0.6003 -1.2196  0.9558
15261TIP3   OH267197   6.675   0.792  14.733 -0.0565 -0.4235  0.4546
15261TIP3    H167198   6.744   0.846  14.694 -0.0799 -0.0171  0.9563
15261TIP3    H267199   6.698   0.788  14.826 -0.7982 -0.1470  0.6566
15262TIP3   OH267200   0.631   1.811  13.525 -0.1459  0.1761 -0.1106
15262TIP3    H167201   0.536   1.803  13.515 -0.4195  1.2703  1.2519
15262TIP3    H267202   0.661   1.721  13.539 -1.4361  0.0490  2.5508
15263TIP3   OH267203   5.954   1.779   5.429  0.5058 -0.0024 -0.6814
15263TIP3    H167204   6.026   1.723   5.458  0.5302  0.0403 -0.6603
15263TIP3    H267205   5.922   1.737   5.348 -1.0702 -1.4370  0.6097
15264TIP3   OH267206   3.873   1.390  16.324  0.4291 -0.1968  0.4494
15264TIP3    H167207   3.916   1.405  16.408 -1.1511 -1.1076  1.4680
15264TIP3    H267208   3.862   1.295  16.319  0.7691 -0.1844 -0.9465
15265TIP3   OH267209   2.506   4.521  13.966 -0.5318  0.0940  0.2360
15265TIP3    H167210   2.488   4.606  14.008 -1.5771 -0.8376  1.7513
15265TIP3    H267211   2.513   4.460  14.039  0.9077 -1.0401 -0.7914
15266TIP3   OH267212   0.154   2.513  13.659 -0.0066 -0.0965  0.5683
15266TIP3    H167213   0.064   2.513  13.626 -0.2949  0.1577  1.3288
15266TIP3    H267214   0.165   2.600  13.699  1.1772  0.5632 -1.0732
15267TIP3   OH267215   4.375   2.352  15.933  0.7278  0.1551  0.0597
15267TIP3    H167216   4.330   2.300  15.866  0.5917  1.2626 -0.7321
15267TIP3    H267217   4.335   2.324  16.016 -0.7724  0.4267 -0.5364
15268TIP3   OH267218   2.397   2.133  14.632 -0.5170 -0.6522  0.2271
15268TIP3    H167219   2.378   2.183  14.712  0.8718 -1.0731  0.8470
15268TIP3    H267220   2.450   2.059  14.662  1.5061  0.1003 -1.2698
15269TIP3   OH267221   6.633   3.366  16.816  0.5163  0.0081 -0.0587
15269TIP3    H167222   6.553   3.404  16.853  1.1810  1.7009 -0.2662
15269TIP3    H267223   6.605   3.283  16.778 -1.4763  1.2063 -1.4166
15270TIP3   OH267224   3.751   5.463  13.690  0.4564  0.3537  0.0329
15270TIP3    H167225   3.723   5.401  13.622 -0.6933 -0.1601  0.9438
15270TIP3    H267226   3.720   5.548  13.659  2.6037  0.6423 -1.5409
15271TIP3   OH267227   1.912   1.662  15.401 -0.6789 -0.4313  0.1081
15271TIP3    H167228   1.837   1.644  15.457 -0.5354  0.1916  0.5090
15271TIP3    H267229   1.950   1.742  15.437 -0.8013  0.1944 -1.1191
15272TIP3   OH267230   5.754   1.594   0.772  0.0268  0.3273 -0.7635
15272TIP3    H167231   5.806   1.583   0.692 -1.4128  0.9617 -1.8372
15272TIP3    H267232   5.683   1.653   0.746 -0.7662  0.1338  0.8598
15273TIP3   OH267233   4.566   3.682  16.329 -0.4071  0.3587  0.1525
15273TIP3    H167234   4.640   3.627  16.304 -0.1922  0.1087  1.2686
15273TIP3    H267235   4.572   3.688  16.424 -2.8196 -1.0985  0.4623
15274TIP3   OH267236   3.578   0.522  16.614 -0.2184  0.0496  0.0576
15274TIP3    H167237   3.488   0.552  16.627 -0.7242 -2.4341  3.4319
15274TIP3    H267238   3.631   0.582  16.666  0.3389  1.9377 -2.4638
15275TIP3   OH267239   1.937   0.118  12.772  0.3470  0.7977  0.8348
15275TIP3    H167240   1.971   0.097  12.685 -0.5223  1.2800  0.3668
15275TIP3    H267241   1.909   0.033  12.807  0.4870  0.6347  0.5567
15276TIP3   OH267242   6.382   4.114   4.134  0.2866  0.2406  0.4756
15276TIP3    H167243   6.461   4.133   4.083 -0.3320  1.9069  0.0756
15276TIP3    H267244   6.356   4.199   4.171 -0.6666 -0.4914  1.5639
15277TIP3   OH267245   5.365   0.409  15.529  0.2783  0.4946 -0.3185
15277TIP3    H167246   5.297   0.369  15.583  2.1753 -2.7400 -0.0741
15277TIP3    H267247   5.336   0.395  15.439  1.3034 -2.5976 -0.2882
15278TIP3   OH267248   4.148   6.081  13.964  0.0144 -0.0156  0.6088
15278TIP3    H167249   4.213   6.083  14.034  0.6562  0.8380  0.0083
15278TIP3    H267250   4.123   6.172  13.951  0.8696  0.0175 -1.1209
15279TIP3   OH267251   1.142   3.861  10.657 -0.5651 -0.1065  0.5228
15279TIP3    H167252   1.213   3.820  10.707 -2.0182 -0.1097  2.6924
15279TIP3    H267253   1.183   3.938  10.616  1.1560 -1.2692 -0.0460
15280TIP3   OH267254   6.163   2.898  11.166  0.3337  0.2068 -0.0524
15280TIP3    H167255   6.067   2.896  11.174  0.4377 -0.9729  1.1831
15280TIP3    H267256   6.194   2.907  11.256  1.4081 -1.6284 -0.1959
15281TIP3   OH267257   5.625   4.600   5.064  0.0135 -0.5053  0.0722
15281TIP3    H167258   5.661   4.522   5.023  0.2441 -0.2006 -0.3195
15281TIP3    H267259   5.625   4.666   4.994 -1.0995 -0.4331  0.1321
15282TIP3   OH267260   6.212   6.166  15.566 -0.2394  0.1323  0.2052
15282TIP3    H167261   6.172   6.080  15.579  1.0223 -0.2734  1.5811
15282TIP3    H267262   6.221   6.174  15.471 -0.7738 -1.0545  0.0402
15283TIP3   OH267263   6.744   5.318   4.460  0.2265 -0.4127 -0.0791
15283TIP3    H167264   6.758   5.224   4.473 -0.8333 -0.8259 -1.6180
15283TIP3    H267265   6.695   5.346   4.537 -0.0178 -1.2707  0.0861
15284TIP3   OH267266   1.059   5.775  14.425 -0.3996  0.0680  0.3481
15284TIP3    H167267   1.035   5.715  14.495 -0.0828  0.1715  0.5478
15284TIP3    H267268   1.009   5.855  14.443 -1.1218 -0.2713 -0.1410
15285TIP3   OH267269   0.179   1.230  16.735  0.0082  0.1143  0.6204
15285TIP3    H167270   0.093   1.232  16.692  0.5412  0.0711 -0.4689
15285TIP3    H267271   0.196   1.322  16.758  0.1458  0.2926 -0.1539
15286TIP3   OH267272   5.467   4.410  13.277  0.0269 -0.5007  0.0387
15286TIP3    H167273   5.536   4.368  13.328  0.2751  0.8987  0.9293
15286TIP3    H267274   5.387   4.365  13.302  0.4055 -1.0741  0.2266
15287TIP3   OH267275   0.276   1.846   3.884  0.0573  0.5874 -0.1585
15287TIP3    H167276   0.303   1.934   3.859  1.3836  0.2879  0.1403
15287TIP3    H267277   0.262   1.800   3.801  2.2933  0.2299 -0.3801
15288TIP3   OH267278   5.460   0.680   4.492  0.0218  0.0912 -0.3465
15288TIP3    H167279   5.488   0.769   4.511 -1.7082  0.9802 -1.7151
15288TIP3    H267280   5.511   0.625   4.552  0.5524  2.0534  1.0676
15289TIP3   OH267281   0.071   2.133  12.929  0.2864 -0.1014 -0.2679
15289TIP3    H167282   0.107   2.218  12.954  0.8255 -0.8996  1.9899
15289TIP3    H267283   0.148   2.077  12.919 -0.1396 -0.9287  0.8882
15290TIP3   OH267284   1.788   1.558  14.217  0.3370  0.3353 -0.3039
15290TIP3    H167285   1.844   1.616  14.268 -0.2779  0.7763 -0.1171
15290TIP3    H267286   1.749   1.500  14.281  0.5488  0.0526 -0.4297
15291TIP3   OH267287   1.209   0.907   6.431  0.4828 -0.0933  0.0498
15291TIP3    H167288   1.156   0.828   6.441  1.1635 -0.7077 -0.9491
15291TIP3    H267289   1.149   0.980   6.449 -0.3533 -0.8112  0.2029
15292TIP3   OH267290   2.958   2.626   3.624  0.3568  0.2508 -0.5178
15292TIP3    H167291   3.043   2.592   3.653  1.0086  0.5215 -2.0210
15292TIP3    H267292   2.979   2.683   3.550 -1.1703  0.0827 -1.1209
15293TIP3   OH267293   5.609   5.527  11.538  0.1596  0.2110  0.5771
15293TIP3    H167294   5.539   5.525  11.603  0.2348 -0.5544  0.6434
15293TIP3    H267295   5.616   5.437  11.507  1.6141  0.1227  1.0925
15294TIP3   OH267296   5.009   1.384  13.090  0.4188  0.3880 -0.6533
15294TIP3    H167297   5.019   1.478  13.103  0.3375  0.3522 -0.3207
15294TIP3    H267298   5.097   1.348  13.102  0.0150  0.0953  2.0662
15295TIP3   OH267299   3.049   1.275   5.724 -0.3985 -0.0257 -0.0794
15295TIP3    H167300   3.106   1.222   5.668  0.3201  0.0708  0.5387
15295TIP3    H267301   3.077   1.365   5.709 -1.4811  0.1790 -0.9766
15296TIP3   OH267302   2.513   4.847   1.516  0.0505  0.3711 -0.2591
15296TIP3    H167303   2.431   4.892   1.499 -0.7121 -0.9147 -0.1384
15296TIP3    H267304   2.579   4.895   1.466 -0.6462  1.8296  0.1821
15297TIP3   OH267305   3.786   3.678   3.140 -0.0556 -0.1736 -0.0465
15297TIP3    H167306   3.843   3.721   3.076 -0.6934  0.8551  0.0571
15297TIP3    H267307   3.828   3.696   3.224 -0.6040  0.7290  0.0450
15298TIP3   OH267308   0.853   2.894  14.043 -0.1344 -0.2330  0.3276
15298TIP3    H167309   0.776   2.922  14.092  0.3243 -0.6063  1.2923
15298TIP3    H267310   0.819   2.834  13.977 -0.8779  1.0316 -0.4683
15299TIP3   OH267311   1.248   5.225   1.952  0.0586 -0.0357  0.0866
15299TIP3    H167312   1.207   5.302   1.991 -0.9187 -1.1029  1.2729
15299TIP3    H267313   1.313   5.198   2.017 -0.2449 -0.7290  0.1074
15300TIP3   OH267314   4.798   2.057   5.378 -0.1218 -0.2778  0.0852
15300TIP3    H167315   4.766   2.007   5.303 -0.1663  0.2382 -0.2520
15300TIP3    H267316   4.799   1.995   5.451 -3.6590  0.0693  0.6064
15301TIP3   OH267317   6.137   1.766   4.296  0.3484 -0.2378  0.0334
15301TIP3    H167318   6.054   1.773   4.343  0.2266 -0.5047 -0.1369
15301TIP3    H267319   6.129   1.684   4.247  0.8451 -0.4339  0.2775
15302TIP3   OH267320   3.532   6.728   1.841 -0.3703 -0.7232 -0.0610
15302TIP3    H167321   3.532   6.696   1.751 -1.2118  1.4917 -0.9193
15302TIP3    H267322   3.448   6.699   1.877 -1.1635  0.5100 -0.8547
15303TIP3   OH267323   3.854   5.583  12.951  0.0639 -0.0887  0.2436
15303TIP3    H167324   3.914   5.578  13.026  0.2091  0.4924  0.1746
15303TIP3    H267325   3.793   5.653  12.975 -0.0304 -0.0600 -0.0806
15304TIP3   OH267326   0.401   2.926  12.140  0.3732  0.3303 -0.4398
15304TIP3    H167327   0.377   2.835  12.127  2.0779 -0.0367 -1.3255
15304TIP3    H267328   0.392   2.966  12.053  1.2878  0.5718 -0.4278
15305TIP3   OH267329   1.217   3.422  17.115 -0.3302  0.0273 -0.4521
15305TIP3    H167330   1.266   3.489  17.068  0.1528 -1.7941 -2.7021
15305TIP3    H267331   1.166   3.471  17.180  0.0600  2.5402 -1.9153
15306TIP3   OH267332   0.076   2.314   3.767  0.4251  0.3645  0.5503
15306TIP3    H167333   0.126   2.361   3.833 -0.4101  0.8431  0.8630
15306TIP3    H267334   0.077   2.372   3.690  0.4344  0.3347  0.5276
15307TIP3   OH267335   5.963   5.845   2.015 -0.1995  0.8803 -0.3655
15307TIP3    H167336   6.003   5.795   1.945 -1.2133 -0.7740  0.1828
15307TIP3    H267337   5.986   5.797   2.095 -2.6979  0.1475  0.0246
15308TIP3   OH267338   0.142   1.891  14.442  0.2754  0.5844  0.4246
15308TIP3    H167339   0.157   1.900  14.348  0.4397  1.4474  0.5304
15308TIP3    H267340   0.050   1.866  14.449 -0.1109  1.8450  0.0873
15309TIP3   OH267341   5.246   1.906  16.289  0.1249 -0.2567  0.3893
15309TIP3    H167342   5.270   1.875  16.376  0.3118 -0.9064  0.1075
15309TIP3    H267343   5.327   1.940  16.252  0.3826 -1.3911 -0.1164
15310TIP3   OH267344   4.933   2.864  15.321 -0.1213 -0.3665  0.1538
15310TIP3    H167345   4.915   2.783  15.368  1.4791 -1.4416 -0.9728
15310TIP3    H267346   4.848   2.891  15.286 -1.0533 -0.3620  2.2917
15311TIP3   OH267347   1.283   3.657  12.118  0.7013  0.0342 -0.0184
15311TIP3    H167348   1.259   3.605  12.041 -0.2274  0.1766  0.1555
15311TIP3    H267349   1.266   3.599  12.192  0.4776  0.2915  0.1318
15312TIP3   OH267350   5.271   6.771  17.092  0.1665  0.2261  0.0089
15312TIP3    H167351   5.300   6.847  17.042  2.4513  0.4673  1.5381
15312TIP3    H267352   5.228   6.808  17.169  2.1658  0.0835  1.2589
15313TIP3   OH267353   0.854   0.850  15.347 -0.0409  0.3969  0.8620
15313TIP3    H167354   0.761   0.869  15.332 -0.4894 -0.8445  1.8598
15313TIP3    H267355   0.871   0.884  15.434  0.2532 -0.0092  0.9634
15314TIP3   OH267356   3.488   2.058  17.110 -0.1877  0.4086  0.0964
15314TIP3    H167357   3.399   2.034  17.134  0.3577 -0.4376  1.3509
15314TIP3    H267358   3.487   2.062  17.014 -2.0017  2.2037  0.1236
15315TIP3   OH267359   4.677   1.734  15.228  0.2103 -0.3012 -0.3276
15315TIP3    H167360   4.669   1.674  15.154  0.7618 -1.2923  0.3896
15315TIP3    H267361   4.729   1.685  15.293  0.0105  0.6586  0.5820
15316TIP3   OH267362   1.023   3.326   1.712  0.1840 -0.5288  0.0585
15316TIP3    H167363   1.047   3.238   1.742 -0.4174 -0.7832 -0.1906
15316TIP3    H267364   0.928   3.328   1.717  0.0884 -0.3988 -1.2718
15317TIP3   OH267365   6.105   5.145  11.684  0.0982  0.0509  0.1910
15317TIP3    H167366   6.037   5.200  11.723 -0.6487 -1.7323  1.5478
15317TIP3    H267367   6.086   5.146  11.590 -2.1061 -0.6925  0.5630
15318TIP3   OH267368   1.115   3.954  14.048  0.3263 -0.2038  0.0792
15318TIP3    H167369   1.204   3.919  14.058  0.7762  1.0064  0.5135
15318TIP3    H267370   1.106   3.970  13.954  0.5277 -0.4468  0.0180
15319TIP3   OH267371   6.338   0.688   3.547  0.3515 -0.1905 -0.0896
15319TIP3    H167372   6.434   0.692   3.551  0.3580  1.6312 -0.8184
15319TIP3    H267373   6.319   0.660   3.457  0.2079  0.0176 -0.1251
15320TIP3   OH267374   5.129   3.511  15.819 -0.3840 -0.1963  0.6575
15320TIP3    H167375   5.188   3.574  15.860 -1.8111  1.8685 -0.2772
15320TIP3    H267376   5.173   3.487  15.737  0.3189 -0.6846  1.1741
15321TIP3   OH267377   0.665   1.218   4.753 -0.2214 -0.0734  0.4038
15321TIP3    H167378   0.760   1.214   4.740 -0.3646 -0.6132 -0.5804
15321TIP3    H267379   0.636   1.127   4.743 -0.9864  0.2569 -0.6145
15322TIP3   OH267380   3.949   6.137   3.026  0.2289  0.1811 -0.1818
15322TIP3    H167381   3.979   6.099   2.943 -0.5046  2.0685 -1.3531
15322TIP3    H267382   4.029   6.144   3.079  1.2678  1.6805 -1.8562
15323TIP3   OH267383   0.943   4.183  15.317  0.3454  0.1565  0.5112
15323TIP3    H167384   0.863   4.131  15.310 -0.4771  1.5616 -0.9857
15323TIP3    H267385   1.013   4.122  15.290  0.2340 -1.8179  4.0162
15324TIP3   OH267386   4.968   6.576  10.543 -0.1545  0.8881  0.3427
15324TIP3    H167387   4.988   6.668  10.525  0.5971  0.6612 -0.0532
15324TIP3    H267388   5.036   6.527  10.496  0.0081  0.1625  1.2982
15325TIP3   OH267389   2.884   4.797   2.245  0.2261 -0.3466 -0.3057
15325TIP3    H167390   2.812   4.735   2.231 -1.0444  0.7716  0.9511
15325TIP3    H267391   2.844   4.871   2.291  2.2650  0.1268  0.8642
15326TIP3   OH267392   6.027   2.053   3.303 -0.9006 -0.0241 -0.0687
15326TIP3    H167393   6.063   2.133   3.265  0.8900  0.3230  2.1567
15326TIP3    H267394   5.952   2.082   3.355 -0.3156  0.2369  0.6509
15327TIP3   OH267395   3.345   3.266  14.254 -0.0198  0.1205 -0.8757
15327TIP3    H167396   3.333   3.352  14.296  0.3553 -1.0608  1.8319
15327TIP3    H267397   3.256   3.235  14.238 -0.2138  0.1305  0.1203
15328TIP3   OH267398   4.894   1.951   1.253  0.0284  0.0464  0.2420
15328TIP3    H167399   4.863   1.999   1.176 -0.6969 -0.0965  0.4419
15328TIP3    H267400   4.824   1.889   1.273  0.1359  0.1937  1.1214
15329TIP3   OH267401   6.487   3.046   2.171 -0.0345 -0.0821  0.3654
15329TIP3    H167402   6.578   3.043   2.142 -0.3548 -1.6251 -0.6236
15329TIP3    H267403   6.436   3.045   2.090 -0.9640  1.6077  0.8735
15330TIP3   OH267404   4.978   5.324  13.753  0.4665 -0.2586 -0.5297
15330TIP3    H167405   5.067   5.348  13.729  0.3351  2.4294  1.3268
15330TIP3    H267406   4.924   5.397  13.723 -0.5841 -0.0502  1.6885
15331TIP3   OH267407   1.990   5.871  10.734 -0.0824  0.6273  0.2589
15331TIP3    H167408   1.999   5.926  10.656  2.0838 -1.3737 -1.0729
15331TIP3    H267409   1.923   5.807  10.711  0.8983 -0.2640 -0.2368
15332TIP3   OH267410   6.675   0.108   4.607  0.2127 -0.2978 -0.0507
15332TIP3    H167411   6.750   0.115   4.665  0.2601  0.8956 -0.2358
15332TIP3    H267412   6.608   0.065   4.660  0.2495  0.7907  0.9156
15333TIP3   OH267413   3.838   3.661   2.535  0.0744 -0.2628  0.3014
15333TIP3    H167414   3.880   3.696   2.614  1.5474  2.3166 -1.4799
15333TIP3    H267415   3.745   3.653   2.559  0.6365 -0.6188  2.5982
15334TIP3   OH267416   4.390   1.216   3.809  0.1808  0.3395 -0.0559
15334TIP3    H167417   4.307   1.169   3.815  1.3357 -1.7032  0.7807
15334TIP3    H267418   4.382   1.268   3.729 -1.4019 -0.8087 -0.6910
15335TIP3   OH267419   5.323   2.243   2.255 -0.3476  0.2880 -0.4512
15335TIP3    H167420   5.390   2.306   2.229 -0.7141  1.2110  0.7158
15335TIP3    H267421   5.288   2.278   2.337  0.9430 -2.5682  1.4698
15336TIP3   OH267422   1.744   1.160   3.156 -0.2393 -0.2043 -0.1340
15336TIP3    H167423   1.673   1.215   3.122 -2.7210 -2.3748  1.1967
15336TIP3    H267424   1.740   1.171   3.251  2.6018  1.0920 -0.0453
15337TIP3   OH267425   1.871   0.870  15.456  0.4522 -0.3108 -0.4909
15337TIP3    H167426   1.903   0.881  15.367  1.2380  0.0013 -0.1847
15337TIP3    H267427   1.824   0.951  15.476 -0.5252 -0.7624 -0.9371
15338TIP3   OH267428   3.333   3.776   1.383 -0.0325 -0.6981 -0.1390
15338TIP3    H167429   3.406   3.715   1.391  0.1135 -0.5193 -0.1060
15338TIP3    H267430   3.324   3.814   1.470  1.4033  1.0687 -0.7050
15339TIP3   OH267431   4.754   3.767   1.478  0.4056  0.8185 -0.0929
15339TIP3    H167432   4.840   3.789   1.513  0.3790 -0.7836  1.0869
15339TIP3    H267433   4.773   3.710   1.403  0.4053 -0.9685  1.2033
15340TIP3   OH267434   1.400   6.387  15.197  0.1167  0.9986  0.1411
15340TIP3    H167435   1.430   6.404  15.286  1.0011  0.9970 -0.1385
15340TIP3    H267436   1.398   6.473  15.155 -0.7764  1.0595  0.2973
15341TIP3   OH267437   2.149   1.328  14.387  0.4227  0.6136 -0.1862
15341TIP3    H167438   2.091   1.259  14.419 -0.4423  1.6862  0.6143
15341TIP3    H267439   2.223   1.327  14.448  0.9118 -0.2519 -0.7672
15342TIP3   OH267440   3.480   5.326   1.778 -0.5050  0.6334  0.5549
15342TIP3    H167441   3.563   5.324   1.826  1.0958 -1.1163 -1.9988
15342TIP3    H267442   3.490   5.397   1.715 -0.5688 -0.0967 -0.3018
15343TIP3   OH267443   5.145   2.624   2.690 -0.2808  0.0134  0.2379
15343TIP3    H167444   5.166   2.531   2.681  0.6763  0.0797  1.4677
15343TIP3    H267445   5.220   2.669   2.652  0.0796  0.2622  1.2062
15344TIP3   OH267446   4.446   5.747  11.367  0.2204 -0.8512  0.0645
15344TIP3    H167447   4.429   5.668  11.315 -0.4407  0.8539 -2.4727
15344TIP3    H267448   4.542   5.755  11.367  0.2721 -1.3972 -0.0609
15345TIP3   OH267449   1.420   1.950   1.392 -0.2373 -0.0166 -0.3349
15345TIP3    H167450   1.465   1.987   1.316 -0.2180  0.5542 -0.0558
15345TIP3    H267451   1.485   1.957   1.463 -0.5958  0.3791 -0.0403
15346TIP3   OH267452   4.812   2.746   0.552 -0.7664  0.3243  0.6873
15346TIP3    H167453   4.762   2.679   0.599 -1.6733  0.2831 -0.3002
15346TIP3    H267454   4.785   2.736   0.460 -1.3273  2.3777  0.5873
15347TIP3   OH267455   1.861   4.750   4.651 -0.2729  0.1043  0.0096
15347TIP3    H167456   1.930   4.691   4.682  0.1082  0.3572 -0.3464
15347TIP3    H267457   1.792   4.692   4.621 -0.0681 -0.1558  0.0357
15348TIP3   OH267458   6.157   2.918  15.007  0.7576  0.1481  0.7498
15348TIP3    H167459   6.146   3.004  14.967 -1.9241 -0.8586 -0.9185
15348TIP3    H267460   6.072   2.898  15.044  1.8772 -1.0314  2.8280
15349TIP3   OH267461   4.990   1.295  16.183  0.0508  0.1979 -0.1920
15349TIP3    H167462   4.936   1.303  16.105  0.2298 -1.5041 -0.5306
15349TIP3    H267463   5.064   1.355  16.168  0.4489 -0.6291 -1.6621
15350TIP3   OH267464   0.623   4.983   5.731 -0.2495  0.6604 -0.4544
15350TIP3    H167465   0.530   4.965   5.740  0.3151 -2.1296  0.9340
15350TIP3    H267466   0.653   5.001   5.820  0.7739 -0.0216 -0.6440
15351TIP3   OH267467   3.562   6.199  12.270 -0.0355 -0.5856 -0.1025
15351TIP3    H167468   3.613   6.252  12.209 -1.6335  0.8077 -0.2995
15351TIP3    H267469   3.611   6.204  12.353  0.9226 -0.5461 -0.6592
15352TIP3   OH267470   6.710   3.539   1.781 -0.1564  0.1576 -0.4348
15352TIP3    H167471   6.714   3.521   1.875  2.2099  2.3919 -0.0180
15352TIP3    H267472   6.733   3.455   1.740  0.8153 -0.3393  1.0415
15353TIP3   OH267473   1.179   5.326  15.038 -0.1174 -0.0627  0.4681
15353TIP3    H167474   1.217   5.412  15.019  0.8996 -0.3299  1.2446
15353TIP3    H267475   1.123   5.308  14.962  1.4007  0.2760 -0.7951
15354TIP3   OH267476   5.124   1.637  10.357 -0.0654 -0.4809  0.0782
15354TIP3    H167477   5.155   1.703  10.419 -0.1467 -0.7863  0.4420
15354TIP3    H267478   5.096   1.688  10.281  0.5383 -0.1389  0.0729
15355TIP3   OH267479   5.146   4.602  12.215  0.5925  0.1075 -0.0681
15355TIP3    H167480   5.134   4.615  12.309  1.1656  1.3507 -0.1391
15355TIP3    H267481   5.233   4.564  12.207  1.4828  2.0259 -0.1735
15356TIP3   OH267482   0.151   2.168  14.875 -0.1666 -0.0683 -0.3789
15356TIP3    H167483   0.159   2.135  14.785 -0.8035  1.1034 -0.8812
15356TIP3    H267484   0.205   2.247  14.877 -0.6481  0.2562  0.0905
15357TIP3   OH267485   5.632   0.477  11.204  0.0593  0.0459  0.0235
15357TIP3    H167486   5.569   0.458  11.134  0.0240 -1.9446  0.5247
15357TIP3    H267487   5.708   0.514  11.158 -0.7625  0.7725 -0.7929
15358TIP3   OH267488   1.299   1.679   4.599  0.3795  0.3955  0.0537
15358TIP3    H167489   1.257   1.753   4.555 -0.6750 -0.1449  0.1261
15358TIP3    H267490   1.244   1.664   4.676  0.9629 -0.0543  0.3826
15359TIP3   OH267491   6.203   4.954   0.214 -0.0549  0.5490 -0.3018
15359TIP3    H167492   6.134   4.965   0.279 -0.0603  0.4792 -0.2954
15359TIP3    H267493   6.274   5.011   0.244  0.4173 -0.4019  0.4324
15360TIP3   OH267494   2.490   4.399  15.856 -0.0857  0.2342 -0.8320
15360TIP3    H167495   2.541   4.465  15.808  1.6375 -0.2672  0.2153
15360TIP3    H267496   2.458   4.446  15.933 -0.3444  0.2887 -0.9732
15361TIP3   OH267497   3.100   4.725  13.957  0.3999  0.2676 -0.0724
15361TIP3    H167498   3.190   4.748  13.932  0.7766 -1.4679 -0.4689
15361TIP3    H267499   3.075   4.791  14.021  1.4072  1.6550 -1.0638
15362TIP3   OH267500   4.152   0.700   6.030  0.0713 -0.5507 -0.4907
15362TIP3    H167501   4.184   0.656   5.952  1.0745 -0.2553 -0.2588
15362TIP3    H267502   4.221   0.688   6.095 -0.3530 -0.0281  0.0705
15363TIP3   OH267503   0.419   3.290   5.130  0.3410 -0.5425 -0.1990
15363TIP3    H167504   0.388   3.312   5.042 -0.8044 -2.5556 -0.3645
15363TIP3    H267505   0.458   3.371   5.163  1.5253  0.0729 -2.8379
15364TIP3   OH267506   5.488   5.932   2.894 -0.1179  0.4214  0.3411
15364TIP3    H167507   5.504   5.872   2.821 -3.6954 -0.8712  0.4527
15364TIP3    H267508   5.487   6.019   2.853  0.5651  0.0031 -0.6182
15365TIP3   OH267509   5.059   0.653  14.417 -0.2873  0.0663  0.1600
15365TIP3    H167510   5.038   0.560  14.428 -0.7177  0.2812  1.1943
15365TIP3    H267511   5.003   0.698  14.479 -0.4791  1.0793 -0.7240
15366TIP3   OH267512   6.569   5.967   1.611  0.0203 -0.4114 -0.2907
15366TIP3    H167513   6.546   5.910   1.538 -2.1199 -1.7563  1.3361
15366TIP3    H267514   6.599   5.907   1.680 -1.6023  0.4308  1.2214
15367TIP3   OH267515   5.305   4.918  14.691 -1.2045  0.3309  0.6552
15367TIP3    H167516   5.347   4.875  14.765 -0.6607  0.0215  0.1850
15367TIP3    H267517   5.364   4.900  14.617 -2.2505 -0.2689 -0.0743
15368TIP3   OH267518   1.906   5.629   1.003 -0.0280 -0.0443 -0.0580
15368TIP3    H167519   1.825   5.631   0.952 -0.3653 -1.3248  0.3906
15368TIP3    H267520   1.974   5.660   0.943 -0.5434 -0.7454 -1.0222
15369TIP3   OH267521   6.608   0.656   4.239  0.4754  0.7928 -0.4749
15369TIP3    H167522   6.639   0.571   4.207  0.4950  1.1019 -1.3107
15369TIP3    H267523   6.568   0.697   4.162 -1.1139  0.8269  0.3355
15370TIP3   OH267524   4.986   2.302   5.539  0.5725 -0.1558 -0.4102
15370TIP3    H167525   4.970   2.272   5.629 -0.2275  0.7561 -0.2226
15370TIP3    H267526   4.941   2.386   5.534  2.0978  0.6736 -1.1238
15371TIP3   OH267527   4.194   3.858  13.230  0.2113  0.2149  0.2518
15371TIP3    H167528   4.230   3.877  13.317  1.0765 -0.5145  0.0781
15371TIP3    H267529   4.107   3.897  13.230  1.2123  2.6766  0.4711
15372TIP3   OH267530   4.821   6.460  16.780  0.2228 -0.5864 -0.1200
15372TIP3    H167531   4.874   6.465  16.701 -0.3374 -0.0723 -0.4799
15372TIP3    H267532   4.732   6.447  16.748 -0.0498 -0.0817  0.4063
15373TIP3   OH267533   4.691   3.996  11.656  0.5105 -0.1720  0.2807
15373TIP3    H167534   4.647   4.042  11.585  1.4479  0.5187  0.1186
15373TIP3    H267535   4.750   4.062  11.694  0.5821 -0.7435  1.2062
15374TIP3   OH267536   1.511   1.758   3.904 -0.3943  0.0875 -0.1078
15374TIP3    H167537   1.505   1.846   3.940 -0.3591 -0.3959  1.1328
15374TIP3    H267538   1.604   1.735   3.910 -0.5644 -0.4391  0.5903
15375TIP3   OH267539   0.400   5.833   6.218  0.5488 -0.2221  0.0568
15375TIP3    H167540   0.402   5.744   6.253  2.2204 -0.1869  0.1231
15375TIP3    H267541   0.339   5.880   6.275  2.2671 -0.4745  2.2344
15376TIP3   OH267542   1.343   3.517  10.959  0.3044 -0.2587 -0.3671
15376TIP3    H167543   1.405   3.527  11.031  1.0920  2.4785 -1.3257
15376TIP3    H267544   1.257   3.511  11.002  0.7977  0.8290  0.8222
15377TIP3   OH267545   3.880   1.828   2.440  0.5062  0.4878 -0.4924
15377TIP3    H167546   3.826   1.842   2.518  0.0220  0.2656 -0.7822
15377TIP3    H267547   3.884   1.914   2.398  0.4440  0.5245 -0.4233
15378TIP3   OH267548   2.046   4.692   4.994  0.3483  0.0357 -0.2553
15378TIP3    H167549   2.062   4.682   4.901 -0.5881 -1.9482 -0.2687
15378TIP3    H267550   2.108   4.759   5.023 -0.8585  2.3728 -2.6694
15379TIP3   OH267551   0.373   6.126  14.789  0.1042 -0.4369 -0.2178
15379TIP3    H167552   0.381   6.036  14.758  0.6642 -0.6182  0.4334
15379TIP3    H267553   0.300   6.162  14.739 -1.6085 -1.9282  1.0655
15380TIP3   OH267554   5.482   6.003  11.685 -0.0796  1.2400 -0.3108
15380TIP3    H167555   5.427   6.070  11.725 -2.5472 -0.0738 -1.3489
15380TIP3    H267556   5.433   5.922  11.694  2.8072 -0.5578  0.9093
15381TIP3   OH267557   3.856   5.626  15.366 -0.3256 -0.4742 -0.4714
15381TIP3    H167558   3.894   5.649  15.451 -1.7240  0.4551 -0.0486
15381TIP3    H267559   3.859   5.708  15.316 -3.1575  0.1297  0.1689
15382TIP3   OH267560   4.893   3.637  13.813  0.4901  0.3221  0.0332
15382TIP3    H167561   4.872   3.643  13.906  0.9302 -0.4961  0.1938
15382TIP3    H267562   4.982   3.601  13.811  0.5065  0.3928 -0.6989
15383TIP3   OH267563   6.698   3.751  14.266 -0.2446  0.2701 -0.5040
15383TIP3    H167564   6.776   3.797  14.298  0.4172 -2.7382  2.9412
15383TIP3    H267565   6.639   3.820  14.236  2.2078  2.9488  0.3778
15384TIP3   OH267566   0.408   0.842   3.261  0.1517  0.0477  0.2067
15384TIP3    H167567   0.356   0.765   3.285 -0.0950 -0.3351 -1.4424
15384TIP3    H267568   0.350   0.916   3.277 -0.3529 -0.2668 -0.1301
15385TIP3   OH267569   5.223   2.316   4.833 -0.9391  0.5672 -0.2598
15385TIP3    H167570   5.256   2.226   4.828 -1.6040  0.2417  0.8994
15385TIP3    H267571   5.130   2.309   4.813 -1.0468  0.9593  0.0912
15386TIP3   OH267572   2.567   6.041  14.325  0.0109  0.4876 -0.4986
15386TIP3    H167573   2.574   6.049  14.420  2.7700 -1.6763 -0.3731
15386TIP3    H267574   2.594   6.126  14.292  0.8172  0.7137  0.6706
15387TIP3   OH267575   6.063   6.215  16.366  0.3274 -0.6043 -0.3632
15387TIP3    H167576   6.040   6.223  16.274 -1.3889 -0.9629  0.0068
15387TIP3    H267577   5.993   6.261  16.413  1.5535  0.2118  0.7475
15388TIP3   OH267578   4.053   6.131  15.656  0.0279 -0.9525 -0.4354
15388TIP3    H167579   3.966   6.091  15.655  0.0458 -1.0383  0.3553
15388TIP3    H267580   4.046   6.206  15.596 -0.5673 -1.0049 -0.4381
15389TIP3   OH267581   5.129   4.491  11.587 -0.0613 -0.1587 -0.4821
15389TIP3    H167582   5.088   4.406  11.568 -1.4945 -0.0201  1.7003
15389TIP3    H267583   5.113   4.505  11.680 -1.6747  3.4489 -1.1480
15390TIP3   OH267584   0.740   0.933   0.385  0.4862 -0.0058 -0.4229
15390TIP3    H167585   0.740   1.029   0.388 -1.9704  0.0397  1.3179
15390TIP3    H267586   0.681   0.911   0.313  2.1843 -0.2778 -1.7772
15391TIP3   OH267587   5.432   3.591  14.906  0.3503 -0.3305 -0.0801
15391TIP3    H167588   5.414   3.659  14.841  1.3665 -0.8252 -0.9242
15391TIP3    H267589   5.521   3.561  14.885  0.2847 -1.2614  0.8645
15392TIP3   OH267590   3.338   0.551   0.181 -0.3849  0.0600 -0.4014
15392TIP3    H167591   3.347   0.512   0.268  0.5632  1.9114  0.3923
15392TIP3    H267592   3.255   0.599   0.185  0.9137  2.4537  0.5610
15393TIP3   OH267593   4.806   6.069  16.645  0.3501  0.1968  0.1747
15393TIP3    H167594   4.877   6.036  16.700 -0.0174 -0.9787 -0.0398
15393TIP3    H267595   4.754   6.123  16.704 -0.0650 -1.0812  1.0107
15394TIP3   OH267596   3.313   1.870   4.794 -0.3262 -0.2318 -0.0253
15394TIP3    H167597   3.372   1.945   4.796 -0.3098 -0.2553  0.6368
15394TIP3    H267598   3.337   1.822   4.715 -1.4212  1.3219 -1.3638
15395TIP3   OH267599   3.638   1.475   5.095 -0.0229  0.5858 -0.2528
15395TIP3    H167600   3.570   1.536   5.065  0.8382  1.0178 -1.4005
15395TIP3    H267601   3.712   1.531   5.119 -0.4903  0.2209  2.3171
15396TIP3   OH267602   4.481   4.594  10.955  0.6918  0.1360 -0.2250
15396TIP3    H167603   4.551   4.658  10.943 -0.6659  1.7523  0.1674
15396TIP3    H267604   4.419   4.636  11.014 -0.0364 -1.7401  0.4453
15397TIP3   OH267605   0.570   1.600  14.320  0.2369  0.1232  0.0209
15397TIP3    H167606   0.530   1.615  14.234 -1.4483 -0.9844  0.5697
15397TIP3    H267607   0.569   1.685  14.362  0.6495  0.5824 -0.8650
15398TIP3   OH267608   3.191   3.423  12.185 -0.7837  0.4956  0.1794
15398TIP3    H167609   3.102   3.389  12.174 -0.3576  0.0308 -2.4350
15398TIP3    H267610   3.191   3.507  12.140 -0.3920  1.4924  1.9532
15399TIP3   OH267611   1.257   4.419   2.599 -0.2355 -0.2615  0.1082
15399TIP3    H167612   1.255   4.452   2.689 -1.9435  0.3003 -0.0910
15399TIP3    H267613   1.339   4.454   2.562 -0.1669  0.6172  1.0470
15400TIP3   OH267614   6.009   3.075  11.340 -0.6942 -0.7274  0.8569
15400TIP3    H167615   6.029   3.164  11.368  0.2255  0.1303 -2.1395
15400TIP3    H267616   6.080   3.022  11.377  1.3819  0.6030 -0.9958
15401TIP3   OH267617   1.480   1.150  14.131  0.0700  0.5538 -0.3322
15401TIP3    H167618   1.557   1.174  14.079  0.4524 -0.5765 -0.3117
15401TIP3    H267619   1.498   1.061  14.161 -1.1838  0.3302 -0.2005
15402TIP3   OH267620   6.218   1.861   3.396 -0.4929  0.0823 -0.4181
15402TIP3    H167621   6.185   1.772   3.390 -0.2240  0.0142 -0.9007
15402TIP3    H267622   6.140   1.916   3.395 -0.8108 -0.2160  1.8807
15403TIP3   OH267623   2.789   3.508  16.481 -0.1557 -0.1418  0.2695
15403TIP3    H167624   2.729   3.544  16.547  0.0587  0.8299 -0.0503
15403TIP3    H267625   2.876   3.520  16.519 -0.0545  0.0967 -0.0334
15404TIP3   OH267626   6.093   0.359  13.991 -0.0312  0.0499  0.5165
15404TIP3    H167627   6.018   0.337  13.936  1.4108  0.5318 -1.7776
15404TIP3    H267628   6.152   0.284  13.983  1.0073  0.8958 -0.1686
15405TIP3   OH267629   4.879   6.033  14.881 -0.3518  0.7306  0.2263
15405TIP3    H167630   4.888   5.972  14.954  0.1692  0.5163 -0.0053
15405TIP3    H267631   4.883   5.977  14.803 -0.1416  1.0298  0.0184
15406TIP3   OH267632   5.572   0.067  15.373 -0.1028 -0.0118 -0.1731
15406TIP3    H167633   5.631   0.012  15.322 -0.7923 -0.5926 -0.3677
15406TIP3    H267634   5.595   0.157  15.349 -0.3276 -0.2703 -1.4280
15407TIP3   OH267635   4.419   4.891   2.122  0.0629  0.0077 -0.5807
15407TIP3    H167636   4.487   4.957   2.134 -0.1327  0.0923  0.1012
15407TIP3    H267637   4.466   4.812   2.095  0.1633  0.8183 -2.9661
15408TIP3   OH267638   5.553   1.196  16.084 -0.0846 -0.2701 -0.4187
15408TIP3    H167639   5.616   1.234  16.145 -2.0788  2.5496  0.0825
15408TIP3    H267640   5.579   1.230  15.999 -0.4137  0.1756 -0.3419
15409TIP3   OH267641   0.760   2.245   4.523 -0.0825  0.9039 -0.0855
15409TIP3    H167642   0.847   2.219   4.553 -0.6691  0.1641  1.0759
15409TIP3    H267643   0.761   2.230   4.429  0.1301 -1.9914  0.2803
15410TIP3   OH267644   5.236   5.272   4.499  0.0808  0.1391  0.5338
15410TIP3    H167645   5.228   5.179   4.478  0.4823  0.2387 -0.0757
15410TIP3    H267646   5.224   5.276   4.594 -0.9187 -0.4171  0.4447
15411TIP3   OH267647   0.069   4.837   4.011  0.2449  0.0656 -0.3612
15411TIP3    H167648   0.094   4.901   3.945  1.2661  0.4226  0.3469
15411TIP3    H267649   0.074   4.884   4.094  0.2214 -0.7107  0.0948
15412TIP3   OH267650   6.790   1.802  17.124  1.0241  0.3458 -0.2171
15412TIP3    H167651   6.794   1.893  17.095 -1.7319  0.3550 -0.8448
15412TIP3    H267652   6.878   1.768  17.110  1.9136  2.6694 -0.7256
15413TIP3   OH267653   0.765   1.184   1.030  0.1029 -0.0820 -0.1195
15413TIP3    H167654   0.759   1.181   0.934  0.2319 -1.5041 -0.1020
15413TIP3    H267655   0.857   1.166   1.049 -0.2785 -1.6852  0.3122
15414TIP3   OH267656   3.817   5.489  14.741  0.2955 -0.3588 -0.1658
15414TIP3    H167657   3.800   5.519  14.652 -0.9951  3.7249  1.2549
15414TIP3    H267658   3.900   5.529  14.765  1.0146 -2.0345  0.3052
15415TIP3   OH267659   6.760   3.934  15.133 -0.2668 -0.0969 -1.0079
15415TIP3    H167660   6.789   3.913  15.222 -2.0252  1.4486 -0.0104
15415TIP3    H267661   6.681   3.881  15.120 -0.6340  0.5003 -1.2339
15416TIP3   OH267662   3.399   4.705  16.369  0.5719  0.1754  0.5486
15416TIP3    H167663   3.466   4.686  16.303  0.5142  2.4552 -0.2643
15416TIP3    H267664   3.323   4.655  16.341  0.6564  0.8545 -0.9964
15417TIP3   OH267665   4.216   4.365  12.826  0.4322  0.1700 -0.5976
15417TIP3    H167666   4.156   4.439  12.830  0.4985  0.2506 -1.0470
15417TIP3    H267667   4.289   4.391  12.883  0.2767  0.2844 -0.4472
15418TIP3   OH267668   5.960   0.829   1.066 -0.6392  0.0377  0.3939
15418TIP3    H167669   5.961   0.860   1.157 -2.0854 -2.0595  1.1975
15418TIP3    H267670   5.963   0.909   1.014 -0.9529  1.3635  2.2974
15419TIP3   OH267671   2.333   1.195  14.839 -0.0458 -0.1049 -0.3282
15419TIP3    H167672   2.300   1.143  14.765  0.5401  1.3942 -1.7232
15419TIP3    H267673   2.426   1.205  14.821 -0.1060  1.2285  0.0011
15420TIP3   OH267674   3.773   4.935  12.014 -0.4214 -0.2488  0.1324
15420TIP3    H167675   3.680   4.928  12.031 -0.2426 -0.0498  1.2810
15420TIP3    H267676   3.802   4.844  11.999 -1.0950 -0.1539 -2.1124
15421TIP3   OH267677   5.531   5.956  13.920 -0.2664  0.3511 -0.0573
15421TIP3    H167678   5.522   6.000  14.005  1.2801  0.9005 -0.1388
15421TIP3    H267679   5.466   5.997  13.864 -0.9659  0.3290  0.7250
15422TIP3   OH267680   6.697   0.623  14.361  0.4503  0.0860 -0.3547
15422TIP3    H167681   6.731   0.583  14.441 -0.3035 -0.4109 -0.2662
15422TIP3    H267682   6.612   0.659  14.387  1.3953  2.3712 -0.2725
15423TIP3   OH267683   0.266   4.235  16.058 -0.0751  0.2620 -0.1789
15423TIP3    H167684   0.221   4.153  16.078  1.6838 -0.3249  1.7907
15423TIP3    H267685   0.222   4.301  16.111 -0.2018  0.1893 -0.1941
15424TIP3   OH267686   0.356   0.028   6.573 -0.1936  0.3149  0.2070
15424TIP3    H167687   0.359   0.107   6.519 -0.8283 -0.2233 -0.6254
15424TIP3    H267688   0.263   0.008   6.582 -0.0649 -0.0154  0.9048
15425TIP3   OH267689   4.930   5.656   3.769 -0.0939 -0.4713  1.0682
15425TIP3    H167690   4.911   5.750   3.778 -1.0530 -0.3166 -1.7449
15425TIP3    H267691   4.861   5.613   3.819  0.0572  0.2990  1.9721
15426TIP3   OH267692   5.120   6.501   0.500  0.1820 -0.3288 -0.0752
15426TIP3    H167693   5.160   6.457   0.575 -1.3901 -0.2581  0.8599
15426TIP3    H267694   5.038   6.454   0.486 -0.3835  0.7632 -0.6048
15427TIP3   OH267695   0.923   0.698   5.583  0.0299 -0.3659 -0.3081
15427TIP3    H167696   0.900   0.780   5.627  1.2456 -0.6590  0.9392
15427TIP3    H267697   0.839   0.662   5.553 -0.7091  0.4286  0.7597
15428TIP3   OH267698   6.593   3.164  11.556  0.4187 -0.0894  0.1026
15428TIP3    H167699   6.641   3.176  11.638  1.5426 -0.0210 -0.5487
15428TIP3    H267700   6.518   3.110  11.580  0.5182  0.2525  1.2499
15429TIP3   OH267701   2.548   2.379  16.623  0.1641 -0.4119  0.3244
15429TIP3    H167702   2.573   2.388  16.531 -2.2847 -0.0091 -0.3736
15429TIP3    H267703   2.549   2.285  16.639 -0.2736 -0.5393 -0.3870
15430TIP3   OH267704   3.699   3.800  13.238  0.5630  0.5148 -0.0969
15430TIP3    H167705   3.734   3.725  13.286 -1.2552 -0.1042  0.3782
15430TIP3    H267706   3.643   3.845  13.302  0.9161  1.7595 -0.6413
15431TIP3   OH267707   0.239   3.217  14.065 -0.4970 -0.8488 -0.3153
15431TIP3    H167708   0.263   3.163  13.990  2.7048 -1.3105  0.8901
15431TIP3    H267709   0.317   3.270  14.082 -1.7690  0.5293  1.6144
15432TIP3   OH267710   0.023   0.805  13.684  0.4643 -0.1654  0.1718
15432TIP3    H167711  -0.029   0.747  13.630 -0.5783 -0.5887  1.5581
15432TIP3    H267712   0.006   0.776  13.774  2.1595  0.4666  0.7527
15433TIP3   OH267713   5.425   6.369   1.919  0.2000 -0.4134  0.2675
15433TIP3    H167714   5.348   6.313   1.907  0.2537 -0.2135 -1.1985
15433TIP3    H267715   5.495   6.323   1.871  1.3081 -1.1534  2.4602
15434TIP3   OH267716   0.725   4.615   5.801  0.5279 -0.0691  0.0855
15434TIP3    H167717   0.806   4.650   5.762  0.6060 -0.9054 -0.5427
15434TIP3    H267718   0.755   4.541   5.855  0.2729  0.1904  0.5786
15435TIP3   OH267719   2.842   1.935  16.581  0.2125  0.0447 -0.2256
15435TIP3    H167720   2.827   1.908  16.671 -0.9757 -2.0395 -1.0005
15435TIP3    H267721   2.806   2.024  16.576 -0.5794 -0.1877  1.0879
15436TIP3   OH267722   5.175   5.823   1.029  0.1308 -0.0972 -0.0927
15436TIP3    H167723   5.157   5.855   0.940  0.3746  0.5979  0.1027
15436TIP3    H267724   5.160   5.899   1.085 -0.0344 -0.5369  0.4674
15437TIP3   OH267725   5.235   1.700   2.034 -0.3856  0.2148 -0.4377
15437TIP3    H167726   5.319   1.746   2.039  0.8580 -1.7529 -1.6276
15437TIP3    H267727   5.176   1.761   1.990  0.4733  1.5430  0.2042
15438TIP3   OH267728   0.070   0.758   3.337 -0.2642  0.4053  0.1880
15438TIP3    H167729  -0.013   0.803   3.351 -1.1539 -1.0822 -0.0615
15438TIP3    H267730   0.089   0.770   3.244  0.5559  1.9364  0.5268
15439TIP3   OH267731   4.197   5.204  14.021  0.3551  0.0014  0.6832
15439TIP3    H167732   4.126   5.217  14.083 -0.3294 -1.1211  0.1601
15439TIP3    H267733   4.175   5.260  13.947 -0.3177 -0.8009  0.2643
15440TIP3   OH267734   1.656   3.286   2.240  0.3402 -0.0034 -0.4833
15440TIP3    H167735   1.606   3.362   2.269 -1.4483 -0.9323 -0.9648
15440TIP3    H267736   1.665   3.297   2.145 -0.0589 -0.4650 -0.5766
15441TIP3   OH267737   4.729   5.458  12.802  0.2707 -0.3984 -0.0663
15441TIP3    H167738   4.706   5.373  12.838  1.6748 -1.4387 -1.5159
15441TIP3    H267739   4.713   5.450  12.708 -1.2673  1.5470 -0.0303
15442TIP3   OH267740   2.663   1.817   2.488  0.0312  0.1493 -0.3931
15442TIP3    H167741   2.603   1.773   2.428 -2.0443  2.6339 -0.2979
15442TIP3    H267742   2.688   1.897   2.443  2.5023 -0.3044  0.0371
15443TIP3   OH267743   3.830   2.859  16.890  0.0516 -0.0837 -0.3237
15443TIP3    H167744   3.779   2.800  16.834  0.5822  1.4579 -2.5485
15443TIP3    H267745   3.771   2.879  16.963 -0.0967 -3.4081  0.6686
15444TIP3   OH267746   2.371   4.994  11.267 -0.0414 -0.0726  0.3886
15444TIP3    H167747   2.386   4.970  11.176  3.2137 -1.1094  1.0908
15444TIP3    H267748   2.297   4.940  11.294 -0.4462 -0.4481 -1.3477
15445TIP3   OH267749   5.306   5.889  16.431 -0.3848 -0.3629  0.1538
15445TIP3    H167750   5.377   5.840  16.389 -0.2861 -0.4102  0.3791
15445TIP3    H267751   5.346   5.930  16.507 -0.2274  0.8665 -0.5535
15446TIP3   OH267752   4.889   4.052   1.203  0.2081  0.1501 -0.4968
15446TIP3    H167753   4.870   4.093   1.288  0.2948 -0.7439 -0.0355
15446TIP3    H267754   4.808   4.060   1.154  0.4048  1.4172 -0.6557
15447TIP3   OH267755   0.520   2.256   1.672  0.1529 -0.0298 -0.0128
15447TIP3    H167756   0.497   2.328   1.614  0.3232  1.0290  1.1930
15447TIP3    H267757   0.615   2.260   1.680  0.0475  0.4509  1.0981
15448TIP3   OH267758   0.998   3.129  16.888 -0.3249 -0.6047  0.3876
15448TIP3    H167759   1.054   3.206  16.876 -0.4956 -0.7024 -1.1962
15448TIP3    H267760   0.960   3.141  16.975  2.3066 -0.6517  1.6537
15449TIP3   OH267761   4.627   4.215   0.673  0.0284  0.4544 -0.5872
15449TIP3    H167762   4.693   4.259   0.620  0.3819  1.0179  0.2983
15449TIP3    H267763   4.676   4.151   0.725  0.0924  1.7205  0.9851
15450TIP3   OH267764   6.073   6.098  14.277  0.3535  0.0603 -0.7934
15450TIP3    H167765   6.163   6.127  14.261  1.0084 -1.7129 -0.5052
15450TIP3    H267766   6.079   6.043  14.355 -0.5806 -1.8279 -1.9862
15451TIP3   OH267767   5.212   4.358  15.296  0.3896  0.3004 -0.3434
15451TIP3    H167768   5.159   4.344  15.218 -1.4014  0.9172  0.6995
15451TIP3    H267769   5.233   4.452  15.293 -0.4509  0.5248  0.3398
15452TIP3   OH267770   6.149   0.138  14.291  0.3092  0.0864 -0.3857
15452TIP3    H167771   6.187   0.196  14.356  1.3728  1.0371 -1.7828
15452TIP3    H267772   6.072   0.186  14.257  1.5727  1.0775 -2.0195
15453TIP3   OH267773   4.507   0.534  15.098  0.4488  0.0645  0.1311
15453TIP3    H167774   4.425   0.488  15.081 -1.2614  2.1344  2.1131
15453TIP3    H267775   4.558   0.472  15.150 -0.2016 -0.9487 -0.3937
15454TIP3   OH267776   6.516   4.394  11.371 -0.1749  0.0492 -0.2720
15454TIP3    H167777   6.611   4.387  11.369 -0.1093  0.9051 -0.5384
15454TIP3    H267778   6.498   4.460  11.437 -0.4860  1.2243 -1.4814
15455TIP3   OH267779   4.208   2.662  13.099 -0.7462  0.2307  0.9151
15455TIP3    H167780   4.118   2.657  13.065  0.4038  1.1548 -2.5936
15455TIP3    H267781   4.244   2.741  13.061  1.5917 -0.0412  2.3795
15456TIP3   OH267782   1.630   2.687   5.786  0.0276 -0.4034 -0.1249
15456TIP3    H167783   1.641   2.745   5.861 -0.5585 -0.9444  0.3933
15456TIP3    H267784   1.575   2.616   5.819  0.5125 -1.1133 -0.8164
15457TIP3   OH267785   5.976   3.950   0.787 -0.2393  0.2023  0.6152
15457TIP3    H167786   6.012   4.038   0.783 -0.6282  0.3312 -1.7546
15457TIP3    H267787   6.042   3.899   0.834  1.8710  0.9732 -1.3202
15458TIP3   OH267788   1.739   3.807  13.584  0.4381 -0.2151 -0.7641
15458TIP3    H167789   1.790   3.727  13.603  1.3920  0.9745  2.5036
15458TIP3    H267790   1.803   3.878  13.593 -0.8643  1.0519 -1.2338
15459TIP3   OH267791   3.389   0.625   1.117 -0.1791  0.2120 -0.3582
15459TIP3    H167792   3.438   0.551   1.152 -0.3709 -0.1708 -0.8914
15459TIP3    H267793   3.367   0.600   1.027  0.3221  1.1836 -0.7689
15460TIP3   OH267794   5.011   4.022  15.217 -0.1305  0.1405 -0.2969
15460TIP3    H167795   5.090   4.068  15.187  1.6350 -1.4218  1.6724
15460TIP3    H267796   4.987   4.066  15.298 -1.4361  0.6739 -0.9321
15461TIP3   OH267797   2.487   3.382   2.249 -0.2260  0.0252 -0.2154
15461TIP3    H167798   2.460   3.458   2.300  1.5524  0.3188  0.3313
15461TIP3    H267799   2.417   3.372   2.184 -0.0058  2.7614 -0.9987
15462TIP3   OH267800   1.718   3.576  12.169  1.1751  0.2921  0.2091
15462TIP3    H167801   1.638   3.565  12.221  1.3032 -2.3536  0.0080
15462TIP3    H267802   1.772   3.636  12.220 -0.4477  1.1859  0.9455
15463TIP3   OH267803   6.476   3.811  10.526 -0.1317  0.6161 -0.0800
15463TIP3    H167804   6.445   3.725  10.499 -0.1147  0.6078 -0.0723
15463TIP3    H267805   6.570   3.799  10.543  0.3880  1.1671 -2.3144
15464TIP3   OH267806   4.038   4.645  12.980 -0.2432 -0.1341  0.7867
15464TIP3    H167807   3.999   4.558  12.971 -2.6923  0.7673  1.6808
15464TIP3    H267808   4.062   4.651  13.073 -3.3301  1.2456  1.6423
15465TIP3   OH267809   1.865   2.581   0.820  0.7820 -0.3953  0.0885
15465TIP3    H167810   1.841   2.526   0.895  1.1530  1.3788  1.5676
15465TIP3    H267811   1.815   2.662   0.833  1.0928  0.0581 -1.4274
15466TIP3   OH267812   6.405   5.284   5.994 -0.2150 -0.3564 -0.1319
15466TIP3    H167813   6.462   5.289   5.916  0.1701  2.2156  0.2001
15466TIP3    H267814   6.457   5.324   6.064 -0.4738 -2.8198  1.5705
15467TIP3   OH267815   3.195   1.917   4.126 -0.2043 -0.1025 -0.2264
15467TIP3    H167816   3.185   1.885   4.215 -0.0046 -1.3335 -0.6235
15467TIP3    H267817   3.282   1.957   4.124 -0.8627  1.4470  0.5485
15468TIP3   OH267818   6.246   5.328   2.569  0.3132 -0.3103 -0.4925
15468TIP3    H167819   6.192   5.334   2.648  0.4043 -0.0374 -0.4512
15468TIP3    H267820   6.290   5.243   2.577  0.3956 -0.2413 -0.2038
15469TIP3   OH267821   5.429   2.453   0.741  0.5900  0.0048  0.3815
15469TIP3    H167822   5.364   2.465   0.672  1.2564  0.4362 -0.1835
15469TIP3    H267823   5.387   2.487   0.820  0.9719  2.5774 -0.4261
15470TIP3   OH267824   2.808   4.117  13.623 -0.8277  0.2285 -0.0619
15470TIP3    H167825   2.811   4.212  13.615 -1.3057  0.2251 -0.3185
15470TIP3    H267826   2.893   4.087  13.592 -0.7819  0.5575 -0.2524
15471TIP3   OH267827   3.014   1.540   6.062  0.2009 -0.2500  0.3786
15471TIP3    H167828   3.086   1.598   6.086 -2.0777  2.2547  1.6037
15471TIP3    H267829   2.966   1.587   5.994  0.2215 -2.3473 -1.1938
15472TIP3   OH267830   0.388   5.263  11.255  0.0810  0.0785 -0.0685
15472TIP3    H167831   0.318   5.289  11.196 -0.2275  0.2660  0.3740
15472TIP3    H267832   0.410   5.343  11.303 -0.0744 -0.2089  0.4852
15473TIP3   OH267833   0.017   5.904   4.522 -0.2150 -0.1218  0.1623
15473TIP3    H167834   0.056   5.869   4.602 -1.0833 -0.0314  0.6405
15473TIP3    H267835  -0.047   5.969   4.553 -0.5521 -0.0776 -0.6060
15474TIP3   OH267836   1.138   3.838  11.787 -0.6410  0.6906  0.0225
15474TIP3    H167837   1.140   3.934  11.797 -1.4564  0.7031  0.1061
15474TIP3    H267838   1.223   3.809  11.822  0.9426  1.6249 -2.7359
15475TIP3   OH267839   0.579   2.604  16.957 -0.2531 -0.9612  0.0118
15475TIP3    H167840   0.670   2.607  16.927 -0.5815  0.0926 -0.9442
15475TIP3    H267841   0.547   2.694  16.945 -1.4628 -1.3581  0.1702
15476TIP3   OH267842   5.018   3.200  11.538 -0.5350  0.5724  0.4486
15476TIP3    H167843   5.040   3.111  11.511 -0.5000  0.8763 -0.5496
15476TIP3    H267844   5.034   3.254  11.461 -1.2266  1.3448  0.8223
15477TIP3   OH267845   3.794   1.114  15.444 -0.0974 -0.3287 -0.8905
15477TIP3    H167846   3.767   1.041  15.499 -0.7898  0.6483  0.0999
15477TIP3    H267847   3.813   1.185  15.505  0.3803  0.3925 -1.8411
15478TIP3   OH267848   0.403   6.039   5.016  0.2945  0.5576  0.0043
15478TIP3    H167849   0.436   5.949   5.019  1.9061  0.9666 -2.6150
15478TIP3    H267850   0.403   6.067   5.108  1.5278 -1.4820  0.7073
15479TIP3   OH267851   1.971   4.608  10.968 -0.2001 -0.3117  0.0285
15479TIP3    H167852   1.927   4.584  10.886  0.6667  0.2926 -0.6390
15479TIP3    H267853   1.990   4.701  10.958  1.7273 -0.6546  0.0210
15480TIP3   OH267854   0.236   4.863   5.164 -0.3306 -0.3744 -0.0663
15480TIP3    H167855   0.211   4.843   5.255  0.0781 -0.9499 -0.0730
15480TIP3    H267856   0.176   4.933   5.138 -0.3725 -0.1127  0.6876
15481TIP3   OH267857   0.807   5.559  16.071 -0.0827  0.2300 -0.5643
15481TIP3    H167858   0.723   5.590  16.104 -0.8822 -0.7776 -1.5684
15481TIP3    H267859   0.797   5.563  15.975  0.1708 -2.0341 -0.7251
15482TIP3   OH267860   4.295   3.555   2.154 -0.0301  0.1032  0.3665
15482TIP3    H167861   4.285   3.647   2.178  1.8896  0.5311 -0.2987
15482TIP3    H267862   4.212   3.531   2.114 -0.4937  1.6035  0.3847
15483TIP3   OH267863   2.590   6.363  11.696 -0.0042  0.0678  0.6926
15483TIP3    H167864   2.508   6.413  11.692  0.9670  1.8925  1.7015
15483TIP3    H267865   2.650   6.412  11.640  1.2901  0.7317  2.5579
15484TIP3   OH267866   0.510   1.380   4.316  0.0347  0.1664 -0.0189
15484TIP3    H167867   0.585   1.321   4.313 -0.2772 -0.2496 -2.8194
15484TIP3    H267868   0.480   1.377   4.407  1.3721 -2.2659  0.4275
15485TIP3   OH267869   4.498   0.273  16.693 -0.3536  0.2200 -1.0098
15485TIP3    H167870   4.492   0.214  16.618 -1.6458  0.0208 -0.7696
15485TIP3    H267871   4.589   0.265  16.723 -0.3459 -1.1750 -1.3498
15486TIP3   OH267872   2.902   3.123   6.832 -0.0195  0.0639  0.0845
15486TIP3    H167873   2.868   3.205   6.797  2.1502  0.5189 -1.1698
15486TIP3    H267874   2.979   3.105   6.778  1.1499 -1.3420  2.1059
15487TIP3   OH267875   1.935   4.911  14.273 -0.2750 -0.4352 -0.5181
15487TIP3    H167876   1.998   4.851  14.313  0.5694 -0.3736 -1.7227
15487TIP3    H267877   1.971   4.998  14.291 -0.3004 -0.3774 -0.7555
15488TIP3   OH267878   4.734   4.899   4.352 -0.2905  0.0622 -0.1610
15488TIP3    H167879   4.692   4.873   4.434 -1.3979 -1.4488 -1.1391
15488TIP3    H267880   4.682   4.856   4.284 -0.0527  2.1386 -1.7485
15489TIP3   OH267881   1.048   6.468  14.878  0.1014 -0.8595  0.1063
15489TIP3    H167882   1.123   6.494  14.826  0.4798  0.0762  1.0870
15489TIP3    H267883   1.085   6.424  14.955 -0.4333 -1.9475 -0.2255
15490TIP3   OH267884   0.615   3.393  11.490 -0.0151  0.2080  0.1109
15490TIP3    H167885   0.671   3.379  11.414 -0.4149  2.0646 -0.5910
15490TIP3    H267886   0.675   3.421  11.559 -0.0576  3.4025 -0.9746
15491TIP3   OH267887   6.007   6.241   2.182  0.1102  0.0868 -0.1785
15491TIP3    H167888   6.059   6.276   2.110 -1.1579 -0.7367 -1.5623
15491TIP3    H267889   6.053   6.162   2.209 -0.6723 -0.9970 -1.8251
15492TIP3   OH267890   2.693   2.904   0.121 -0.3480  0.0369 -0.1754
15492TIP3    H167891   2.707   2.842   0.192 -0.8366 -2.1461 -1.8573
15492TIP3    H267892   2.600   2.924   0.125 -0.4508 -0.3822 -0.4115
15493TIP3   OH267893   1.861   6.590   1.352  0.0805 -0.0834  0.3025
15493TIP3    H167894   1.851   6.602   1.258 -1.4195  0.4304  0.4921
15493TIP3    H267895   1.773   6.563   1.382  1.1340 -2.9639  1.1746
15494TIP3   OH267896   0.231   1.377   3.769  0.0668 -0.5431  0.6430
15494TIP3    H167897   0.311   1.416   3.736  0.3819 -0.8982  0.9745
15494TIP3    H267898   0.186   1.449   3.815 -0.6341  0.0839 -0.9699
15495TIP3   OH267899   3.494   3.284  12.611  0.2075 -0.3078 -0.3844
15495TIP3    H167900   3.468   3.323  12.528 -0.3283 -1.1678 -0.6390
15495TIP3    H267901   3.413   3.281  12.662 -0.1374 -2.5197 -0.9756
15496TIP3   OH267902   6.491   0.148   5.135 -0.5135 -0.0426  0.3717
15496TIP3    H167903   6.398   0.164   5.122 -0.2814  1.1155 -0.0007
15496TIP3    H267904   6.497   0.104   5.220 -1.3654  0.3681  0.6520
15497TIP3   OH267905   4.914   6.006   4.997 -0.0656  0.2764 -0.0134
15497TIP3    H167906   4.872   6.070   5.055  0.3952 -0.9061  1.7306
15497TIP3    H267907   4.843   5.949   4.968 -0.3744  1.1639 -1.0297
15498TIP3   OH267908   2.916   5.842   6.272 -0.1202  0.1682 -0.6230
15498TIP3    H167909   2.877   5.929   6.267 -1.2315 -0.2529  0.4961
15498TIP3    H267910   2.856   5.791   6.325  0.9575 -1.0567 -0.5284
15499TIP3   OH267911   3.904   3.672   2.208  0.3530  0.2415 -0.6529
15499TIP3    H167912   3.886   3.761   2.240  0.6886  0.6158 -1.4540
15499TIP3    H267913   3.865   3.670   2.121  0.0871 -0.5045 -0.5165
15500TIP3   OH267914   3.295   3.788   0.550 -0.2780  0.2542 -0.2803
15500TIP3    H167915   3.200   3.800   0.553 -0.1053  2.1651 -1.2139
15500TIP3    H267916   3.310   3.734   0.472 -0.6546 -1.2969  0.6702
15501TIP3   OH267917   0.501   4.728  13.766  0.3586  1.0054  1.1417
15501TIP3    H167918   0.449   4.783  13.825 -0.3452  0.2210  1.2649
15501TIP3    H267919   0.460   4.741  13.680  1.6407  2.4774  0.7051
15502TIP3   OH267920   5.379   0.332   0.075  0.4188 -0.3118  0.0788
15502TIP3    H167921   5.396   0.295   0.161 -1.1780 -0.9881  0.1451
15502TIP3    H267922   5.460   0.318   0.026  0.9486 -0.9527  1.1134
15503TIP3   OH267923   4.101   6.397  12.286 -0.0178  0.4888 -0.2587
15503TIP3    H167924   4.166   6.370  12.351  2.9164  1.4505 -2.5695
15503TIP3    H267925   4.068   6.481  12.318  0.7626  0.5651  0.3785
15504TIP3   OH267926   1.494   5.074  15.375 -0.0941  0.2413 -0.6282
15504TIP3    H167927   1.433   5.105  15.307 -0.1783 -0.8894 -1.0930
15504TIP3    H267928   1.516   4.984  15.348  0.5603  0.0881  0.3749
15505TIP3   OH267929   3.149   5.610  10.415 -0.6668 -0.3566  0.0442
15505TIP3    H167930   3.197   5.590  10.495 -0.7306  0.3819  0.2788
15505TIP3    H267931   3.087   5.538  10.405 -1.0181 -0.1882  0.9545
15506TIP3   OH267932   4.735   5.197   0.915  0.1432 -0.2765  0.0046
15506TIP3    H167933   4.732   5.139   0.990  2.7551 -1.1225 -0.4538
15506TIP3    H267934   4.783   5.274   0.946 -1.4964  0.8002  0.0212
15507TIP3   OH267935   6.752   0.389   4.181 -0.0199  0.0191 -0.1720
15507TIP3    H167936   6.712   0.318   4.131  0.7907 -0.8918  0.4213
15507TIP3    H267937   6.763   0.353   4.269 -0.5068  1.2441  0.4130
15508TIP3   OH267938   6.308   2.014   2.148 -0.2960 -0.3026 -0.4183
15508TIP3    H167939   6.331   1.930   2.187 -0.1766 -3.2061 -5.7634
15508TIP3    H267940   6.212   2.015   2.147 -0.2997 -0.7655 -0.9500
15509TIP3   OH267941   0.164   6.371  15.207  0.1297 -0.2688  0.3159
15509TIP3    H167942   0.090   6.429  15.190  1.4336  1.7748  1.2461
15509TIP3    H267943   0.234   6.403  15.151  1.0082 -0.6967  1.1267
15510TIP3   OH267944   5.841   4.475  15.447  0.5534 -0.5427 -0.1246
15510TIP3    H167945   5.873   4.549  15.500 -0.5858  0.2289 -0.4700
15510TIP3    H267946   5.899   4.473  15.371  1.2177 -0.6570  0.3746
15511TIP3   OH267947   2.909   0.887   1.717 -0.3135 -0.6230 -0.0282
15511TIP3    H167948   2.963   0.943   1.662 -0.5490 -0.0329  0.3320
15511TIP3    H267949   2.831   0.869   1.664  0.4309 -1.8906 -0.7479
15512TIP3   OH267950   2.357   5.460   4.009 -0.2248 -0.3437 -0.3835
15512TIP3    H167951   2.291   5.392   4.023  0.4941 -1.1066 -0.6790
15512TIP3    H267952   2.441   5.417   4.026  0.1943  0.7373  0.4610
15513TIP3   OH267953   5.378   0.233   5.412  0.0358  0.1813  0.1568
15513TIP3    H167954   5.290   0.264   5.391  0.4107  0.0548 -1.7011
15513TIP3    H267955   5.436   0.284   5.356  1.1401  0.0701  1.1608
15514TIP3   OH267956   4.443   4.056   3.563  0.0371 -0.2662  0.2171
15514TIP3    H167957   4.473   4.079   3.651  0.4196  1.5297 -0.3624
15514TIP3    H267958   4.347   4.052   3.571  0.1351 -2.0036  1.1126
15515TIP3   OH267959   1.683   4.857  10.845  0.1688 -0.1090 -0.1502
15515TIP3    H167960   1.689   4.952  10.835  0.7720 -0.2400 -1.2071
15515TIP3    H267961   1.727   4.822  10.767 -0.4839 -1.2561 -0.0250
15516TIP3   OH267962   0.502   3.088  13.103  0.2309  0.1450 -0.3125
15516TIP3    H167963   0.433   3.134  13.055  0.5459  0.0235 -0.8911
15516TIP3    H267964   0.499   2.998  13.069 -0.0474 -0.1393  0.4484
15517TIP3   OH267965   1.707   0.651   4.948 -0.1057 -0.4353 -0.2804
15517TIP3    H167966   1.775   0.586   4.967  0.2365 -0.6494 -2.0496
15517TIP3    H267967   1.694   0.697   5.031 -0.0517 -2.4645  0.9159
15518TIP3   OH267968   2.817   1.178   5.662  0.1574 -0.0624  0.6683
15518TIP3    H167969   2.818   1.123   5.740  0.7691 -1.7349 -0.4686
15518TIP3    H267970   2.897   1.230   5.668 -0.7725  1.3311  2.1065
15519TIP3   OH267971   5.677   2.781  14.796  0.2686 -0.1583  0.5118
15519TIP3    H167972   5.766   2.789  14.761  0.8331  0.5336  2.0307
15519TIP3    H267973   5.631   2.858  14.763  0.8622  0.6107  1.4346
15520TIP3   OH267974   5.579   1.480  15.631  0.2587 -0.2157  0.6874
15520TIP3    H167975   5.653   1.443  15.584 -0.4253  0.8912 -1.3767
15520TIP3    H267976   5.505   1.472  15.571 -0.9180  0.2870  1.9993
15521TIP3   OH267977   5.176   2.589   4.810  0.1418  0.3873 -0.4482
15521TIP3    H167978   5.186   2.494   4.804  0.1615  0.3623 -0.0404
15521TIP3    H267979   5.211   2.612   4.896 -0.3414  0.6982 -0.3315
15522TIP3   OH267980   5.669   2.962   4.370 -0.2275 -0.2764 -0.5124
15522TIP3    H167981   5.591   2.948   4.424  0.6806  0.0979  0.9536
15522TIP3    H267982   5.636   2.997   4.288 -1.6851 -1.1747 -0.3450
15523TIP3   OH267983   5.804   0.675  16.388  0.2835 -0.0386  0.5156
15523TIP3    H167984   5.899   0.683  16.396  0.5149  0.6504 -2.0523
15523TIP3    H267985   5.789   0.580  16.391  1.1443 -0.1989  0.3114
15524TIP3   OH267986   3.266   0.906  12.692 -0.5453  0.4319  0.1730
15524TIP3    H167987   3.286   0.955  12.772 -1.9197  2.5550 -0.6948
15524TIP3    H267988   3.300   0.818  12.708  0.2824  1.1291  2.5993
15525TIP3   OH267989   3.372   6.765   4.811  0.0077 -0.7069  0.1963
15525TIP3    H167990   3.311   6.829   4.848  0.1243 -0.9644  0.8412
15525TIP3    H267991   3.400   6.713   4.886  2.1288  0.3161  0.1787
15526TIP3   OH267992   0.087   0.579   3.986  0.1381 -0.5558 -0.6566
15526TIP3    H167993   0.029   0.509   4.018  0.1843 -1.3764 -2.2871
15526TIP3    H267994   0.173   0.556   4.022  0.1803 -1.4400 -1.2846
15527TIP3   OH267995   3.587   2.198  12.893  0.1997  0.5143 -0.2549
15527TIP3    H167996   3.609   2.109  12.920  0.8333  0.2593 -1.4962
15527TIP3    H267997   3.671   2.244  12.891 -0.0689  1.0275 -0.0112
15528TIP3   OH267998   3.432   4.189   3.403 -0.2043  0.1309  0.3102
15528TIP3    H167999   3.369   4.160   3.338 -1.7743  1.5184  1.1137
15528TIP3    H268000   3.449   4.111   3.456 -0.6590 -0.4585 -0.3844
15529TIP3   OH268001   5.194   4.263   3.457  0.3366 -0.5241 -0.0557
15529TIP3    H168002   5.270   4.308   3.419  0.3347 -0.9925 -0.6245
15529TIP3    H268003   5.233   4.198   3.515  0.5190 -2.6772 -2.4172
15530TIP3   OH268004   5.503   5.545  12.879  0.0582 -0.1002 -0.1219
15530TIP3    H168005   5.538   5.616  12.825  0.2255  1.6090  2.0922
15530TIP3    H268006   5.487   5.474  12.817  1.4456  1.2705 -2.1945
15531TIP3   OH268007   2.470   0.277  12.293  0.6760  0.2065  0.4688
15531TIP3    H168008   2.551   0.226  12.289  0.3940 -0.1860 -1.2168
15531TIP3    H268009   2.414   0.229  12.354  1.8470  0.7399  2.0130
15532TIP3   OH268010   6.002   4.598  15.031 -0.0882 -0.1485  0.3210
15532TIP3    H168011   5.941   4.528  15.054  1.3383 -1.3156  0.6888
15532TIP3    H268012   5.948   4.676  15.026 -1.5389 -1.0661  1.0804
15533TIP3   OH268013   4.903   0.071  12.967 -0.2130  0.8461  0.4085
15533TIP3    H168014   4.960   0.144  12.992 -1.1338  1.3530  1.0888
15533TIP3    H268015   4.818   0.095  13.002 -0.5794 -0.4668  0.4354
15534TIP3   OH268016   1.029   4.552  12.913 -0.0343  0.1018  0.0452
15534TIP3    H168017   0.946   4.599  12.903 -0.2021 -0.1686  0.1636
15534TIP3    H268018   1.037   4.500  12.834 -0.9456 -1.3831  0.9011
15535TIP3   OH268019   6.738   3.710   0.119 -0.3550 -0.0870 -0.1093
15535TIP3    H168020   6.749   3.679   0.209 -0.5635 -0.5325 -0.2308
15535TIP3    H268021   6.801   3.658   0.069  1.1344  1.4923  0.0402
15536TIP3   OH268022   1.572   6.661  15.194 -0.7941  0.5243  0.3324
15536TIP3    H168023   1.488   6.650  15.147 -0.2425  2.9716 -1.4253
15536TIP3    H268024   1.608   6.742  15.159  1.3402  0.6646  2.6310
15537TIP3   OH268025   2.125   6.395   2.173  0.3112 -0.4121 -0.6337
15537TIP3    H168026   2.094   6.339   2.244 -0.4033  1.4428  0.5998
15537TIP3    H268027   2.048   6.407   2.117  0.1513  0.1545 -0.3069
15538TIP3   OH268028   3.924   1.553  14.176  0.0514 -0.0522 -0.3155
15538TIP3    H168029   4.011   1.513  14.186  0.0123 -0.4532 -1.5034
15538TIP3    H268030   3.864   1.489  14.213 -0.0428 -1.3017 -2.4896
15539TIP3   OH268031   1.128   2.673   0.065  0.3319 -0.6285  0.3362
15539TIP3    H168032   1.211   2.687   0.020  0.6995 -3.3898 -0.0395
15539TIP3    H268033   1.147   2.687   0.157  0.4393  1.6191  0.0271
15540TIP3   OH268034   4.281   0.350  14.115 -0.0263 -0.0220 -0.3730
15540TIP3    H168035   4.303   0.443  14.109  1.3077 -0.3135 -0.2274
15540TIP3    H268036   4.225   0.334  14.039 -0.0125  0.8261 -0.5751
15541TIP3   OH268037   1.996   1.167  15.961  0.3094 -0.6400  0.0009
15541TIP3    H168038   1.975   1.074  15.962  1.3525 -0.9250 -1.4388
15541TIP3    H268039   1.912   1.212  15.959 -0.1876 -1.5952 -0.9553
15542TIP3   OH268040   2.288   0.875   2.125 -0.0758  0.1976 -0.3648
15542TIP3    H168041   2.366   0.871   2.180 -0.7399 -1.2190  0.5200
15542TIP3    H268042   2.320   0.865   2.036  0.6719 -1.7549  0.0773
15543TIP3   OH268043   6.359   3.853   1.303 -0.2548 -0.0002 -0.8109
15543TIP3    H168044   6.393   3.771   1.339  1.0679  0.1253 -1.6834
15543TIP3    H268045   6.313   3.826   1.223 -0.1688  0.0651 -0.8822
15544TIP3   OH268046   0.078   3.242   5.008 -0.1952 -0.2564  0.2492
15544TIP3    H168047   0.081   3.262   4.914 -1.6971 -0.6772  0.0923
15544TIP3    H268048   0.084   3.147   5.013  2.1273 -0.1347  0.7370
15545TIP3   OH268049   0.001   4.091   1.400  0.1831  0.1673 -0.5659
15545TIP3    H168050  -0.077   4.044   1.370  0.0110 -0.6819  1.1141
15545TIP3    H268051   0.021   4.053   1.485  0.7949  2.2898  0.3024
15546TIP3   OH268052   1.438   4.085   0.982  0.2703  0.4971  0.2366
15546TIP3    H168053   1.438   4.051   1.071  1.8409  1.3109  0.5850
15546TIP3    H268054   1.346   4.103   0.963 -0.0539  0.7175  1.8564
15547TIP3   OH268055   1.777   5.457  14.911 -0.3731  0.6798 -0.2358
15547TIP3    H168056   1.709   5.413  14.962  0.3376  1.3443  1.3358
15547TIP3    H268057   1.852   5.397  14.914  0.1028  1.3086  0.6346
15548TIP3   OH268058   0.531   4.659   1.681 -1.0709 -0.2173  0.2896
15548TIP3    H168059   0.445   4.700   1.693 -2.4058 -3.0302  1.1433
15548TIP3    H268060   0.514   4.565   1.686  1.6000 -1.0480 -2.8377
15549TIP3   OH268061   6.179   6.259   4.034  0.8105  0.4526 -0.5063
15549TIP3    H168062   6.095   6.304   4.023  0.1422 -0.5732  0.3057
15549TIP3    H268063   6.208   6.284   4.122  0.7809 -0.1387 -0.3283
15550TIP3   OH268064   1.408   0.885   3.715 -0.8372 -0.2806  0.3461
15550TIP3    H168065   1.392   0.938   3.637 -1.3545 -0.5781  0.2504
15550TIP3    H268066   1.495   0.912   3.744 -1.1411  0.7178  0.3688
15551TIP3   OH268067   3.508   2.572  12.278 -0.8331 -0.0281 -0.0845
15551TIP3    H168068   3.581   2.536  12.227 -1.1355  0.1177 -0.6220
15551TIP3    H268069   3.533   2.663  12.294 -1.7637  0.5778 -1.9226
15552TIP3   OH268070   5.729   5.436  12.079  0.1766 -0.3189  0.4873
15552TIP3    H168071   5.651   5.491  12.087  0.2661 -0.3323  1.7019
15552TIP3    H268072   5.800   5.497  12.061 -0.2745 -0.4266 -1.9899
15553TIP3   OH268073   1.141   1.559  10.748  0.3206 -0.0097 -0.1638
15553TIP3    H168074   1.206   1.582  10.815 -0.7871  1.3489  0.4974
15553TIP3    H268075   1.061   1.543  10.798 -0.0037 -1.1177 -1.0128
15554TIP3   OH268076   5.427   0.695   6.738 -0.7087 -0.5410 -0.1653
15554TIP3    H168077   5.517   0.707   6.766 -1.3854 -0.2437  2.0617
15554TIP3    H268078   5.406   0.774   6.688 -0.2113  0.1667  0.7111
15555TIP3   OH268079   0.434   2.965   5.006 -0.5702  0.0123 -0.0700
15555TIP3    H168080   0.449   2.871   4.996  0.4824  0.3105 -1.8655
15555TIP3    H268081   0.495   2.993   5.074 -0.6928 -0.5472  0.2748
15556TIP3   OH268082   3.587   2.228  12.211  0.2849  1.1112 -0.4394
15556TIP3    H168083   3.617   2.295  12.272  1.1847  1.5457 -1.3432
15556TIP3    H268084   3.540   2.165  12.266  0.3845  1.9031  0.5750
15557TIP3   OH268085   3.082   5.167   3.529 -0.0181  0.6414  0.1357
15557TIP3    H168086   3.036   5.147   3.611  0.3347 -0.9626 -0.0206
15557TIP3    H268087   3.171   5.133   3.542 -0.1597 -0.3168 -1.1417
15558TIP3   OH268088   0.289   0.115  16.419  0.4936 -0.2498 -0.1080
15558TIP3    H168089   0.319   0.050  16.356 -0.8203  1.1960 -2.3447
15558TIP3    H268090   0.194   0.102  16.424 -0.1558  2.7384 -2.2685
15559TIP3   OH268091   4.491   3.504  16.919 -0.6137  0.0816 -0.3112
15559TIP3    H168092   4.450   3.552  16.847 -2.5237 -2.4621 -1.0410
15559TIP3    H268093   4.569   3.464  16.880 -0.9609 -0.2771 -0.6417
15560TIP3   OH268094   3.373   1.323  14.480  0.0205 -0.4184  0.0241
15560TIP3    H168095   3.346   1.280  14.399  0.6251 -2.8136  1.0194
15560TIP3    H268096   3.466   1.343  14.466 -0.6189  2.1984 -1.0492
15561TIP3   OH268097   1.222   0.953  17.059  0.4221 -0.4348 -0.6226
15561TIP3    H168098   1.246   0.978  17.149 -0.2907  0.3805 -0.6537
15561TIP3    H268099   1.306   0.941  17.015  0.7770 -0.3021  0.0017
15562TIP3   OH268100   0.286   5.883   3.643  0.6540 -0.9820  0.0023
15562TIP3    H168101   0.341   5.864   3.719 -0.2001 -0.7053  0.7104
15562TIP3    H268102   0.245   5.799   3.621  0.8373 -1.0437 -0.1091
15563TIP3   OH268103   3.220   2.384   5.369  0.4639 -0.2883  0.0820
15563TIP3    H168104   3.210   2.402   5.462  1.6025  0.2548  0.1065
15563TIP3    H268105   3.211   2.289   5.362  0.5379 -0.3491  0.7652
15564TIP3   OH268106   3.968   2.428   5.381  0.7665 -0.1616  0.3760
15564TIP3    H168107   4.022   2.503   5.356 -0.3487  0.2461 -0.9332
15564TIP3    H268108   4.027   2.353   5.377  1.7689  0.5641  1.1856
15565TIP3   OH268109   6.187   4.942   4.915  0.3454  0.1413  0.0525
15565TIP3    H168110   6.165   4.895   4.835  0.6017 -0.1452  0.1512
15565TIP3    H268111   6.173   5.034   4.893  0.4457  0.0664 -0.3315
15566TIP3   OH268112   1.278   3.369  16.242 -0.1628 -0.0285  0.3648
15566TIP3    H168113   1.237   3.357  16.328 -2.5163 -0.8663 -0.8090
15566TIP3    H268114   1.325   3.288  16.226  0.8238  0.3768  1.0999
15567TIP3   OH268115   6.750   6.761   5.110  0.1705  0.2522 -0.5144
15567TIP3    H168116   6.747   6.687   5.050 -0.1688 -0.5788  0.5105
15567TIP3    H268117   6.677   6.747   5.170  2.1994 -0.5343  1.9134
15568TIP3   OH268118   0.660   2.728   1.198  0.1105 -0.4000  0.1948
15568TIP3    H168119   0.674   2.786   1.123 -1.3205  0.2043  0.3646
15568TIP3    H268120   0.583   2.765   1.243 -0.4356 -2.0514  0.6744
15569TIP3   OH268121   2.849   2.223   4.387  0.0586  0.4564  0.4273
15569TIP3    H168122   2.910   2.149   4.386  0.6088  0.8848 -1.4098
15569TIP3    H268123   2.765   2.183   4.409 -0.0240 -1.1196 -2.2346
15570TIP3   OH268124   4.153   5.806   0.034 -0.3860  0.1236 -0.0254
15570TIP3    H168125   4.123   5.840  -0.050  0.6175 -1.2853 -0.9952
15570TIP3    H268126   4.237   5.850   0.049 -0.1180 -0.3081 -0.2321
15571TIP3   OH268127   5.115   3.115   0.128  0.8713 -0.2553 -0.3644
15571TIP3    H168128   5.126   3.083   0.217 -1.4677  2.6274  1.1439
15571TIP3    H268129   5.156   3.202   0.129 -2.7184  1.6451 -0.6633
15572TIP3   OH268130   5.368   4.586   5.135 -0.1497 -0.1575 -0.4597
15572TIP3    H168131   5.463   4.575   5.135 -0.2528 -1.1204 -0.2535
15572TIP3    H268132   5.353   4.664   5.189  0.4149 -1.1841  1.2624
15573TIP3   OH268133   3.868   5.938  15.325 -0.2307  0.0520 -0.4931
15573TIP3    H168134   3.886   6.031  15.311 -0.0634 -0.0590 -1.0455
15573TIP3    H268135   3.899   5.920  15.413  0.2568  0.3893 -0.5937
15574TIP3   OH268136   5.271   0.185  11.182 -0.2640  0.0096 -0.3227
15574TIP3    H168137   5.277   0.264  11.128  0.7760  1.0375  1.2133
15574TIP3    H268138   5.264   0.114  11.118 -2.6285  1.3790 -1.7521
15575TIP3   OH268139   2.022   0.604  13.259 -0.4620 -0.0004 -0.0631
15575TIP3    H168140   1.944   0.579  13.309 -0.5577  0.3732 -0.0227
15575TIP3    H268141   2.089   0.541  13.285 -1.1220 -1.2047 -1.1290
15576TIP3   OH268142   1.823   6.568   4.421 -0.3874  0.7139 -0.3985
15576TIP3    H168143   1.784   6.489   4.457 -3.3267  1.8815 -0.7149
15576TIP3    H268144   1.782   6.640   4.469 -0.0672  2.1268 -2.1025
15577TIP3   OH268145   6.321   0.023  13.099  0.1528  0.6607  0.0100
15577TIP3    H168146   6.331   0.056  13.188 -0.3561  0.1201  0.2741
15577TIP3    H268147   6.300   0.101  13.047  2.5787  1.3612 -0.0515
15578TIP3   OH268148   4.504   6.102   4.956 -0.1804  0.0050 -0.6062
15578TIP3    H168149   4.551   6.083   4.875 -3.3712  0.2574 -2.6698
15578TIP3    H268150   4.530   6.191   4.979  0.5378  0.0407 -1.5064
15579TIP3   OH268151   2.385   4.374  11.330  0.1191  0.1106 -0.1498
15579TIP3    H168152   2.396   4.468  11.322  3.2380 -0.1391  0.1701
15579TIP3    H268153   2.457   4.336  11.279 -1.6991 -2.1786 -1.2421
15580TIP3   OH268154   1.215   5.298  14.427  0.1363 -0.5150  0.7202
15580TIP3    H168155   1.271   5.294  14.504  0.9456 -1.0809  0.1247
15580TIP3    H268156   1.242   5.378  14.382  1.1720 -1.2812 -0.0665
15581TIP3   OH268157   2.693   0.272   6.425  0.1895  0.5665 -0.6364
15581TIP3    H168158   2.763   0.206   6.421  1.0765  1.4473 -0.0872
15581TIP3    H268159   2.612   0.221   6.422  0.8009 -0.4139 -2.9550
15582TIP3   OH268160   6.068   6.317   3.369  0.0325  0.1562  0.0318
15582TIP3    H168161   6.028   6.404   3.369  3.0918  1.9138 -3.9464
15582TIP3    H268162   6.038   6.276   3.287  2.1765 -0.5090 -0.4936
15583TIP3   OH268163   6.181   5.972   5.680  0.1799  0.2248  0.1776
15583TIP3    H168164   6.265   6.017   5.680  0.1159  0.3656  1.0754
15583TIP3    H268165   6.144   5.990   5.767 -0.0237 -1.2327  0.4159
15584TIP3   OH268166   6.778   5.886   6.335 -0.1240  0.3657  0.2330
15584TIP3    H168167   6.796   5.858   6.425  0.9787  1.4356  0.3723
15584TIP3    H268168   6.863   5.914   6.301 -0.2762 -1.2123 -1.5998
15585TIP3   OH268169   2.910   1.467   3.714  0.0948  0.3959  0.3640
15585TIP3    H168170   2.966   1.394   3.741 -0.9937 -0.7437 -0.3255
15585TIP3    H268171   2.853   1.429   3.646 -0.2182  2.0035 -0.3121
15586TIP3   OH268172   6.521   1.333   2.855  0.1228  0.3248  0.0662
15586TIP3    H168173   6.486   1.396   2.918  2.0325  0.0817  1.4676
15586TIP3    H268174   6.499   1.370   2.769 -2.1399  0.9055  0.8125
15587TIP3   OH268175   0.466   1.312   0.329 -0.0886 -0.1622 -0.2515
15587TIP3    H168176   0.446   1.405   0.319 -0.0314 -0.0193  0.8261
15587TIP3    H268177   0.394   1.267   0.284 -1.0867  0.3902  0.7149
15588TIP3   OH268178   5.354   4.807  16.833 -0.5691 -0.0372  0.7520
15588TIP3    H168179   5.370   4.809  16.927  1.2790  1.9616  0.4743
15588TIP3    H268180   5.440   4.792  16.794 -1.4925 -2.2036 -0.6353
15589TIP3   OH268181   5.721   5.756   0.106  0.1852  0.2558 -0.0612
15589TIP3    H168182   5.660   5.688   0.077  0.4737  0.0699 -0.2350
15589TIP3    H268183   5.746   5.800   0.025  0.7767 -0.0804 -0.0640
15590TIP3   OH268184   1.036   2.410   0.031  0.7107 -0.2175 -0.7648
15590TIP3    H168185   0.951   2.413   0.074  1.2752 -0.3556  0.4264
15590TIP3    H268186   1.074   2.496   0.047  0.4924  0.1269 -1.9873
15591TIP3   OH268187   1.317   4.324   4.549 -0.9047 -0.0304 -0.0138
15591TIP3    H168188   1.323   4.329   4.644 -1.8829  1.2980  0.0071
15591TIP3    H268189   1.248   4.386   4.526 -0.3256  0.0693 -1.6277
15592TIP3   OH268190   6.350   1.267   1.125  0.1227  0.3941  0.0943
15592TIP3    H168191   6.389   1.354   1.123  0.5850  0.2567  1.6364
15592TIP3    H268192   6.256   1.282   1.120  0.2695  0.8014 -2.3867
15593TIP3   OH268193   5.454   1.084   1.265 -0.2299 -0.0996 -0.7342
15593TIP3    H168194   5.381   1.095   1.204 -2.2449 -1.2139  1.2940
15593TIP3    H268195   5.523   1.043   1.214 -2.0750 -1.6674 -2.1211
15594TIP3   OH268196   0.142   0.968   5.459  0.5604  0.0940  0.2386
15594TIP3    H168197   0.214   1.031   5.463 -0.8534  1.7421  1.1432
15594TIP3    H268198   0.177   0.889   5.500  2.2652  0.3783 -0.5880
15595TIP3   OH268199   6.487   6.298  16.444 -0.1742  0.2685 -0.3456
15595TIP3    H168200   6.563   6.272  16.495 -0.5482 -0.1767 -0.0015
15595TIP3    H268201   6.523   6.339  16.365  0.4490 -1.5946 -1.0717
15596TIP3   OH268202   3.000   0.645   6.442  0.2313 -0.0506  0.0125
15596TIP3    H168203   3.073   0.693   6.481  0.0579 -0.4909  0.9095
15596TIP3    H268204   2.927   0.706   6.445  0.3705  0.1268 -0.1789
15597TIP3   OH268205   4.256   5.839   0.548  0.5405  0.3477 -0.5247
15597TIP3    H168206   4.199   5.785   0.603  0.5099  2.1458  1.3562
15597TIP3    H268207   4.344   5.805   0.564  0.4712  0.5191  0.2471
15598TIP3   OH268208   0.882   1.343   1.680  0.4392  0.4505  0.3862
15598TIP3    H168209   0.826   1.420   1.693  0.2685  0.2839  0.6467
15598TIP3    H268210   0.824   1.269   1.696  0.5602  0.2628 -0.0351
15599TIP3   OH268211   2.517   1.652   6.031 -0.0516 -0.6036  0.1854
15599TIP3    H168212   2.582   1.717   6.006  0.6508 -1.5118 -0.4185
15599TIP3    H268213   2.470   1.633   5.949  0.8798 -2.0734 -0.0420
15600TIP3   OH268214   2.336   4.038  13.283 -0.8164 -0.5351 -0.0751
15600TIP3    H168215   2.399   3.969  13.304  1.1474  1.0410 -0.3448
15600TIP3    H268216   2.251   3.996  13.284 -0.0663 -2.2288  3.0496
15601TIP3   OH268217   5.365   1.496   2.560 -0.4709  0.0834 -0.6986
15601TIP3    H168218   5.460   1.487   2.557 -0.1258  1.7871  1.8558
15601TIP3    H268219   5.348   1.541   2.643 -3.5652 -0.6956 -0.7901
15602TIP3   OH268220   5.707   0.049  15.091 -0.9974 -0.0659 -0.0144
15602TIP3    H168221   5.656   0.097  15.026 -0.3438 -1.8451 -1.9534
15602TIP3    H268222   5.786   0.022  15.045  0.9480  1.0825  2.3961
15603TIP3   OH268223   1.041   6.226  12.979 -0.1781 -0.0296  0.2731
15603TIP3    H168224   1.106   6.296  12.979  0.8296 -0.8966 -1.0979
15603TIP3    H268225   1.064   6.172  13.055 -0.2809  0.5326  0.7048
15604TIP3   OH268226   6.549   0.067   2.606 -0.4468 -0.7288 -0.3314
15604TIP3    H168227   6.546   0.160   2.631  0.4606 -0.9199  0.5294
15604TIP3    H268228   6.470   0.055   2.553 -1.1561  0.2827  0.4415
15605TIP3   OH268229   5.356   3.776  11.661  0.1881  0.0767 -0.2441
15605TIP3    H168230   5.292   3.709  11.639 -1.4059  0.7055  2.1353
15605TIP3    H268231   5.330   3.853  11.611  0.0219 -0.1172 -0.4537
15606TIP3   OH268232   2.864   5.197   1.502 -1.2216 -0.7859 -0.5518
15606TIP3    H168233   2.805   5.123   1.486 -2.5403  0.3639 -1.2782
15606TIP3    H268234   2.951   5.158   1.503 -1.8813 -2.3700 -0.7077
15607TIP3   OH268235   0.689   2.851  11.088  0.0047  0.1873 -0.0220
15607TIP3    H168236   0.717   2.842  11.179  1.8219  1.1524 -0.4243
15607TIP3    H268237   0.597   2.825  11.088  0.0325 -0.0720  2.0323
15608TIP3   OH268238   2.089   6.488   5.776 -0.1137  0.1809  0.2342
15608TIP3    H168239   2.079   6.396   5.798 -2.1301 -0.0068 -1.2159
15608TIP3    H268240   2.014   6.531   5.818 -1.1914  0.5693 -1.9606
15609TIP3   OH268241   1.465   5.928   1.445  0.3214 -0.1354  0.3635
15609TIP3    H168242   1.549   5.932   1.399  0.1869 -0.7777  0.0608
15609TIP3    H268243   1.411   5.869   1.393 -0.5620  0.8028  0.1762
15610TIP3   OH268244   0.211   1.480  13.015 -0.2372 -0.5888  0.1607
15610TIP3    H168245   0.224   1.465  13.108 -0.9732 -2.9003 -0.0516
15610TIP3    H268246   0.170   1.567  13.010  1.8206  0.5423  1.7664
15611TIP3   OH268247   3.384   3.100   3.742  0.8901 -0.0115 -0.1423
15611TIP3    H168248   3.386   3.110   3.647 -2.3930 -2.4943 -0.6670
15611TIP3    H268249   3.332   3.175   3.772  0.8562  0.0971 -0.4638
15612TIP3   OH268250   0.886   5.243   1.196 -0.6919  0.0575 -0.1788
15612TIP3    H168251   0.979   5.220   1.192 -0.5231  0.7178 -0.1866
15612TIP3    H268252   0.847   5.200   1.119 -0.1048  1.0091 -1.0276
15613TIP3   OH268253   0.241   1.866   4.699 -0.3789  0.1656  0.0997
15613TIP3    H168254   0.267   1.776   4.717 -1.4618 -0.1709  0.0515
15613TIP3    H268255   0.209   1.864   4.608 -0.4799  0.5823  0.1221
15614TIP3   OH268256   6.443   0.371  13.113  0.0961  0.6862  0.0456
15614TIP3    H168257   6.433   0.313  13.188  0.9154  0.9545  0.3666
15614TIP3    H268258   6.396   0.326  13.042 -0.3223  0.2312  0.5987
15615TIP3   OH268259   2.081   5.470   5.810  0.1034 -0.4494 -0.0047
15615TIP3    H168260   2.089   5.445   5.902  0.4329 -1.4828 -0.3016
15615TIP3    H268261   2.025   5.402   5.771  1.2096 -0.8901 -0.8882
15616TIP3   OH268262   4.382   2.925  12.314  0.2771 -0.4491  0.2505
15616TIP3    H168263   4.405   2.980  12.239  0.5913 -0.4709  0.3301
15616TIP3    H268264   4.376   2.837  12.278 -1.2203 -0.2436 -0.0833
15617TIP3   OH268265   4.820   3.043   5.340  0.1591  0.3636 -0.2667
15617TIP3    H168266   4.748   2.990   5.307  0.3783 -0.5426  0.6381
15617TIP3    H268267   4.846   3.098   5.266 -1.2863  0.5373 -0.6756
15618TIP3   OH268268   4.530   1.440   5.225  0.2349  0.1539  0.0105
15618TIP3    H168269   4.473   1.367   5.200 -0.4784  0.9103 -0.6750
15618TIP3    H268270   4.550   1.425   5.317 -1.6017  0.1891  0.4554
15619TIP3   OH268271   3.138   1.254  11.187  0.4623  0.5546  0.2174
15619TIP3    H168272   3.100   1.337  11.159 -1.1480 -0.4823 -0.9203
15619TIP3    H268273   3.232   1.265  11.176  0.1793  1.7215 -1.4389
15620TIP3   OH268274   6.568   5.396   6.190  0.7377 -0.0483  0.2752
15620TIP3    H168275   6.563   5.489   6.210  4.0481  0.6633 -1.5022
15620TIP3    H268276   6.602   5.356   6.271 -1.3177  0.0651  1.2687
15621TIP3   OH268277   4.594   0.002  12.905 -0.1832 -0.2200  0.4043
15621TIP3    H168278   4.518   0.021  12.960  0.2199 -1.0974  1.2865
15621TIP3    H268279   4.587  -0.091  12.885 -0.0478 -0.0222 -0.6234
15622TIP3   OH268280   4.065   2.562  13.326  0.5872  0.1546  0.6436
15622TIP3    H168281   4.091   2.596  13.241 -2.8952  0.2009 -0.5592
15622TIP3    H268282   3.989   2.615  13.351 -0.5460 -2.0155  2.1330
15623TIP3   OH268283   4.974   1.325  12.336  0.4553 -0.0795  0.2676
15623TIP3    H168284   4.914   1.359  12.402  1.3550  2.7046 -0.2141
15623TIP3    H268285   5.061   1.353  12.366  1.0283 -0.0154 -1.3486
15624TIP3   OH268286   4.316   3.510  15.012  0.0966  0.6055 -0.3851
15624TIP3    H168287   4.297   3.567  15.086  0.8662  2.1693 -1.3285
15624TIP3    H268288   4.241   3.451  15.007 -1.0402  1.9405  0.2693
15625TIP3   OH268289   3.998   5.871   3.193 -0.7251 -0.2294 -0.2070
15625TIP3    H168290   4.017   5.964   3.180 -1.2068  0.0416  0.9812
15625TIP3    H268291   4.062   5.826   3.137 -1.3575  0.8172 -1.8707
15626TIP3   OH268292   5.916   1.621  13.576 -0.2292  0.2588 -0.6288
15626TIP3    H168293   5.853   1.610  13.504 -1.8837 -0.3780  0.8381
15626TIP3    H268294   5.862   1.644  13.652  1.2370 -0.7887  0.8110
15627TIP3   OH268295   4.459   1.210  13.786 -0.2996  0.4872 -0.2646
15627TIP3    H168296   4.397   1.137  13.789 -0.3824  0.5877  2.0822
15627TIP3    H268297   4.452   1.243  13.696 -0.8769 -1.8269 -1.1534
15628TIP3   OH268298   2.148   2.237   4.561 -0.0782  0.3594 -0.4053
15628TIP3    H168299   2.147   2.315   4.617 -0.5378  0.1259 -0.0869
15628TIP3    H268300   2.215   2.180   4.601 -1.1144 -0.2475  0.5294
15629TIP3   OH268301   4.371   4.387   2.623 -0.3488  0.0045  1.0109
15629TIP3    H168302   4.459   4.352   2.635 -0.2641 -0.2701 -0.2573
15629TIP3    H268303   4.365   4.458   2.686  0.4651 -0.5408  1.7193
15630TIP3   OH268304   2.816   2.691   1.167 -0.7563 -0.4288  0.5104
15630TIP3    H168305   2.753   2.662   1.232 -1.5584 -0.1719 -0.1327
15630TIP3    H268306   2.817   2.787   1.176  1.3130 -0.5315  2.1131
15631TIP3   OH268307   1.361   3.579   3.123  0.2587 -0.2858  0.4899
15631TIP3    H168308   1.451   3.576   3.153  0.0902  1.0039  1.2079
15631TIP3    H268309   1.325   3.493   3.145  1.2924 -0.7966  0.2158
15632TIP3   OH268310   3.707   5.599   1.636  0.2725  0.2336 -0.3474
15632TIP3    H168311   3.765   5.670   1.610  1.2667 -0.7743 -0.9774
15632TIP3    H268312   3.766   5.528   1.662 -0.6959 -0.1265  0.9623
15633TIP3   OH268313   2.268   0.098  11.959 -0.4350 -0.2264 -0.3522
15633TIP3    H168314   2.195   0.045  11.927 -1.0295 -0.5383  1.3792
15633TIP3    H268315   2.265   0.178  11.907 -2.7774  0.2781  0.4299
15634TIP3   OH268316   3.900   3.965   3.531 -0.0466  0.3518  0.2251
15634TIP3    H168317   3.919   4.047   3.486 -0.9454  0.3056 -0.2504
15634TIP3    H268318   3.949   3.971   3.614  2.1544  0.1548 -0.9861
15635TIP3   OH268319   2.669   3.615  12.537  0.5061 -0.4214  0.3364
15635TIP3    H168320   2.626   3.567  12.607  1.1991 -2.1295 -0.3493
15635TIP3    H268321   2.702   3.694  12.579  2.2946 -2.1243  2.3792
15636TIP3   OH268322   1.788   2.688  15.725 -0.1522  0.3517  0.2271
15636TIP3    H168323   1.828   2.775  15.715  0.6382  0.4297  3.1227
15636TIP3    H268324   1.693   2.705  15.721 -0.0397  1.5405  1.6741
15637TIP3   OH268325   3.621   3.964   2.859 -0.0058  0.1264  0.5830
15637TIP3    H168326   3.552   3.971   2.794  0.5221 -1.2648 -0.1558
15637TIP3    H268327   3.691   3.917   2.815 -0.2035 -2.2088  2.5761
15638TIP3   OH268328   4.340   3.138   1.531 -0.0214  0.1298  0.5567
15638TIP3    H168329   4.265   3.189   1.562  0.7304  1.6031  0.0739
15638TIP3    H268330   4.301   3.063   1.486 -1.1841  0.4336  1.0264
15639TIP3   OH268331   4.067   2.164  17.150 -0.0781  0.2409  0.0797
15639TIP3    H168332   4.033   2.213  17.225 -1.1290  0.2306 -0.3741
15639TIP3    H268333   3.990   2.147  17.095  0.1779 -2.2215  0.3659
15640TIP3   OH268334   1.671   6.215  14.934 -0.6814 -0.0647  0.0748
15640TIP3    H168335   1.700   6.256  14.853 -2.3910 -1.3010 -1.2389
15640TIP3    H268336   1.700   6.124  14.927  2.2641  0.5283  2.5361
15641TIP3   OH268337   5.680   4.974  15.526  0.2554  0.1974  0.6024
15641TIP3    H168338   5.708   4.883  15.524 -1.5768 -0.4071 -0.0767
15641TIP3    H268339   5.704   5.005  15.613  0.8245 -0.9643  0.8755
15642TIP3   OH268340   2.592   3.398  15.124  0.2256  0.2469  0.3336
15642TIP3    H168341   2.610   3.472  15.182 -0.1164  0.6353 -0.0474
15642TIP3    H268342   2.535   3.341  15.175  2.0194 -0.7299  1.3500
15643TIP3   OH268343   0.798   1.821  16.477 -0.0565  0.2821  0.2660
15643TIP3    H168344   0.730   1.769  16.434  0.9509  0.4971 -1.6959
15643TIP3    H268345   0.816   1.773  16.559  0.0577 -1.8704 -0.9408
15644TIP3   OH268346   5.014   6.737   2.279 -0.0697  0.0910  0.4922
15644TIP3    H168347   4.938   6.757   2.333  0.2586  2.4467  0.1686
15644TIP3    H268348   4.979   6.722   2.191 -0.2835 -0.3437  0.6489
15645TIP3   OH268349   1.838   2.542   2.725  0.1588  0.6937 -0.6889
15645TIP3    H168350   1.762   2.486   2.739  1.4099 -0.6148  1.3090
15645TIP3    H268351   1.896   2.491   2.668  1.0877  0.0867  0.7421
15646TIP3   OH268352   2.683   3.070  16.380 -0.7498 -0.0256  0.3161
15646TIP3    H168353   2.638   3.069  16.464 -0.8092 -0.1327  0.2848
15646TIP3    H268354   2.697   2.977  16.360  0.1151  0.0303  0.6519
15647TIP3   OH268355   1.984   6.579  12.215  0.3629  0.7625 -0.0035
15647TIP3    H168356   1.904   6.526  12.214  1.2662 -0.6530 -0.8978
15647TIP3    H268357   2.023   6.561  12.301  1.2816 -1.0830 -0.7439
15648TIP3   OH268358   4.053   4.269  10.841 -0.1630 -0.0510  0.5341
15648TIP3    H168359   3.964   4.295  10.820  0.5739  1.8006 -0.4755
15648TIP3    H268360   4.063   4.182  10.802 -1.2808  0.0557 -0.0121
15649TIP3   OH268361   4.069   4.776   3.014 -0.1354 -0.1260  0.5863
15649TIP3    H168362   4.070   4.721   3.092 -4.5070 -1.4454 -0.0088
15649TIP3    H268363   4.154   4.761   2.973  0.3922 -3.3955  2.5248
15650TIP3   OH268364   3.504   5.616  17.202 -0.0587 -0.0648 -0.6771
15650TIP3    H168365   3.489   5.601  17.108 -1.3806 -0.3501 -0.4414
15650TIP3    H268366   3.531   5.707  17.208  1.8175 -0.5146 -1.4996
15651TIP3   OH268367   5.921   2.797  11.090 -0.2335  0.5597  0.1073
15651TIP3    H168368   5.886   2.867  11.034 -0.6164 -0.4016 -0.8856
15651TIP3    H268369   6.007   2.778  11.053 -1.0128 -0.9668 -0.9912
15652TIP3   OH268370   0.505   5.751  16.789 -0.3937  0.1253  0.7212
15652TIP3    H168371   0.426   5.754  16.843 -0.5968  0.5435  0.4100
15652TIP3    H268372   0.549   5.670  16.815 -0.4569  0.3459  1.5433
15653TIP3   OH268373   3.879   4.602   0.761  0.2397 -0.1681 -0.5407
15653TIP3    H168374   3.921   4.532   0.811 -0.3573  0.8334  1.4777
15653TIP3    H268375   3.903   4.682   0.807 -2.3413  0.6076 -0.3960
15654TIP3   OH268376   1.798   6.419  13.504  0.0318  0.8088 -0.0465
15654TIP3    H168377   1.715   6.450  13.468  0.8237  0.3569 -2.4490
15654TIP3    H268378   1.774   6.343  13.557 -1.0098 -0.0519 -1.6710
15655TIP3   OH268379   4.109   3.580  13.238 -0.3709 -0.0546 -0.3765
15655TIP3    H168380   4.190   3.539  13.270 -0.5956 -0.4454 -0.3013
15655TIP3    H268381   4.126   3.674  13.243 -0.2375 -0.1096  0.4779
15656TIP3   OH268382   1.057   5.702   5.597 -1.1534 -0.0349  0.0787
15656TIP3    H168383   1.112   5.639   5.643  1.1404  2.3946  0.9684
15656TIP3    H268384   1.107   5.724   5.518 -1.6289  1.0093  0.0450
15657TIP3   OH268385   0.729   5.530  11.629 -0.2066 -0.0138 -0.1992
15657TIP3    H168386   0.765   5.592  11.693  1.3925 -1.1149  0.0488
15657TIP3    H268387   0.678   5.583  11.569 -0.8197  1.2055  1.3466
15658TIP3   OH268388   1.403   5.549  15.012  0.1147  0.5800  0.2787
15658TIP3    H168389   1.399   5.591  14.926  0.1919 -0.0771 -0.0584
15658TIP3    H268390   1.355   5.608  15.070  0.1126  1.0622 -0.2041
15659TIP3   OH268391   6.744   6.766   4.378  0.1831  0.4147 -0.9860
15659TIP3    H168392   6.700   6.828   4.436  0.3714  1.7602 -2.2219
15659TIP3    H268393   6.682   6.693   4.370 -1.5069  1.8712 -2.0095
15660TIP3   OH268394   4.492   5.284  16.387  0.6101 -0.2022  0.0727
15660TIP3    H168395   4.445   5.204  16.413  2.7422 -2.0533 -1.3175
15660TIP3    H268396   4.507   5.273  16.293  0.0355  2.4114 -0.3775
15661TIP3   OH268397   2.167   6.782   1.230  0.2346 -0.2294 -0.2827
15661TIP3    H168398   2.249   6.790   1.180  0.2446 -0.5277 -0.3167
15661TIP3    H268399   2.120   6.864   1.212  0.5757 -0.0053 -0.1705
15662TIP3   OH268400   3.805   1.027  14.645  0.4182  0.1493  0.5468
15662TIP3    H168401   3.826   0.943  14.687 -1.0066 -0.2065  0.6183
15662TIP3    H268402   3.796   1.088  14.718  0.5142  0.1377  0.5684
15663TIP3   OH268403   0.354   2.435   2.123 -0.1365 -0.3204  0.5583
15663TIP3    H168404   0.434   2.482   2.099  0.2241 -0.6590  1.0924
15663TIP3    H268405   0.351   2.360   2.062 -1.1175  0.7804 -0.8173
15664TIP3   OH268406   4.498   0.886   2.958  0.1989  0.3543 -0.3476
15664TIP3    H168407   4.407   0.895   2.931  0.3098  0.6003 -0.6467
15664TIP3    H268408   4.549   0.914   2.882  0.5198  1.1513  0.1505
15665TIP3   OH268409   1.611   3.969   2.822  0.1838 -0.5836 -0.4015
15665TIP3    H168410   1.516   3.958   2.823  0.2628 -1.2955  0.4666
15665TIP3    H268411   1.634   3.984   2.914  0.8776 -0.0161 -0.6568
15666TIP3   OH268412   4.211   4.469  11.764  0.2714  0.0519 -0.1373
15666TIP3    H168413   4.164   4.488  11.844  0.8210 -0.3571  0.2896
15666TIP3    H268414   4.276   4.403  11.788  1.3790  0.9324 -0.5854
15667TIP3   OH268415   1.089   6.679  13.281 -0.1296 -0.5415  0.0067
15667TIP3    H168416   1.130   6.657  13.197  2.0704 -0.5485  1.0273
15667TIP3    H268417   1.158   6.721  13.332 -1.7115  0.4459  1.4570
15668TIP3   OH268418   4.861   2.768  13.633  0.4428 -0.2256 -0.1685
15668TIP3    H168419   4.822   2.766  13.720  0.5905  0.9662 -0.0565
15668TIP3    H268420   4.795   2.728  13.576  0.8910 -2.2420  0.6676
15669TIP3   OH268421   5.303   5.770  11.641 -0.2785 -0.0645 -0.9222
15669TIP3    H168422   5.319   5.689  11.689  0.2450  1.0511  0.8715
15669TIP3    H268423   5.209   5.770  11.626 -0.9022  0.6252  2.2676
15670TIP3   OH268424   1.967   2.648   3.403 -0.1853 -0.2226 -0.2842
15670TIP3    H168425   2.014   2.718   3.448 -0.4221 -0.3600  0.1779
15670TIP3    H268426   2.016   2.635   3.322  0.1093  0.1835 -0.1733
15671TIP3   OH268427   5.996   2.317   6.134  0.1832  0.3169 -0.0518
15671TIP3    H168428   5.960   2.403   6.112 -0.1012  0.2726  0.2403
15671TIP3    H268429   5.996   2.314   6.229  2.1725  0.8420  0.0172
15672TIP3   OH268430   4.637   2.120  11.922 -0.2919  0.0186  0.2564
15672TIP3    H168431   4.715   2.095  11.873  0.2059 -0.6032  1.3524
15672TIP3    H268432   4.602   2.195  11.873  1.1642  0.5188 -0.0786
15673TIP3   OH268433   3.722   1.379  16.610 -0.5697 -0.5195 -0.2481
15673TIP3    H168434   3.778   1.427  16.671  0.2632  0.3929 -1.6741
15673TIP3    H268435   3.776   1.306  16.580 -1.5003 -1.8555  1.1872
15674TIP3   OH268436   5.661   3.315   4.485  0.0484 -0.1131  0.3266
15674TIP3    H168437   5.588   3.253   4.486  0.9646 -1.2316 -0.0303
15674TIP3    H268438   5.672   3.339   4.393 -1.5439  2.1461  0.6569
15675TIP3   OH268439   5.407   1.672   6.408  0.1614  0.1661 -0.3792
15675TIP3    H168440   5.388   1.670   6.501  1.2096 -1.1495 -0.1739
15675TIP3    H268441   5.351   1.742   6.374 -1.3892 -0.3602  0.9645
15676TIP3   OH268442   0.929   5.186   5.758 -0.4969  0.3193  0.4835
15676TIP3    H168443   0.997   5.119   5.760 -1.0094 -0.2580 -0.6621
15676TIP3    H268444   0.918   5.206   5.665 -1.5276  0.7788  0.6934
15677TIP3   OH268445   0.861   2.428   5.077  0.1160  0.4498 -0.4267
15677TIP3    H168446   0.878   2.481   5.154 -0.2638  0.6021 -0.4463
15677TIP3    H268447   0.841   2.341   5.111 -0.0294  0.5114 -0.3552
15678TIP3   OH268448   4.492   6.228   0.002 -0.8187  0.0805 -0.1912
15678TIP3    H168449   4.575   6.180  -0.007  0.1157  1.8665 -1.7628
15678TIP3    H268450   4.508   6.290   0.072 -0.9982  0.1001 -0.1676
15679TIP3   OH268451   4.170   1.990  15.046  0.0057 -0.4524 -0.2469
15679TIP3    H168452   4.076   2.007  15.057  0.3693  0.8679  1.0279
15679TIP3    H268453   4.178   1.964  14.954 -1.5459 -0.1636 -0.5019
15680TIP3   OH268454   1.487   2.417  10.631 -0.2919  0.0480  0.4286
15680TIP3    H168455   1.515   2.327  10.615 -0.4953 -0.0435  0.5818
15680TIP3    H268456   1.501   2.462  10.548 -0.5867 -0.2280  0.2297
15681TIP3   OH268457   5.697   1.737  11.917 -0.1700  0.5344  0.6447
15681TIP3    H168458   5.620   1.707  11.965  1.3494 -1.5008  1.9634
15681TIP3    H268459   5.771   1.701  11.965  1.6339  2.1614 -0.7452
15682TIP3   OH268460   1.543   0.635  16.513 -0.2421 -0.1213 -0.0987
15682TIP3    H168461   1.630   0.655  16.477 -0.5737 -0.8266 -1.3501
15682TIP3    H268462   1.500   0.583  16.445 -0.4952 -2.5293  1.7592
15683TIP3   OH268463   4.185   5.359  14.944  0.1679 -0.1311  0.3074
15683TIP3    H168464   4.250   5.427  14.965 -0.5124  1.4096 -2.2580
15683TIP3    H268465   4.223   5.312  14.870 -1.6221  0.9306 -1.3847
15684TIP3   OH268466   0.723   1.303  13.464 -0.6634  0.2236  0.0716
15684TIP3    H168467   0.673   1.227  13.495 -0.6509 -0.6751 -1.9853
15684TIP3    H268468   0.814   1.280  13.482 -0.5669 -0.7869 -1.5216
15685TIP3   OH268469   2.653   0.265   4.117  0.4667 -0.3936 -0.1708
15685TIP3    H168470   2.682   0.345   4.161 -2.3301 -0.1688  1.5481
15685TIP3    H268471   2.692   0.194   4.169  0.1856 -0.1228  0.4176
15686TIP3   OH268472   6.168   4.062   1.025  0.4901 -0.0270 -0.2941
15686TIP3    H168473   6.178   3.969   1.042  2.4355  0.0989 -0.5662
15686TIP3    H268474   6.077   4.081   1.047  0.6985 -1.4753  2.1554
15687TIP3   OH268475   5.227   5.548   5.970  0.1795  0.6745  0.2795
15687TIP3    H168476   5.152   5.594   6.008  1.1364  3.9654 -1.4984
15687TIP3    H268477   5.289   5.540   6.043 -1.1450 -0.5252  1.3322
15688TIP3   OH268478   1.113   3.145   0.762  0.6128 -0.1693  0.0669
15688TIP3    H168479   1.162   3.202   0.702  1.1055 -0.8747 -0.2152
15688TIP3    H268480   1.175   3.124   0.832 -0.6044  2.4393  2.0785
15689TIP3   OH268481   5.157   2.208   3.487  0.4153 -1.2129 -0.5778
15689TIP3    H168482   5.156   2.247   3.574 -0.0180  0.1757 -1.1854
15689TIP3    H268483   5.068   2.175   3.475  0.3558 -1.0202 -0.6644
15690TIP3   OH268484   5.201   2.450   0.555 -0.6654 -0.4216  0.1806
15690TIP3    H168485   5.164   2.467   0.469  1.3549 -1.4821 -0.9840
15690TIP3    H268486   5.173   2.362   0.577 -1.8165  0.1281  1.0008
15691TIP3   OH268487   3.026   2.830   3.432 -0.5510  0.4145  0.1750
15691TIP3    H168488   3.001   2.901   3.491 -3.0949 -0.4066  0.2046
15691TIP3    H268489   3.004   2.863   3.345 -3.3958 -0.8288  0.3063
15692TIP3   OH268490   2.238   1.060   1.784  0.8643  0.4467 -0.9507
15692TIP3    H168491   2.320   1.024   1.818  0.3998 -0.1668 -0.4619
15692TIP3    H268492   2.238   1.151   1.812  0.3091 -0.1289  1.0753
15693TIP3   OH268493   4.849   5.423   1.826 -0.3786  0.0585 -0.1954
15693TIP3    H168494   4.811   5.505   1.793 -0.6655  0.5366  1.2399
15693TIP3    H268495   4.817   5.356   1.765 -0.0928  1.0009 -1.4261
15694TIP3   OH268496   1.175   3.564  15.797 -0.1194 -0.2040  0.3735
15694TIP3    H168497   1.211   3.475  15.789  1.1700  0.2112  1.2451
15694TIP3    H268498   1.170   3.579  15.891 -3.1388 -0.4003  0.3621
15695TIP3   OH268499   0.658   2.420  14.734  0.3498 -0.3934 -0.4507
15695TIP3    H168500   0.733   2.385  14.782  1.7296  0.0032 -2.1595
15695TIP3    H268501   0.697   2.486  14.676 -1.0782 -1.2523 -2.5091
15696TIP3   OH268502   5.598   4.728   0.218 -0.4566  0.2004  0.0989
15696TIP3    H168503   5.603   4.647   0.168 -0.6240  0.8376 -0.9803
15696TIP3    H268504   5.679   4.774   0.198 -0.0547  0.0155  1.2355
15697TIP3   OH268505   0.034   0.829   1.972 -0.1992 -0.0305  0.0916
15697TIP3    H168506   0.080   0.804   2.053  0.6210 -1.3446 -0.7414
15697TIP3    H268507   0.095   0.807   1.902 -1.4376 -0.2337 -0.9636
15698TIP3   OH268508   5.398   3.210   3.512  0.2264 -0.0049 -0.6222
15698TIP3    H168509   5.400   3.259   3.594  1.4507 -0.3705 -0.4101
15698TIP3    H268510   5.305   3.192   3.496 -0.0015 -0.2167  0.8537
15699TIP3   OH268511   5.132   1.095  15.437 -0.2473  0.0796 -0.1178
15699TIP3    H168512   5.053   1.102  15.490  0.2521  0.3365  0.6040
15699TIP3    H268513   5.122   1.012  15.389 -0.6151 -0.2476  0.5174
15700TIP3   OH268514   2.902   2.519  13.465 -0.3265 -0.6199  0.1428
15700TIP3    H168515   2.956   2.440  13.465 -0.9586 -1.0604 -0.2933
15700TIP3    H268516   2.941   2.574  13.396 -0.2235 -0.7874  0.0663
15701TIP3   OH268517   1.814   5.984  13.718 -0.1266 -0.4568 -0.2997
15701TIP3    H168518   1.868   5.929  13.775  0.6394 -1.6577 -2.1075
15701TIP3    H268519   1.755   5.922  13.675 -0.3082  0.3360 -1.2063
15702TIP3   OH268520   2.660   6.398  17.137 -0.3897  0.0040 -0.2794
15702TIP3    H168521   2.642   6.337  17.209 -0.7957 -0.3235 -0.6535
15702TIP3    H268522   2.672   6.342  17.061  0.9686  0.2979 -0.2933
15703TIP3   OH268523   5.737   6.537  16.692 -0.7022  0.6093 -0.1999
15703TIP3    H168524   5.701   6.596  16.759 -0.1249  0.7639 -0.0096
15703TIP3    H268525   5.769   6.595  16.624 -0.5241  0.4945 -0.2150
15704TIP3   OH268526   2.858   1.299  13.394  0.0161 -0.5424 -0.2765
15704TIP3    H168527   2.796   1.371  13.394  0.5841 -0.0409  0.1979
15704TIP3    H268528   2.848   1.258  13.481  1.4879  0.5719  0.4736
15705TIP3   OH268529   5.005   5.410   4.104  0.0990  0.3051 -1.0176
15705TIP3    H168530   5.066   5.459   4.049  0.7280  0.6508 -0.0389
15705TIP3    H268531   5.054   5.394   4.185 -0.3287 -1.3423 -1.0505
15706TIP3   OH268532   3.849   1.955  14.708  0.5731  0.5686 -0.0830
15706TIP3    H168533   3.933   1.935  14.749  0.0724 -0.6940  0.3778
15706TIP3    H268534   3.871   1.968  14.615  1.1241 -1.1170 -0.2334
15707TIP3   OH268535   3.041   4.239  15.043 -0.1403  0.6729  0.4102
15707TIP3    H168536   2.954   4.260  15.077 -0.2681  1.0119 -0.1118
15707TIP3    H268537   3.047   4.144  15.047 -0.8723  0.5868 -0.3513
15708TIP3   OH268538   6.531   1.124   5.916  0.3716  0.6604 -0.2650
15708TIP3    H168539   6.581   1.044   5.931  1.4382  1.4848  0.8323
15708TIP3    H268540   6.447   1.109   5.960  0.5478  0.1308 -0.1090
15709TIP3   OH268541   0.733   5.479   0.954  0.8607  0.3230  0.0751
15709TIP3    H168542   0.776   5.522   1.027  0.1852  0.8357  0.1747
15709TIP3    H268543   0.644   5.513   0.955  0.5755 -0.3876 -0.4021
15710TIP3   OH268544   2.914   1.316   5.198  0.3595  1.0318  0.0074
15710TIP3    H168545   2.889   1.230   5.233  0.7572  1.4490  1.3823
15710TIP3    H268546   2.840   1.373   5.218  0.4452  1.2011 -0.1485
15711TIP3   OH268547   5.624   4.814  15.832 -0.1634 -0.1920  0.0549
15711TIP3    H168548   5.576   4.773  15.760  0.1837 -1.8400  0.7162
15711TIP3    H268549   5.579   4.897  15.846  0.4920  0.7617 -2.8063
15712TIP3   OH268550   1.481   5.424  14.497 -0.1468 -0.5384 -0.2710
15712TIP3    H168551   1.571   5.419  14.529 -0.2991  1.7386  0.6818
15712TIP3    H268552   1.475   5.509  14.454 -2.2589  0.0722  1.0784
15713TIP3   OH268553   3.042   2.808  13.172  0.0298  0.5361  0.1559
15713TIP3    H168554   3.117   2.847  13.127  1.0011 -3.7330 -2.4540
15713TIP3    H268555   2.967   2.833  13.119  0.7925 -1.8705 -2.2533
15714TIP3   OH268556   0.752   1.482  15.018  0.1276 -0.5523 -0.0492
15714TIP3    H168557   0.802   1.474  15.099  0.3852 -0.2252 -0.1752
15714TIP3    H268558   0.767   1.399  14.973  1.9739  0.1916 -0.8813
15715TIP3   OH268559   0.228   4.627  14.857 -0.8574  0.4703 -0.7276
15715TIP3    H168560   0.146   4.633  14.907  0.1839  0.9850  1.0221
15715TIP3    H268561   0.264   4.542  14.882 -0.6905  0.3898 -1.2338
15716TIP3   OH268562   2.538   1.033   1.529  0.4113  0.2249 -0.1213
15716TIP3    H168563   2.596   1.085   1.585 -0.0889  1.6685 -0.8844
15716TIP3    H268564   2.540   0.945   1.567  1.5610  0.7094  1.0153
15717TIP3   OH268565   1.571   1.815  12.849  0.4541  0.0904 -0.3991
15717TIP3    H168566   1.659   1.836  12.821  1.0059 -2.0075 -0.3970
15717TIP3    H268567   1.544   1.742  12.793 -1.5657  1.1185 -0.8728
15718TIP3   OH268568   4.764   0.168  15.510  0.0170 -0.0164  0.0547
15718TIP3    H168569   4.711   0.124  15.443  0.6381 -0.8427  0.0861
15718TIP3    H268570   4.751   0.115  15.589 -0.8045  1.0166  0.6503
15719TIP3   OH268571   2.259   1.743  11.935 -0.4105 -0.4802  0.1806
15719TIP3    H168572   2.213   1.813  11.981 -0.1144  0.5408 -1.0225
15719TIP3    H268573   2.200   1.668  11.939 -1.9504  0.6234 -0.8070
15720TIP3   OH268574   5.561   0.216  13.240  0.2801  0.2361  0.0470
15720TIP3    H168575   5.509   0.227  13.319 -1.2210 -1.0830 -0.7010
15720TIP3    H268576   5.498   0.192  13.172  1.5099  1.3929 -1.5957
15721TIP3   OH268577   3.033   0.565  12.984 -0.2290  0.2960 -0.5815
15721TIP3    H168578   3.090   0.498  13.022 -0.3377  0.2858 -0.4316
15721TIP3    H268579   2.950   0.553  13.031  0.1904  1.5303  0.5431
15722TIP3   OH268580   5.481   2.631  16.696  0.5065 -0.7005  0.3595
15722TIP3    H168581   5.522   2.637  16.782  1.6969 -0.0730 -0.2135
15722TIP3    H268582   5.394   2.597  16.713  1.1925 -1.9301  1.6760
15723TIP3   OH268583   6.024   0.271   1.226 -0.3878  0.1112  0.0348
15723TIP3    H168584   6.092   0.259   1.160 -1.3296  1.3433 -1.2162
15723TIP3    H268585   5.950   0.218   1.195 -1.2043  1.5182 -0.4750
15724TIP3   OH268586   4.174   1.211   6.368 -0.0248 -0.4794  0.0944
15724TIP3    H168587   4.167   1.225   6.462  1.4179  2.7542 -0.1316
15724TIP3    H268588   4.265   1.185   6.354 -1.0274 -4.4179 -0.2306
15725TIP3   OH268589   4.324   5.241  13.642  0.3276 -0.0015  0.3616
15725TIP3    H168590   4.318   5.265  13.549 -3.5360 -1.3304  0.0828
15725TIP3    H268591   4.356   5.150  13.641 -2.1192 -0.9272  0.0313
15726TIP3   OH268592   5.366   0.241  13.896 -0.3901 -0.3345 -0.0403
15726TIP3    H168593   5.382   0.265  13.987 -2.0318  0.3896  0.0955
15726TIP3    H268594   5.441   0.277  13.848  0.3936 -0.5553  0.9847
15727TIP3   OH268595   5.097   0.185  12.067 -0.9817 -0.4418 -0.0267
15727TIP3    H168596   5.087   0.279  12.084 -2.2143 -0.7363  1.0936
15727TIP3    H268597   5.011   0.159  12.034 -0.7047 -1.2132 -0.1386
15728TIP3   OH268598   2.965   3.125   2.895 -0.5189  0.2458 -0.2255
15728TIP3    H168599   2.954   3.177   2.974  1.9584  0.1334  0.2815
15728TIP3    H268600   2.926   3.177   2.826  1.1246  2.4293  0.3950
15729TIP3   OH268601   2.372   0.671   3.141  0.2061 -0.1575  0.1918
15729TIP3    H168602   2.331   0.716   3.214 -1.0856 -1.1530  0.1137
15729TIP3    H268603   2.437   0.613   3.182 -0.8816 -1.1043  0.6111
15730TIP3   OH268604   3.181   5.835  14.855 -0.0060 -0.5049  0.0863
15730TIP3    H168605   3.210   5.797  14.938 -1.5220  2.6959  2.3374
15730TIP3    H268606   3.262   5.852  14.807  0.9520 -2.0967  1.0369
15731TIP3   OH268607   3.368   1.403   4.789  0.9193  0.2712 -0.2431
15731TIP3    H168608   3.317   1.335   4.746  1.1218 -1.1168  1.6220
15731TIP3    H268609   3.314   1.482   4.781 -0.0675 -0.4628 -0.9989
15732TIP3   OH268610   2.921   3.313   0.653 -0.4527  0.0572  0.4542
15732TIP3    H168611   2.905   3.393   0.603 -0.5683  0.4888  1.1558
15732TIP3    H268612   3.008   3.326   0.691 -0.6642  0.0610  0.9485
15733TIP3   OH268613   0.903   4.514   2.425 -0.4691  0.0915 -0.5252
15733TIP3    H168614   0.838   4.492   2.359 -3.1761  1.6178  1.4012
15733TIP3    H268615   0.865   4.481   2.507  2.3987 -1.1070  0.4430
15734TIP3   OH268616   1.360   3.804  15.184 -0.1945  0.1201 -0.7739
15734TIP3    H168617   1.441   3.799  15.133 -0.5441 -0.5371 -1.2753
15734TIP3    H268618   1.315   3.882  15.150  1.3551  1.9962  1.2283
15735TIP3   OH268619   3.113   5.172   5.271 -0.2872  0.2467 -0.0060
15735TIP3    H168620   3.201   5.153   5.239 -0.1953  1.8473 -0.8081
15735TIP3    H268621   3.068   5.211   5.196 -0.9414  1.5569  1.0210
15736TIP3   OH268622   3.824   0.469   1.609 -0.2102 -0.3536 -0.1790
15736TIP3    H168623   3.768   0.512   1.674  1.6604  0.4492  0.9737
15736TIP3    H268624   3.783   0.489   1.525 -1.1381  0.9989  0.5649
15737TIP3   OH268625   5.989   2.843   2.552  0.4399 -0.2819  0.4867
15737TIP3    H168626   5.904   2.859   2.512  0.2373  1.4456  1.4874
15737TIP3    H268627   5.986   2.752   2.581 -0.2945 -0.8371 -1.2375
15738TIP3   OH268628   2.421   5.913   1.270  0.0901 -0.3745 -0.2363
15738TIP3    H168629   2.379   5.863   1.200 -0.8936 -0.6345  0.5121
15738TIP3    H268630   2.482   5.850   1.310  0.8088 -0.1602 -0.9806
15739TIP3   OH268631   3.329   4.109  14.871  0.1387  0.5386 -0.2870
15739TIP3    H168632   3.304   4.201  14.871  0.6430  0.6834 -0.1007
15739TIP3    H268633   3.421   4.109  14.900 -0.2397 -0.1261  0.9921
15740TIP3   OH268634   0.285   5.764   4.485  0.2876 -0.3739 -0.0630
15740TIP3    H168635   0.274   5.818   4.407 -1.4334 -0.0568  0.3651
15740TIP3    H268636   0.201   5.719   4.495  0.9736 -1.5140  0.8040
15741TIP3   OH268637   5.419   5.424  10.982  0.0759 -0.4991  0.4668
15741TIP3    H168638   5.475   5.445  10.907  1.1390 -1.7925  0.8524
15741TIP3    H268639   5.363   5.352  10.951 -1.6764  1.0132 -0.0248
15742TIP3   OH268640   3.283   3.253   0.059  0.3033  0.2532  0.0382
15742TIP3    H168641   3.367   3.286   0.091  0.1521 -0.9391  1.7875
15742TIP3    H268642   3.238   3.221   0.137 -0.9680 -0.9134 -1.1084
15743TIP3   OH268643   6.182   4.558   0.845 -0.4760 -0.6098 -0.2739
15743TIP3    H168644   6.138   4.492   0.899  0.3125 -0.5831  0.4053
15743TIP3    H268645   6.254   4.590   0.898 -0.2078  0.0530 -1.0064
15744TIP3   OH268646   1.015   2.473  14.624 -0.5052  0.1922  0.5437
15744TIP3    H168647   0.981   2.392  14.661  0.8433  0.0555  1.5292
15744TIP3    H268648   1.084   2.500  14.684 -1.5679  2.6111  0.8268
15745TIP3   OH268649   0.687   3.081  12.607 -0.0252 -0.3513 -0.1120
15745TIP3    H168650   0.657   3.132  12.682  1.1686  0.7180 -0.3270
15745TIP3    H268651   0.723   3.146  12.547  1.3158 -1.4211 -0.5129
15746TIP3   OH268652   3.728   2.805  15.003  0.0077 -0.4303  0.1490
15746TIP3    H168653   3.642   2.846  15.011  0.2740  0.0568  0.5107
15746TIP3    H268654   3.774   2.858  14.938  0.6464  0.3603  1.2187
15747TIP3   OH268655   3.539   0.371  13.081 -0.3952  0.5046  0.3445
15747TIP3    H168656   3.472   0.439  13.090 -1.7117 -0.7143  0.2170
15747TIP3    H268657   3.515   0.324  13.001  0.4502 -0.1383  0.4504
15748TIP3   OH268658   1.632   1.189  16.583 -0.1443  0.5352 -0.2159
15748TIP3    H168659   1.569   1.260  16.568 -1.3021 -0.1349  1.2109
15748TIP3    H268660   1.618   1.164  16.675  2.6721  0.7731  0.3713
15749TIP3   OH268661   0.497   0.476   1.111 -0.0352 -0.1908  0.5037
15749TIP3    H168662   0.567   0.510   1.056 -0.9738  0.9937  0.0124
15749TIP3    H268663   0.521   0.384   1.126  1.5739  0.1701  0.3011
15750TIP3   OH268664   5.658   4.243   4.998 -0.6377 -0.2673  0.8906
15750TIP3    H168665   5.649   4.227   5.092 -0.9192 -0.0808  0.8953
15750TIP3    H268666   5.723   4.178   4.969 -0.4919 -0.2712  1.2262
15751TIP3   OH268667   2.090   2.265  12.690  0.6400 -0.0846 -0.0288
15751TIP3    H168668   2.129   2.336  12.740 -0.3871 -0.4336  1.3287
15751TIP3    H268669   2.022   2.308  12.637 -0.8421 -0.1716  1.7267
15752TIP3   OH268670   1.806   0.144  16.149 -1.0119 -0.4210  0.3759
15752TIP3    H168671   1.852   0.192  16.080 -1.4892  0.4323  0.6436
15752TIP3    H268672   1.876   0.117  16.209 -0.7833  0.3963  0.4955
15753TIP3   OH268673   3.910   1.430  16.014 -0.1852 -0.2762 -0.1368
15753TIP3    H168674   3.904   1.502  16.077 -0.0029 -0.3223 -0.0666
15753TIP3    H268675   3.824   1.388  16.017 -1.1795  1.4651 -2.0092
15754TIP3   OH268676   5.039   1.970  14.919 -0.0569  0.3357 -0.0358
15754TIP3    H168677   5.081   2.023  14.851  0.1724  0.2914  0.0684
15754TIP3    H268678   5.014   2.032  14.987  0.0271  0.3384 -0.0065
15755TIP3   OH268679   1.887   3.239  12.626  0.8400 -0.7690  0.0189
15755TIP3    H168680   1.826   3.266  12.558  1.4598 -1.1243 -0.6910
15755TIP3    H268681   1.947   3.313  12.635  2.4943 -1.7816 -1.8741
15756TIP3   OH268682   5.731   4.496  16.686 -0.0627  0.6547 -0.1317
15756TIP3    H168683   5.776   4.492  16.770 -0.5199 -0.3886  0.0777
15756TIP3    H268684   5.641   4.470  16.705  0.4103 -2.1986 -1.3247
15757TIP3   OH268685   0.667   2.986   5.694 -0.1632  0.1942  0.2376
15757TIP3    H168686   0.614   2.945   5.626 -0.8639  0.1412  0.8103
15757TIP3    H268687   0.647   2.936   5.774 -0.9797  1.5932  0.9352
15758TIP3   OH268688   6.700   3.560  15.957  0.1772  0.0654 -0.4042
15758TIP3    H168689   6.674   3.590  15.870 -0.4376 -0.6720 -0.4861
15758TIP3    H268690   6.776   3.613  15.979  1.5984 -1.0720 -2.2448
15759TIP3   OH268691   6.741   3.202  12.473 -0.2361  0.2542  0.2128
15759TIP3    H168692   6.798   3.201  12.549 -0.3079  1.8854  0.3053
15759TIP3    H268693   6.674   3.136  12.493  0.7460 -0.6220  0.7380
15760TIP3   OH268694   2.011   0.925   2.989  0.5192 -0.0907 -0.6707
15760TIP3    H168695   2.084   0.863   2.994  1.7283  1.3087 -0.2022
15760TIP3    H268696   1.952   0.899   3.060  0.2577 -1.5649 -1.3801
15761TIP3   OH268697   2.192   4.144   2.549 -0.6489 -0.2456  0.0279
15761TIP3    H168698   2.266   4.119   2.493  0.9429  1.8812  1.0245
15761TIP3    H268699   2.231   4.156   2.635 -2.4960 -0.5942  0.9503
15762TIP3   OH268700   1.798   0.643  14.102  0.2230  0.1245  0.4218
15762TIP3    H168701   1.854   0.622  14.027 -1.2451  0.3881 -0.7961
15762TIP3    H268702   1.710   0.647  14.066 -0.8535 -1.8112  2.5246
15763TIP3   OH268703   0.462   5.883  11.188  0.0131 -0.4357 -0.0881
15763TIP3    H168704   0.510   5.826  11.128  0.5270  0.4227 -0.5107
15763TIP3    H268705   0.482   5.971  11.158 -1.1367 -0.0372  0.2725
15764TIP3   OH268706   1.942   0.511   3.156  0.5011 -0.1224  0.1463
15764TIP3    H168707   1.883   0.581   3.185  1.0021  0.4557 -0.2116
15764TIP3    H268708   1.985   0.480   3.236  0.6348  0.3082  0.2399
15765TIP3   OH268709   4.247   3.897  15.088 -0.1191 -0.2506  0.4201
15765TIP3    H168710   4.290   3.981  15.104 -0.5828 -0.2276  1.6983
15765TIP3    H268711   4.155   3.912  15.111  0.0241 -1.4188  1.9874
15766TIP3   OH268712   4.994   1.786  15.803  0.4536  0.2705 -0.4719
15766TIP3    H168713   4.921   1.744  15.756 -1.8500  3.2603  0.1294
15766TIP3    H268714   5.066   1.723  15.796 -2.3960 -3.3781 -0.2694
15767TIP3   OH268715   5.835   5.291  16.001 -0.2707 -0.0180  0.3827
15767TIP3    H168716   5.857   5.379  15.969 -0.0999 -1.0327 -2.6070
15767TIP3    H268717   5.919   5.251  16.023 -0.2224  0.1005  0.4110
15768TIP3   OH268718   4.559   0.509   2.225  0.2642 -0.2351  0.7751
15768TIP3    H168719   4.503   0.456   2.168 -0.0893  0.7008  0.2262
15768TIP3    H268720   4.553   0.467   2.311 -1.2058 -0.2186  0.7096
15769TIP3   OH268721   3.934   0.980   4.243  0.2211 -0.0913 -0.5295
15769TIP3    H168722   4.021   0.972   4.282  0.0656  0.0652 -0.1453
15769TIP3    H268723   3.873   0.964   4.315 -0.0700 -0.0261 -0.7569
15770TIP3   OH268724   4.071   4.751  11.478 -0.2838 -0.2384  0.1038
15770TIP3    H168725   4.084   4.828  11.423 -1.4809  0.0371  0.1695
15770TIP3    H268726   4.053   4.786  11.565  0.4899 -0.6383  0.4325
15771TIP3   OH268727   2.764   4.800  10.960  0.1576 -0.6155 -0.4377
15771TIP3    H168728   2.670   4.780  10.966  0.0602 -0.1929 -0.5682
15771TIP3    H268729   2.768   4.895  10.948  0.5666 -0.7326 -1.3467
15772TIP3   OH268730   1.485   2.000  12.133 -0.5491 -0.2105 -0.2205
15772TIP3    H168731   1.546   1.932  12.107  1.0126  0.3758  1.6359
15772TIP3    H268732   1.456   1.975  12.221 -2.6617 -0.2131 -0.8527
15773TIP3   OH268733   1.465   1.070  15.358 -0.4909 -0.0394  0.2596
15773TIP3    H168734   1.372   1.075  15.336 -0.1709 -0.3769 -1.2913
15773TIP3    H268735   1.509   1.117  15.287  0.4862  0.8639  1.4096
15774TIP3   OH268736   5.308   4.988   1.188  0.1214 -0.0906  0.7336
15774TIP3    H168737   5.328   5.081   1.174 -1.8260  0.3874  0.8007
15774TIP3    H268738   5.277   4.958   1.102  1.4806 -0.9100  0.5091
15775TIP3   OH268739   1.933   0.027   0.460  0.0331 -0.4384  0.4520
15775TIP3    H168740   1.980   0.100   0.420 -1.4843  0.9307  1.0284
15775TIP3    H268741   2.000  -0.038   0.478  1.2973  0.3958 -0.9903
15776TIP3   OH268742   1.558   1.161  13.176  0.4077  0.5178 -0.1247
15776TIP3    H168743   1.650   1.157  13.149  0.1793  0.2947 -0.8995
15776TIP3    H268744   1.557   1.120  13.262  0.9665  0.1168 -0.2970
15777TIP3   OH268745   0.438   6.143   2.876 -0.1082 -0.3893 -0.0130
15777TIP3    H168746   0.447   6.237   2.890  0.3104  0.0796 -2.8929
15777TIP3    H268747   0.392   6.135   2.792 -0.6419 -2.7726  0.4185
15778TIP3   OH268748   4.466   6.599  13.530 -0.0046 -0.1785  0.4533
15778TIP3    H168749   4.496   6.668  13.589 -1.2812  0.6601  0.1658
15778TIP3    H268750   4.374   6.620  13.513  0.4386 -0.0316 -2.2631
15779TIP3   OH268751   0.998   1.446   4.564  0.4550 -0.6221  0.7742
15779TIP3    H168752   0.992   1.383   4.492 -0.3322  0.3457 -0.0423
15779TIP3    H268753   1.026   1.528   4.522  2.3111 -0.6023  1.9385
15780TIP3   OH268754   6.332   3.047  10.261  0.5817 -0.4690 -1.3036
15780TIP3    H168755   6.260   3.107  10.241  0.3995 -0.7569 -1.5126
15780TIP3    H268756   6.378   3.089  10.334 -0.6465 -0.9762 -0.2023
15781TIP3   OH268757   0.244   0.180  14.419 -0.6964  0.4119  0.2844
15781TIP3    H168758   0.158   0.139  14.429 -0.4759 -0.2243 -0.3072
15781TIP3    H268759   0.260   0.178  14.325  0.9247 -1.5534  0.5254
15782TIP3   OH268760   6.011   4.999   2.521 -0.0232 -0.5067 -0.4985
15782TIP3    H168761   6.056   4.960   2.446  0.6699  0.2849 -0.5024
15782TIP3    H268762   6.081   5.018   2.584 -0.6161 -1.3386  0.4412
15783TIP3   OH268763   5.705   0.775  16.052  0.3190 -0.2516 -0.2987
15783TIP3    H168764   5.721   0.848  15.992 -0.0088  0.8479  0.9061
15783TIP3    H268765   5.792   0.754  16.087  0.2893  0.2461  0.0942
15784TIP3   OH268766   4.282   2.694   4.808 -0.2245 -0.4332  0.5211
15784TIP3    H168767   4.206   2.695   4.750 -0.0525 -1.6722  0.2465
15784TIP3    H268768   4.289   2.784   4.841 -1.4502 -0.1732  0.0963
15785TIP3   OH268769   0.737   1.166   0.745  0.4536  0.5545 -0.1006
15785TIP3    H168770   0.664   1.188   0.687 -0.1081 -0.7552  0.0819
15785TIP3    H268771   0.815   1.173   0.689  0.2006  1.8147 -0.3340
15786TIP3   OH268772   1.584   2.593  15.004 -0.1435  0.2846  0.7142
15786TIP3    H168773   1.501   2.628  14.970 -0.2591  1.4243  2.0772
15786TIP3    H268774   1.579   2.499  14.987 -2.4212  0.0729  2.0584
15787TIP3   OH268775   3.761   1.686   3.013  0.6387  0.4350  0.2681
15787TIP3    H168776   3.797   1.772   2.991  2.2222  0.0197  1.0867
15787TIP3    H268777   3.749   1.689   3.108  0.4453 -0.1721  0.2632
15788TIP3   OH268778   3.894   1.589  17.186  0.0927  0.1135 -0.2450
15788TIP3    H168779   3.822   1.578  17.247 -0.1929  1.9397 -0.1974
15788TIP3    H268780   3.971   1.602  17.241  0.3975 -1.2762 -0.3005
15789TIP3   OH268781   0.951   3.145  15.892 -0.7730  0.2800  0.3634
15789TIP3    H168782   0.979   3.141  15.800  0.8244  4.6981  0.4274
15789TIP3    H268783   1.010   3.085  15.937 -3.9147 -4.9441 -1.6271
15790TIP3   OH268784   0.146   2.292  16.832  0.6951 -0.9627 -0.3524
15790TIP3    H168785   0.065   2.338  16.851  2.0066  0.1735  3.4738
15790TIP3    H268786   0.210   2.362  16.815  1.3843 -1.7085 -0.9461
15791TIP3   OH268787   5.649   4.237  14.760  0.1597 -0.0829  0.1354
15791TIP3    H168788   5.721   4.282  14.804 -0.0215 -0.3326  0.7034
15791TIP3    H268789   5.665   4.250  14.667  0.0373  1.2740  0.2873
15792TIP3   OH268790   2.572   4.148   2.604 -0.1482 -0.0938 -0.3458
15792TIP3    H168791   2.557   4.087   2.677 -0.4646  0.6278  0.2028
15792TIP3    H268792   2.635   4.103   2.548  2.3608  0.4559  1.8028
15793TIP3   OH268793   6.397   2.838   3.842 -0.0079 -0.2850 -0.5752
15793TIP3    H168794   6.309   2.806   3.823 -0.0039 -1.0448  0.5331
15793TIP3    H268795   6.414   2.807   3.931  0.2647  2.3106  0.3408
15794TIP3   OH268796   2.885   5.108  12.036  0.1356  0.0187 -0.2818
15794TIP3    H168797   2.839   5.118  11.953  0.8791  3.3661 -0.4581
15794TIP3    H268798   2.817   5.082  12.098 -1.2952  1.3586 -1.2104
15795TIP3   OH268799   5.293   5.384  13.073 -0.5225  0.6461  0.1490
15795TIP3    H168800   5.208   5.424  13.092 -0.3400  1.6721 -1.0545
15795TIP3    H268801   5.352   5.458  13.058 -0.0431 -0.0384 -1.5934
15796TIP3   OH268802   4.609   5.930  15.544 -0.0716 -0.1070  0.3384
15796TIP3    H168803   4.652   5.860  15.594 -0.5343 -0.8638 -0.2895
15796TIP3    H268804   4.515   5.909  15.551 -0.2107  0.4454  0.1277
15797TIP3   OH268805   1.172   0.814   1.691  0.1061  0.6130  0.1649
15797TIP3    H168806   1.250   0.777   1.648  0.0553  1.2178 -0.4774
15797TIP3    H268807   1.196   0.905   1.709  0.0820  0.3939  1.3392
15798TIP3   OH268808   5.911   0.900  13.476 -0.0815 -0.0374  0.2358
15798TIP3    H168809   5.903   0.984  13.522 -0.6028 -0.6466  1.2987
15798TIP3    H268810   6.003   0.876  13.485  0.2488  0.7877 -0.7690
15799TIP3   OH268811   4.177   2.913  13.201  0.4627 -0.0704  0.1478
15799TIP3    H168812   4.246   2.950  13.256  1.4186 -1.3091 -0.1768
15799TIP3    H268813   4.130   2.853  13.258 -0.2963  0.6780  0.3335
15800TIP3   OH268814   5.377   4.209  12.281 -0.1158 -0.9916 -0.2324
15800TIP3    H168815   5.313   4.203  12.352 -0.0904 -1.5934 -0.2613
15800TIP3    H268816   5.365   4.129  12.229 -0.4187 -0.3684 -1.1520
15801TIP3   OH268817   5.724   0.708  15.239 -0.8919  0.8366  0.2908
15801TIP3    H168818   5.791   0.662  15.290 -1.1523  0.6180  0.4359
15801TIP3    H268819   5.644   0.658  15.253 -1.1765  1.3192  0.4390
15802TIP3   OH268820   3.653   3.376  10.825  0.1283 -0.0506  0.0550
15802TIP3    H168821   3.614   3.311  10.766  0.4326 -0.6701  0.5266
15802TIP3    H268822   3.732   3.404  10.780 -1.7476  2.6988 -1.8806
15803TIP3   OH268823   1.006   4.332   1.855  0.3665 -0.2201  0.0114
15803TIP3    H168824   1.028   4.240   1.847  1.2053 -0.1474  1.3580
15803TIP3    H268825   1.072   4.378   1.803  0.8762 -0.2762  0.6119
15804TIP3   OH268826   0.514   4.583   3.751 -0.2942  0.0319  0.6253
15804TIP3    H168827   0.483   4.672   3.768 -1.8370 -0.5267  0.9578
15804TIP3    H268828   0.500   4.571   3.657  0.3335  0.2880  0.4982
15805TIP3   OH268829   4.407   5.896  14.718  0.6327 -0.8274 -1.1663
15805TIP3    H168830   4.500   5.891  14.700  0.8283  1.2415 -1.0454
15805TIP3    H268831   4.367   5.918  14.634  0.0668 -2.9208 -1.4873
15806TIP3   OH268832   5.890   3.971  16.269  0.4941 -0.1409 -0.1228
15806TIP3    H168833   5.926   4.028  16.336  0.6217 -1.6867  1.1802
15806TIP3    H268834   5.929   3.885  16.287 -2.3127 -1.4537  0.1660
15807TIP3   OH268835   2.457   6.433   3.074 -0.6422  0.5452 -0.0140
15807TIP3    H168836   2.423   6.460   2.989 -2.4623  0.8716  0.7549
15807TIP3    H268837   2.410   6.488   3.137 -0.1307 -0.4184  1.2671
15808TIP3   OH268838   4.961   5.649   3.125 -0.4520 -0.1493 -0.1350
15808TIP3    H168839   4.886   5.603   3.164 -0.2130 -0.9400 -0.5950
15808TIP3    H268840   4.968   5.730   3.176 -0.1200 -1.1748  1.5198
15809TIP3   OH268841   6.098   3.211   4.860 -0.6025  0.3606 -0.3177
15809TIP3    H168842   6.027   3.146   4.852  1.1624 -1.5252 -1.9031
15809TIP3    H268843   6.061   3.281   4.913 -3.0557 -1.3709  0.4206
15810TIP3   OH268844   0.047   2.878   3.208  0.1423 -0.1412 -0.0527
15810TIP3    H168845   0.084   2.961   3.177  0.1716 -0.2908 -0.4295
15810TIP3    H268846   0.028   2.893   3.300  1.3151 -0.1141  0.2104
15811TIP3   OH268847   0.430   6.118  15.874  0.4393 -0.0940  0.4907
15811TIP3    H168848   0.474   6.202  15.857  0.9846 -0.1908  1.3329
15811TIP3    H268849   0.502   6.055  15.876  0.2077 -0.3330  1.4206
15812TIP3   OH268850   1.356   5.608  16.145  0.4088 -0.0381  0.0356
15812TIP3    H168851   1.380   5.516  16.142  0.0256 -0.2523  2.1436
15812TIP3    H268852   1.261   5.609  16.134  0.3929  0.1013  0.1884
15813TIP3   OH268853   0.445   2.623   5.988  0.2845  0.2646  0.0435
15813TIP3    H168854   0.420   2.533   5.967  1.5488 -0.1690  0.2977
15813TIP3    H268855   0.388   2.648   6.060  0.7817 -0.8048  0.8337
15814TIP3   OH268856   2.128   2.166  15.038  0.3485 -0.1769 -0.1654
15814TIP3    H168857   2.141   2.195  15.128 -1.2472 -0.3189  0.1425
15814TIP3    H268858   2.175   2.083  15.032 -0.1467 -0.5406  0.7730
15815TIP3   OH268859   5.439   1.131  12.553  0.1698 -0.8291 -0.0040
15815TIP3    H168860   5.534   1.138  12.559  0.0645  0.8893  0.2144
15815TIP3    H268861   5.423   1.044  12.518  1.8909 -0.5386 -1.6283
15816TIP3   OH268862   1.536   1.606   4.481  0.2885 -0.2180 -0.0321
15816TIP3    H168863   1.447   1.633   4.504 -0.2137 -1.3768 -0.5479
15816TIP3    H268864   1.559   1.541   4.548  1.3171  1.0934  0.9418
15817TIP3   OH268865   1.440   2.600  12.264 -0.0309 -0.1470 -0.3056
15817TIP3    H168866   1.424   2.671  12.326  2.2738  1.2542 -1.1746
15817TIP3    H268867   1.505   2.545  12.307  2.3394  1.3701 -1.6805
15818TIP3   OH268868   3.800   3.255   4.441 -0.6592  0.0602 -0.1683
15818TIP3    H168869   3.715   3.257   4.485 -0.5811  0.5525 -0.0421
15818TIP3    H268870   3.864   3.273   4.511 -0.4800  0.1156 -0.3465
15819TIP3   OH268871   5.959   5.137  11.154 -0.2091 -0.3199 -0.3061
15819TIP3    H168872   5.865   5.148  11.143 -0.2542  0.7454  0.9394
15819TIP3    H268873   5.979   5.053  11.113 -1.9311 -1.2692  0.7093
15820TIP3   OH268874   0.505   1.832   5.152  0.1557  0.4193 -0.4824
15820TIP3    H168875   0.492   1.793   5.065 -0.1861  1.0963 -0.7393
15820TIP3    H268876   0.582   1.787   5.187 -0.1822 -0.4328 -0.7999
15821TIP3   OH268877   4.911   0.201   5.299 -0.2185 -0.1398  0.0932
15821TIP3    H168878   4.836   0.253   5.328  0.0431  0.8901 -1.0022
15821TIP3    H268879   4.981   0.225   5.360 -0.1828  0.5854 -0.2203
15822TIP3   OH268880   0.625   6.504   5.285 -0.4892 -0.1184 -0.0819
15822TIP3    H168881   0.688   6.569   5.317 -0.3197 -1.0424  1.5917
15822TIP3    H268882   0.541   6.550   5.284 -0.1450  0.5139 -0.2623
15823TIP3   OH268883   1.674   5.346   5.493 -0.1245  0.1851  0.3543
15823TIP3    H168884   1.660   5.256   5.463 -2.3525  0.6582 -0.2001
15823TIP3    H268885   1.605   5.361   5.557  2.0013  0.5882  2.7478
15824TIP3   OH268886   3.293   4.892  16.560 -0.3854  0.3954  0.5830
15824TIP3    H168887   3.255   4.824  16.614 -0.6112  0.1891  0.1736
15824TIP3    H268888   3.328   4.845  16.484 -1.3812  0.8146 -0.1657
15825TIP3   OH268889   3.545   6.676  13.709 -0.1730  0.0822 -0.1794
15825TIP3    H168890   3.568   6.617  13.781  1.7694 -3.1689 -3.1683
15825TIP3    H268891   3.596   6.756  13.726  2.5637 -1.7026  0.6139
15826TIP3   OH268892   1.498   2.766  13.861 -0.7260  0.3077 -0.1259
15826TIP3    H168893   1.561   2.708  13.818  0.2744  1.1691  0.1222
15826TIP3    H268894   1.550   2.815  13.924 -2.2243 -1.2351  2.4672
15827TIP3   OH268895   5.815   6.473   1.909 -0.5160 -0.5391  0.2622
15827TIP3    H168896   5.906   6.466   1.938 -0.4827 -2.1206 -0.1316
15827TIP3    H268897   5.764   6.447   1.985 -0.6610  0.6439  0.5772
15828TIP3   OH268898   0.397   2.462  15.611 -0.6398 -0.0683 -0.1882
15828TIP3    H168899   0.394   2.533  15.546 -2.1824 -0.8047 -0.9740
15828TIP3    H268900   0.367   2.385  15.563 -1.1769 -0.7751  1.2541
15829TIP3   OH268901   4.950   6.721   0.241 -0.2851 -0.4115  0.8117
15829TIP3    H168902   5.029   6.747   0.287 -0.4052 -1.3290  1.5650
15829TIP3    H268903   4.906   6.661   0.301 -0.3378 -1.8241 -0.5839
15830TIP3   OH268904   5.809   2.639  12.595 -0.0213 -0.4078 -0.1166
15830TIP3    H168905   5.802   2.578  12.669  1.6646 -1.2878 -0.6231
15830TIP3    H268906   5.768   2.593  12.522  0.5590 -0.6281 -0.3118
15831TIP3   OH268907   4.100   0.622  10.817 -0.7603  0.1657 -0.2912
15831TIP3    H168908   4.014   0.579  10.807 -0.6282 -0.2637  0.3366
15831TIP3    H268909   4.122   0.610  10.910  0.7340 -1.1812 -0.7757
15832TIP3   OH268910   2.372   2.530   6.389 -0.3030 -0.3054 -0.9113
15832TIP3    H168911   2.441   2.480   6.345 -0.1049  0.3682 -1.3887
15832TIP3    H268912   2.417   2.608   6.423 -0.9002  0.3855 -1.6533
15833TIP3   OH268913   3.137   1.559  10.829 -0.2374 -0.0657 -0.5221
15833TIP3    H168914   3.167   1.468  10.825  0.7928  0.2593 -0.6517
15833TIP3    H268915   3.215   1.610  10.806 -0.8865  0.8346 -0.7496
15834TIP3   OH268916   1.799   0.815   3.568  0.8187  0.0818  0.6679
15834TIP3    H168917   1.855   0.889   3.544 -0.7406  1.0359 -0.2834
15834TIP3    H268918   1.725   0.821   3.508  0.2154 -1.7602  1.1555
15835TIP3   OH268919   2.996   2.758   3.945 -0.3104 -0.2186 -0.0565
15835TIP3    H168920   3.023   2.827   3.885 -0.0069  0.1765  0.5193
15835TIP3    H268921   3.074   2.705   3.959 -0.3295 -0.1993  0.1311
15836TIP3   OH268922   5.206   0.052   0.311 -0.1392 -0.4547 -0.0981
15836TIP3    H168923   5.240  -0.037   0.310  0.1952 -0.3259 -0.7278
15836TIP3    H268924   5.274   0.102   0.357  0.4424 -0.2378 -1.1624
15837TIP3   OH268925   0.449   6.785   4.301 -0.2600 -0.4691  0.6936
15837TIP3    H168926   0.517   6.781   4.235 -1.0371 -1.4060 -0.0752
15837TIP3    H268927   0.428   6.878   4.309  1.8771 -0.0174  1.7922
15838TIP3   OH268928   4.309   3.567   4.055 -0.6962 -0.3075 -0.4281
15838TIP3    H168929   4.378   3.532   4.000  0.1865 -0.1081  0.5085
15838TIP3    H268930   4.291   3.498   4.119 -0.1339  0.2768  0.3863
15839TIP3   OH268931   0.945   4.975   0.624  0.2582 -0.0951  0.1154
15839TIP3    H168932   0.894   4.921   0.684  1.6628 -0.6979  0.8318
15839TIP3    H268933   1.026   4.994   0.672  0.4263  1.4245 -0.6885
15840TIP3   OH268934   3.862   5.156   6.258 -0.2218  0.1633  0.4780
15840TIP3    H168935   3.816   5.218   6.201  0.9988  0.7390  0.0943
15840TIP3    H268936   3.812   5.074   6.249 -1.1575  0.7638  0.0718
15841TIP3   OH268937   0.586   0.125  15.602 -0.4431 -0.8470 -0.1248
15841TIP3    H168938   0.552   0.124  15.692 -0.0636  0.7661  0.0834
15841TIP3    H268939   0.645   0.201  15.601  1.5696 -2.3442 -1.0364
15842TIP3   OH268940   4.896   5.305   1.461  0.1588 -0.2096  0.2857
15842TIP3    H168941   4.977   5.275   1.420 -0.1305 -1.7041  0.7670
15842TIP3    H268942   4.903   5.401   1.460  1.0467 -0.2580 -1.4252
15843TIP3   OH268943   4.891   5.996  14.472 -0.6995 -0.2790  0.3549
15843TIP3    H168944   4.925   6.040  14.395 -1.0362 -3.8130 -2.0256
15843TIP3    H268945   4.964   5.995  14.534  0.0793  1.2543 -0.4893
15844TIP3   OH268946   2.561   3.297   1.969 -0.0317 -0.5340  0.2124
15844TIP3    H168947   2.645   3.325   2.005 -0.9281  0.8934  1.3317
15844TIP3    H268948   2.563   3.326   1.878  0.5297 -0.1477  0.3429
15845TIP3   OH268949   0.821   3.912  13.840 -0.1180 -0.0122  0.1548
15845TIP3    H168950   0.893   3.878  13.788 -0.3165 -1.0039  0.4946
15845TIP3    H268951   0.751   3.928  13.777  0.4328  1.1068 -0.1982
15846TIP3   OH268952   2.335   4.276  16.591 -0.9353  0.4490  0.1930
15846TIP3    H168953   2.332   4.198  16.646  0.0509  0.1379 -0.1741
15846TIP3    H268954   2.362   4.347  16.649 -0.5280  0.2461  0.2562
15847TIP3   OH268955   3.859   5.229  11.941 -0.0993 -0.8086  0.3041
15847TIP3    H168956   3.841   5.154  11.884 -0.4964 -1.2566  1.0042
15847TIP3    H268957   3.941   5.266  11.907 -0.1368 -1.2868 -0.3247
15848TIP3   OH268958   6.462   4.773   4.892 -0.1215 -0.4818  0.5471
15848TIP3    H168959   6.374   4.798   4.918  0.2814 -0.4173  1.9472
15848TIP3    H268960   6.478   4.822   4.811 -0.6223  1.1466  1.3722
15849TIP3   OH268961   4.394   6.059  15.942 -0.1279 -0.2268 -0.8194
15849TIP3    H168962   4.435   6.146  15.940 -0.3478 -0.1305 -1.3982
15849TIP3    H268963   4.307   6.074  15.979  0.7733 -0.6258  1.6080
15850TIP3   OH268964   4.450   0.105  11.731  0.5125  0.2817  0.0430
15850TIP3    H168965   4.446   0.151  11.814  0.9986  0.8320 -0.2283
15850TIP3    H268966   4.414   0.018  11.749  2.1570 -0.1914  1.2271
15851TIP3   OH268967   3.677   6.568  16.195  0.4124  0.1586 -0.3464
15851TIP3    H168968   3.601   6.532  16.149 -1.0727  1.4985  0.9057
15851TIP3    H268969   3.752   6.547  16.140 -1.0285 -0.0832 -2.2949
15852TIP3   OH268970   4.411   5.734  13.597 -0.1798  0.3367  0.3892
15852TIP3    H168971   4.438   5.676  13.669 -0.6105 -0.5046 -0.1127
15852TIP3    H268972   4.492   5.778  13.571  0.6309 -1.6096 -0.6131
15853TIP3   OH268973   2.130   2.256   1.264  0.1043 -0.4312  0.0070
15853TIP3    H168974   2.098   2.253   1.354  1.2691 -0.8058  0.4261
15853TIP3    H268975   2.115   2.347   1.236  1.3861  0.1930  1.2217
15854TIP3   OH268976   3.340   0.222  14.587  0.7172 -0.1710  0.3748
15854TIP3    H168977   3.322   0.235  14.494  1.5459  1.5967  0.4099
15854TIP3    H268978   3.258   0.190  14.624  0.5751 -1.5765 -1.0571
15855TIP3   OH268979   1.403   0.868   1.022  0.1582  0.2328 -0.6984
15855TIP3    H168980   1.373   0.777   1.016 -1.8047  0.8712 -1.1390
15855TIP3    H268981   1.441   0.874   1.109  0.8445 -1.1431 -0.8637
15856TIP3   OH268982   5.876   4.202  13.211  0.4791  0.0281  0.0738
15856TIP3    H168983   5.875   4.261  13.136  2.5522 -1.0129 -0.8404
15856TIP3    H268984   5.897   4.259  13.285 -2.0551  1.1479  0.0249
15857TIP3   OH268985   2.060   1.991  11.357  0.2294  0.0839  0.0369
15857TIP3    H168986   1.972   2.008  11.322 -0.8274 -1.8687  1.5339
15857TIP3    H268987   2.097   1.927  11.297  0.3790  0.4055 -0.2191
15858TIP3   OH268988   6.561   2.984  15.151  0.3329  0.3070 -0.3532
15858TIP3    H168989   6.600   2.966  15.066 -0.6599 -1.9903 -0.4038
15858TIP3    H268990   6.567   3.079  15.161  0.1687  0.6953 -3.1355
15859TIP3   OH268991   5.330   0.775   3.757 -0.0605 -0.0538  0.2900
15859TIP3    H168992   5.406   0.758   3.702  0.3311 -0.8423  1.0628
15859TIP3    H268993   5.266   0.814   3.698  0.3262 -0.9496 -0.7443
15860TIP3   OH268994   3.806   2.037   1.150  0.3210 -0.3655  0.1226
15860TIP3    H168995   3.782   2.093   1.224 -1.6521 -1.4047  0.3361
15860TIP3    H268996   3.756   2.071   1.076  2.2901  0.6756 -0.8253
15861TIP3   OH268997   3.808   0.943   6.774  0.0360 -0.3893 -0.5201
15861TIP3    H168998   3.868   0.881   6.815  0.8848  0.3863 -0.5658
15861TIP3    H268999   3.805   1.017   6.835  1.4645  0.8685 -1.8922
15862TIP3   OH269000   1.267   2.170   4.956  0.3357  0.4790 -0.6443
15862TIP3    H169001   1.289   2.216   5.037 -0.6438  1.4148 -0.9021
15862TIP3    H269002   1.216   2.232   4.905  0.8900 -0.1132 -1.9801
15863TIP3   OH269003   2.575   6.192   2.299  0.0912  0.3758  0.7258
15863TIP3    H169004   2.519   6.261   2.263 -1.2334 -0.3515  1.3265
15863TIP3    H269005   2.545   6.180   2.389  2.1801  0.9261  1.5688
15864TIP3   OH269006   3.501   2.429  15.044  0.1389 -0.3950  1.0449
15864TIP3    H169007   3.474   2.340  15.026  2.2274 -0.8867 -0.0061
15864TIP3    H269008   3.528   2.464  14.959 -0.7921  1.3037  1.4116
15865TIP3   OH269009   0.894   2.625  11.575  0.5848 -0.1021  0.1561
15865TIP3    H169010   0.930   2.643  11.661 -1.2423 -0.5002  1.0539
15865TIP3    H269011   0.882   2.530  11.573  0.0566 -0.0340 -0.3033
15866TIP3   OH269012   3.187   6.347  15.962 -0.1839 -0.0942 -0.5541
15866TIP3    H169013   3.104   6.366  16.006  0.1731  0.7754 -0.2364
15866TIP3    H269014   3.228   6.280  16.017  0.5974  1.5113  0.9173
15867TIP3   OH269015   6.308   4.678   6.147 -0.4992 -0.6068  0.1768
15867TIP3    H169016   6.385   4.719   6.106  0.7290 -1.5868  1.4413
15867TIP3    H269017   6.235   4.735   6.122  0.5964  0.2565 -1.1954
15868TIP3   OH269018   6.760   1.856  13.486 -0.3723  0.2470 -0.0848
15868TIP3    H169019   6.772   1.778  13.541 -1.5772 -0.1543 -0.3618
15868TIP3    H269020   6.834   1.913  13.509  0.4142 -0.8759  0.2851
15869TIP3   OH269021   4.912   3.568   2.320 -0.0194 -0.0613  0.1866
15869TIP3    H169022   4.870   3.483   2.313  1.3882 -0.8190  0.5203
15869TIP3    H269023   4.847   3.623   2.363 -0.5347 -1.2943  1.0433
15870TIP3   OH269024   4.190   5.276   2.312  0.1347  0.1989 -0.1423
15870TIP3    H169025   4.269   5.299   2.362  1.7699 -0.9076 -2.0590
15870TIP3    H269026   4.117   5.309   2.365  1.8330  0.6070  2.0662
15871TIP3   OH269027   5.261   4.378   3.994  0.1403 -0.3060  0.0455
15871TIP3    H169028   5.168   4.396   3.989  0.1065 -0.5900 -0.4970
15871TIP3    H269029   5.302   4.463   4.012 -0.1767 -0.0737 -0.3105
15872TIP3   OH269030   6.751   2.336   1.190  0.8085  0.4474  0.1516
15872TIP3    H169031   6.685   2.366   1.252  1.7424 -0.0860  1.4598
15872TIP3    H269032   6.724   2.373   1.106 -1.2225  0.0905  0.6032
15873TIP3   OH269033   4.533   5.267   4.369  0.3839 -0.1354 -1.1137
15873TIP3    H169034   4.546   5.359   4.390  1.1859 -0.2044 -1.2683
15873TIP3    H269035   4.591   5.251   4.295  1.7300 -1.2377  0.1266
15874TIP3   OH269036   5.378   4.623  14.483 -0.4419  0.1759  0.3406
15874TIP3    H169037   5.354   4.607  14.575  1.1097  0.3320  0.8054
15874TIP3    H269038   5.435   4.700  14.487  0.2556 -0.2764 -0.6615
15875TIP3   OH269039   4.815   2.278   0.788  0.4523 -0.5680  0.0108
15875TIP3    H169040   4.892   2.334   0.776  0.7212 -1.0653 -0.6144
15875TIP3    H269041   4.833   2.200   0.736 -0.8046 -0.3796 -0.7533
15876TIP3   OH269042   2.841   5.734  15.702  0.1125 -0.7710 -0.1794
15876TIP3    H169043   2.812   5.645  15.685  0.4616 -1.0194  0.4872
15876TIP3    H269044   2.761   5.783  15.719 -0.1909 -0.6625 -1.7927
15877TIP3   OH269045   2.986   0.794  11.727  0.8244 -0.1419 -0.0927
15877TIP3    H169046   2.927   0.721  11.710 -0.5630  0.9016  0.0750
15877TIP3    H269047   2.994   0.839  11.643 -0.4153  0.9839  0.3625
15878TIP3   OH269048   3.170   5.673  13.841 -0.2536 -0.6149  0.4654
15878TIP3    H169049   3.102   5.607  13.855 -0.4253 -0.2425  1.4810
15878TIP3    H269050   3.128   5.755  13.866 -0.0195 -0.1121 -0.7059
15879TIP3   OH269051   4.976   2.447   4.413  0.2735  0.5739  0.0803
15879TIP3    H169052   4.906   2.417   4.355 -0.4549 -0.4929  1.4506
15879TIP3    H269053   5.038   2.374   4.416 -0.0116  0.3645  1.1222
15880TIP3   OH269054   4.838   4.914  13.154 -0.5907  0.0186  0.3696
15880TIP3    H169055   4.792   4.926  13.237 -0.3370  1.7950  0.2891
15880TIP3    H269056   4.852   5.003  13.121  0.4364 -0.5973 -0.9592
15881TIP3   OH269057   0.382   3.251  12.895  0.3821 -0.2289  0.1438
15881TIP3    H169058   0.309   3.310  12.878  0.7358 -0.0108 -0.6261
15881TIP3    H269059   0.374   3.183  12.828  0.7502 -0.3360  0.2088
15882TIP3   OH269060   4.497   1.752  17.160 -0.4588 -0.4511  0.2073
15882TIP3    H169061   4.493   1.833  17.110 -1.3205 -0.2834  0.5301
15882TIP3    H269062   4.481   1.779  17.251  1.7075 -0.6533  0.7077
15883TIP3   OH269063   6.563   6.030  12.262 -0.0100 -0.1909 -0.8112
15883TIP3    H169064   6.500   5.959  12.264 -1.9997  1.4795  0.0910
15883TIP3    H269065   6.598   6.034  12.352  2.0590 -1.5898 -1.4833
15884TIP3   OH269066   3.639   5.998   4.553  0.2058  0.4753  0.7320
15884TIP3    H169067   3.628   6.092   4.539 -0.7743  0.2038 -0.4801
15884TIP3    H269068   3.692   5.968   4.480  0.3368  0.0514  0.9976
15885TIP3   OH269069   3.159   1.995   5.768 -0.2774  0.3931 -0.3703
15885TIP3    H169070   3.202   1.913   5.794 -0.4769  0.4565  0.1655
15885TIP3    H269071   3.232   2.055   5.752 -0.1595  0.3905  0.1644
15886TIP3   OH269072   3.360   5.224  14.193 -0.1408  0.0678  0.5803
15886TIP3    H169073   3.415   5.153  14.159 -0.5285  0.5866 -1.2254
15886TIP3    H269074   3.353   5.205  14.287 -1.3685 -3.0820 -0.0025
15887TIP3   OH269075   5.816   4.688   0.703 -0.0742  0.2236  0.4133
15887TIP3    H169076   5.729   4.670   0.739  0.5432  1.2991  2.5806
15887TIP3    H269077   5.812   4.779   0.673 -0.1939 -0.2737 -1.2153
15888TIP3   OH269078   1.797   1.441  10.752 -0.1152  0.5946 -0.1650
15888TIP3    H169079   1.717   1.404  10.789  0.3841 -0.4330 -0.0944
15888TIP3    H269080   1.847   1.469  10.828  0.5697 -0.8127 -0.0744
15889TIP3   OH269081   5.537   1.797   6.091  0.0484  0.5804  0.3538
15889TIP3    H169082   5.457   1.744   6.086 -0.1604  0.9133  0.1504
15889TIP3    H269083   5.562   1.812   6.000  0.5362  0.1932  0.4197
15890TIP3   OH269084   4.663   3.817  15.367 -0.1514  0.0894  0.0861
15890TIP3    H169085   4.697   3.775  15.288  0.1045  0.8647 -0.2312
15890TIP3    H269086   4.570   3.831  15.349 -0.0975  0.2477 -0.0779
15891TIP3   OH269087   4.870   1.362   2.322 -0.1826 -0.6653 -0.5438
15891TIP3    H169088   4.788   1.412   2.326 -1.3263 -2.4442 -0.7003
15891TIP3    H269089   4.883   1.329   2.411  1.5538  1.3065  0.0232
15892TIP3   OH269090   3.290   1.338  12.507  0.3688  0.5947 -1.0296
15892TIP3    H169091   3.302   1.417  12.455 -1.8927  1.1959 -0.7282
15892TIP3    H269092   3.262   1.370  12.593 -0.2643 -0.5224 -0.8079
15893TIP3   OH269093   4.594   4.850  16.653  0.4082  0.0229  0.3637
15893TIP3    H169094   4.641   4.872  16.733  0.7256  0.0506  0.1684
15893TIP3    H269095   4.506   4.826  16.683  0.3131  0.7161  0.6574
15894TIP3   OH269096   5.070   2.786   0.117 -0.0230 -0.4557 -0.0533
15894TIP3    H169097   5.144   2.838   0.147  0.0053  0.1834 -1.1806
15894TIP3    H269098   5.090   2.697   0.145  0.0071  0.0870  1.7624
15895TIP3   OH269099   5.626   3.824  11.758  0.4426  0.2297 -0.6001
15895TIP3    H169100   5.613   3.764  11.831 -0.0252 -0.1644 -0.9952
15895TIP3    H269101   5.541   3.826  11.714  0.8155  0.1611 -1.3475
15896TIP3   OH269102   1.239   1.943   2.418  0.4145  0.0709  0.2228
15896TIP3    H169103   1.332   1.954   2.398  0.0147  0.8594 -1.3568
15896TIP3    H269104   1.194   1.955   2.334 -1.1175 -0.3610  0.9351
15897TIP3   OH269105   0.906   4.682  14.600 -0.5507 -0.1304  0.0401
15897TIP3    H169106   0.829   4.633  14.571 -0.4908  0.1800 -0.6602
15897TIP3    H269107   0.979   4.620  14.590 -0.7110 -0.4429  0.7599
15898TIP3   OH269108   6.306   4.445  11.954 -0.5421 -0.2610 -0.1282
15898TIP3    H169109   6.275   4.410  11.870  1.5120 -1.5047 -0.4404
15898TIP3    H269110   6.275   4.382  12.019 -1.6185  0.3848  0.0139
15899TIP3   OH269111   6.661   1.165  12.754 -0.2308 -0.2735 -0.3463
15899TIP3    H169112   6.668   1.250  12.709  2.0658 -1.2177 -1.9165
15899TIP3    H269113   6.724   1.171  12.826 -0.5785 -0.4019 -0.0297
15900TIP3   OH269114   1.161   4.693  12.691  0.0373 -0.9201  0.0752
15900TIP3    H169115   1.164   4.696  12.595  1.9872 -2.1096  0.0374
15900TIP3    H269116   1.197   4.607  12.713  0.3814 -0.3530  1.9070
15901TIP3   OH269117   0.114   3.672  16.482 -0.3117  0.1557 -0.5772
15901TIP3    H169118   0.037   3.630  16.520  0.1832 -1.1725 -0.9951
15901TIP3    H269119   0.103   3.765  16.502 -1.7420 -0.0844 -0.1614
15902TIP3   OH269120   5.418   4.763   4.440 -0.2514  0.4577 -0.0669
15902TIP3    H169121   5.470   4.779   4.361  0.4867 -1.5113 -0.0109
15902TIP3    H269122   5.362   4.841   4.447 -0.6717  0.4824 -2.7777
15903TIP3   OH269123   1.781   1.988   3.191  0.4744  0.6353 -0.6551
15903TIP3    H169124   1.844   2.043   3.239  1.0626 -2.4534  2.5824
15903TIP3    H269125   1.711   1.971   3.255  0.8301 -3.0286 -1.0424
15904TIP3   OH269126   1.875   6.784   1.931  0.2969  0.1338 -0.9467
15904TIP3    H169127   1.944   6.849   1.918  0.4832  0.4584  1.2619
15904TIP3    H269128   1.905   6.731   2.005 -1.7026  0.2053 -0.0127
15905TIP3   OH269129   6.569   0.241   1.109 -0.0621 -0.1744 -0.0457
15905TIP3    H169130   6.496   0.276   1.159 -0.5470  2.2635 -2.2401
15905TIP3    H269131   6.548   0.148   1.096 -0.1279 -0.8158  3.6467
15906TIP3   OH269132   5.980   3.806  11.277  0.2613  0.1668 -0.4841
15906TIP3    H169133   5.999   3.900  11.266 -1.6231  0.4861 -1.2335
15906TIP3    H269134   6.042   3.763  11.218  0.2505  1.0112 -1.1407
15907TIP3   OH269135   5.272   2.191  16.356  0.3505  0.7909  0.0673
15907TIP3    H169136   5.274   2.147  16.442 -0.3299  1.7371  0.5777
15907TIP3    H269137   5.328   2.268  16.368  0.5424  0.7324 -0.4534
15908TIP3   OH269138   0.769   0.667   0.331  0.3594  0.1452  0.5025
15908TIP3    H169139   0.685   0.621   0.339  0.8736 -0.3843  4.9085
15908TIP3    H269140   0.747   0.759   0.347 -0.0490  1.1908 -4.3807
15909TIP3   OH269141   3.554   0.177   0.924  0.3162  0.0971 -1.1155
15909TIP3    H169142   3.550   0.272   0.916  2.5467  0.2755 -0.7592
15909TIP3    H269143   3.486   0.145   0.865  0.6605  1.8966 -2.5844
15910TIP3   OH269144   2.251   3.461   5.427  0.0143 -0.0898  0.7156
15910TIP3    H169145   2.230   3.483   5.336 -0.6008 -0.2256  0.8216
15910TIP3    H269146   2.342   3.487   5.438 -0.4590  1.7173  0.6170
15911TIP3   OH269147   5.689   1.909  13.438 -0.0353  0.2440 -0.5847
15911TIP3    H169148   5.635   1.916  13.359 -1.9346 -1.5444  0.4637
15911TIP3    H269149   5.626   1.912  13.510  1.5899  1.1677  0.8552
15912TIP3   OH269150   4.183   5.053   4.045  0.8002 -0.4085  0.0967
15912TIP3    H169151   4.152   5.009   4.124 -2.2718 -0.3624 -0.9295
15912TIP3    H269152   4.215   5.138   4.074 -2.0812  0.4209  1.2187
15913TIP3   OH269153   6.177   4.246   3.371  0.1347  0.3903  0.0688
15913TIP3    H169154   6.094   4.221   3.330  0.4929 -1.3468  0.3176
15913TIP3    H269155   6.220   4.302   3.306  0.1819 -1.3566 -1.4960
15914TIP3   OH269156   1.791   3.586   3.067 -0.8052  0.1733  0.4774
15914TIP3    H169157   1.746   3.587   3.151 -1.3316 -1.6073  0.2706
15914TIP3    H269158   1.873   3.632   3.082 -0.9811  0.0410  1.9206
15915TIP3   OH269159   0.287   4.553   3.974  0.1335  0.0978 -0.5936
15915TIP3    H169160   0.315   4.567   4.065  0.5719 -1.4820 -0.4588
15915TIP3    H269161   0.368   4.552   3.924  0.0464 -0.7728 -0.7348
15916TIP3   OH269162   4.492   1.321   2.784  0.6104 -0.0384  0.0799
15916TIP3    H169163   4.512   1.232   2.753 -1.4180  0.2069 -2.2372
15916TIP3    H269164   4.539   1.328   2.867  1.7405 -2.8700 -0.1860
15917TIP3   OH269165   2.989   4.478   3.008  0.4920  0.4527  0.2813
15917TIP3    H169166   3.023   4.437   2.929 -0.6141 -0.8336  0.4354
15917TIP3    H269167   3.040   4.439   3.079 -1.7556 -2.2704  0.6157
15918TIP3   OH269168   6.295   6.448   2.656 -0.0605 -0.1743  0.1465
15918TIP3    H169169   6.242   6.491   2.589  0.4816 -0.6424 -0.6064
15918TIP3    H269170   6.382   6.439   2.616  1.0165  1.7934  1.8352
15919TIP3   OH269171   5.980   5.986  11.291 -0.3005 -0.4031  0.1661
15919TIP3    H169172   5.988   5.929  11.214  0.1569 -0.2474  0.1005
15919TIP3    H269173   6.047   5.955  11.351 -0.7345 -0.6013  0.5583
15920TIP3   OH269174   4.020   5.052   3.275  0.2221 -0.5177  0.0207
15920TIP3    H169175   4.088   4.991   3.246  0.0857 -0.0245 -1.3931
15920TIP3    H269176   4.065   5.136   3.283  0.0445 -0.4490  0.3496
15921TIP3   OH269177   4.445   2.674   3.673  0.2580  0.4358 -0.3612
15921TIP3    H169178   4.357   2.636   3.677 -0.3120  1.3492 -2.6099
15921TIP3    H269179   4.492   2.619   3.610  0.5292  1.3692 -0.9861
15922TIP3   OH269180   5.023   6.295   4.480 -0.6801 -0.3131 -0.4623
15922TIP3    H169181   4.930   6.303   4.456 -0.1070 -0.4244 -2.9634
15922TIP3    H269182   5.046   6.206   4.452  0.3984  0.0234 -0.6553
15923TIP3   OH269183   2.745   2.060   1.894  0.4426  0.0012 -0.1888
15923TIP3    H169184   2.702   1.976   1.903 -0.1141  0.4562  1.6360
15923TIP3    H269185   2.674   2.123   1.878  0.7033  0.3418 -0.0349
15924TIP3   OH269186   5.505   6.463  13.547 -0.9465  0.3049  0.4014
15924TIP3    H169187   5.577   6.443  13.606 -0.6196 -0.9260 -0.3806
15924TIP3    H269188   5.470   6.378  13.520 -2.1742  0.8569  0.1266
15925TIP3   OH269189   2.933   1.799  16.359  0.4594 -0.2039  0.2179
15925TIP3    H169190   3.005   1.857  16.336  0.8297 -0.6637  0.2037
15925TIP3    H269191   2.879   1.850  16.419  0.9434  0.0518  0.4373
15926TIP3   OH269192   5.774   6.128  14.602 -0.1230  0.6664 -0.0621
15926TIP3    H169193   5.807   6.060  14.660 -1.8637 -0.9733 -0.8820
15926TIP3    H269194   5.764   6.085  14.517 -2.0884  1.6473 -0.3980
15927TIP3   OH269195   1.775   0.673   2.851 -0.9174 -0.5690 -0.4090
15927TIP3    H169196   1.686   0.666   2.887 -0.9245  0.1080 -0.2767
15927TIP3    H269197   1.832   0.663   2.927 -0.8553 -1.7263 -0.6005
15928TIP3   OH269198   4.967   5.527  11.728 -0.4027  0.1673 -0.8212
15928TIP3    H169199   4.872   5.523  11.729 -0.4572  0.7847 -1.6513
15928TIP3    H269200   4.986   5.619  11.708  0.4040  0.7618  2.2604
15929TIP3   OH269201   2.936   2.505   5.429 -0.0852  0.3939  0.1815
15929TIP3    H169202   3.016   2.463   5.461  0.0774  0.2183 -0.4320
15929TIP3    H269203   2.955   2.599   5.436  0.6021  0.3590 -0.9486
15930TIP3   OH269204   5.142   0.658  12.301  0.1675  1.2325  0.6963
15930TIP3    H169205   5.182   0.664  12.388 -1.7722  2.1508  1.6074
15930TIP3    H269206   5.109   0.747  12.284  0.2657  0.9988 -0.8704
15931TIP3   OH269207   0.293   3.670   5.464  0.1397 -0.3441  0.1598
15931TIP3    H169208   0.360   3.737   5.451 -0.5904  0.1849 -1.1075
15931TIP3    H269209   0.339   3.598   5.508  0.9343  0.9741  1.5761
15932TIP3   OH269210   1.355   0.861   5.978 -0.2270  0.3267 -0.3531
15932TIP3    H169211   1.378   0.785   5.925 -2.8122  0.1326 -1.3421
15932TIP3    H269212   1.332   0.824   6.063 -1.8770 -0.0871 -0.9544
15933TIP3   OH269213   2.511   0.479   2.916  0.6237 -0.4041  0.0931
15933TIP3    H169214   2.526   0.396   2.962 -0.5405 -0.1703  0.9350
15933TIP3    H269215   2.450   0.527   2.972  1.2480  1.0239 -0.3934
15934TIP3   OH269216   5.342   5.889  12.996 -0.0654  0.4837  0.2764
15934TIP3    H169217   5.401   5.831  13.045 -1.3618 -1.2728 -0.1637
15934TIP3    H269218   5.295   5.938  13.064 -0.7175 -0.7923  0.7809
15935TIP3   OH269219   4.572   3.393   2.607  1.2666 -0.3357 -0.7472
15935TIP3    H169220   4.576   3.306   2.648 -3.0279  0.5130  2.1782
15935TIP3    H269221   4.634   3.446   2.657 -0.1669 -0.5505  1.3943
15936TIP3   OH269222   5.916   2.817  12.767  0.3830  0.9478 -0.0778
15936TIP3    H169223   5.903   2.771  12.684 -0.0680  0.0578  0.4715
15936TIP3    H269224   5.837   2.798  12.817  0.7995  1.2077  0.6827
15937TIP3   OH269225   3.423   5.876  14.516  0.4361 -0.2785 -0.8763
15937TIP3    H169226   3.498   5.933  14.532  0.3331 -0.4731  0.3879
15937TIP3    H269227   3.351   5.935  14.498 -0.1089  0.1534  2.2149
15938TIP3   OH269228   6.567   0.234   6.400 -0.0286  0.3467  0.1817
15938TIP3    H169229   6.483   0.253   6.443 -0.8530 -1.5873 -0.4759
15938TIP3    H269230   6.559   0.275   6.314 -0.4332 -0.0952  0.0055
15939TIP3   OH269231   6.626   2.708  13.229 -0.6515 -0.1431  0.1468
15939TIP3    H169232   6.642   2.769  13.300 -0.6124 -1.1971  1.0748
15939TIP3    H269233   6.575   2.637  13.269  0.1553 -1.2063 -0.6353
15940TIP3   OH269234   6.072   1.987  13.138 -0.3788 -0.2460 -0.8791
15940TIP3    H169235   6.143   1.924  13.146 -0.0006 -0.0630 -2.3946
15940TIP3    H269236   6.001   1.950  13.190  1.2316  0.2634  1.8431
15941TIP3   OH269237   4.626   4.309  16.751 -0.4206 -0.1322 -0.2492
15941TIP3    H169238   4.571   4.270  16.683 -1.8962  0.4704  0.5569
15941TIP3    H269239   4.662   4.388  16.710  0.8794 -1.1573 -1.1806
15942TIP3   OH269240   3.898   2.048  15.057  0.2538  0.1036 -0.2888
15942TIP3    H169241   3.846   2.036  15.136  2.4978  1.1702  1.4655
15942TIP3    H269242   3.844   2.103  15.000  0.4457  3.7155  2.6752
15943TIP3   OH269243   1.824   4.669   3.440 -0.1173 -0.3233 -0.1243
15943TIP3    H169244   1.733   4.674   3.469 -1.2812 -3.3994 -2.6856
15943TIP3    H269245   1.870   4.625   3.512 -0.4297  1.7848  1.4405
15944TIP3   OH269246   2.911   6.528   0.084  0.4515  0.8042 -0.1441
15944TIP3    H169247   2.875   6.552  -0.002 -0.5185 -1.8529 -0.5754
15944TIP3    H269248   2.956   6.445   0.068  1.0276  0.7093  1.7681
15945TIP3   OH269249   3.890   1.162   2.073 -0.2396  0.4782  0.6094
15945TIP3    H169250   3.943   1.083   2.061  0.0071  0.9371 -1.9424
15945TIP3    H269251   3.951   1.235   2.062 -1.0895  1.0015 -1.0900
15946TIP3   OH269252   2.885   6.472   0.471 -0.8260  0.4011  0.0511
15946TIP3    H169253   2.921   6.402   0.525  1.0710  1.1339 -0.2016
15946TIP3    H269254   2.858   6.428   0.390  2.4520  0.1746 -1.0586
15947TIP3   OH269255   2.365   6.644  11.229  0.2552  0.4615 -0.3692
15947TIP3    H169256   2.319   6.679  11.152 -0.5926  2.3776  0.9399
15947TIP3    H269257   2.295   6.620  11.289  0.9053  1.7124  0.9348
15948TIP3   OH269258   2.508   1.741  11.758  0.2944  0.1112  0.7476
15948TIP3    H169259   2.438   1.774  11.814 -0.8230  0.1509 -0.6218
15948TIP3    H269260   2.492   1.647  11.753 -1.0099  0.3818 -1.2724
15949TIP3   OH269261   4.728   6.328   5.749  0.6059  0.4075 -0.6669
15949TIP3    H169262   4.705   6.418   5.772 -2.4538 -0.2377 -0.7484
15949TIP3    H269263   4.701   6.319   5.658 -0.2100 -0.8795 -0.3248
15950TIP3   OH269264   6.570   1.134   0.350 -0.1107 -0.2711 -0.4550
15950TIP3    H169265   6.526   1.076   0.288 -1.6040 -0.2030  0.4996
15950TIP3    H269266   6.516   1.213   0.350  0.6117  0.2311 -0.0175
15951TIP3   OH269267   5.928   6.169  10.919 -0.5596  0.4726  0.3794
15951TIP3    H169268   6.012   6.144  10.956 -1.4629 -1.6314  1.2195
15951TIP3    H269269   5.947   6.245  10.864  2.0542 -0.5265 -0.2635
15952TIP3   OH269270   0.893   2.143   1.395 -0.4213 -0.4043 -0.1746
15952TIP3    H169271   0.935   2.229   1.388 -0.7353 -0.3718 -2.6015
15952TIP3    H269272   0.804   2.161   1.425 -0.3233  0.0638 -0.1666
15953TIP3   OH269273   1.446   1.103  16.216 -0.5069  0.1925  0.5153
15953TIP3    H169274   1.480   1.177  16.266 -0.1332  0.0438  0.4800
15953TIP3    H269275   1.352   1.102  16.237 -0.5302  0.7229  0.4527
15954TIP3   OH269276   6.344   2.267   1.493 -0.0849 -0.4055 -0.2168
15954TIP3    H169277   6.263   2.227   1.463  0.4974 -0.5874 -1.6285
15954TIP3    H269278   6.398   2.276   1.414  0.4053  1.7887  0.2876
15955TIP3   OH269279   4.906   3.509   0.573  0.1337 -0.1437 -0.7498
15955TIP3    H169280   4.843   3.500   0.501  1.6546 -0.5196 -2.0944
15955TIP3    H269281   4.888   3.434   0.630 -0.3704 -0.4845 -1.3449
15956TIP3   OH269282   0.498   6.591   1.826 -0.2545  0.2966  0.1573
15956TIP3    H169283   0.531   6.515   1.777 -2.7083 -0.8297  0.1362
15956TIP3    H269284   0.508   6.664   1.765 -0.4093 -0.5195 -0.8902
15957TIP3   OH269285   3.710   1.256  11.702 -0.1704  0.1476  0.0834
15957TIP3    H169286   3.804   1.245  11.715  0.1406  1.3726 -1.0093
15957TIP3    H269287   3.671   1.222  11.783  1.3140  1.4413  1.3938
15958TIP3   OH269288   1.516   1.496   4.734 -0.4889  0.5821 -0.2775
15958TIP3    H169289   1.473   1.568   4.780 -1.7777 -0.6208  0.4666
15958TIP3    H269290   1.588   1.470   4.792 -2.1094 -0.9337  1.1574
15959TIP3   OH269291   4.223   6.444   1.691 -0.0590 -0.0764 -0.3980
15959TIP3    H169292   4.184   6.432   1.604 -2.0257 -0.9423  0.5492
15959TIP3    H269293   4.149   6.466   1.748  0.1670 -4.5668  2.0458
15960TIP3   OH269294   2.110   6.033   2.067  0.3552 -0.1437  0.5561
15960TIP3    H169295   2.136   6.010   2.157  1.7241  0.8413  0.4549
15960TIP3    H269296   2.186   6.080   2.033 -0.0277 -0.7624 -1.2337
15961TIP3   OH269297   3.903   2.289   3.179  0.6049 -0.6149 -0.1488
15961TIP3    H169298   3.836   2.352   3.206  0.0458 -1.6857  1.0630
15961TIP3    H269299   3.884   2.210   3.230  1.0606 -1.9132 -1.8827
15962TIP3   OH269300   1.334   5.962  17.171 -0.2448 -0.1499 -0.5416
15962TIP3    H169301   1.425   5.972  17.140  0.4100 -0.0209  1.3172
15962TIP3    H269302   1.283   6.018  17.113  0.9168  0.1115 -1.3567
15963TIP3   OH269303   2.962   4.878   0.916  0.4064  0.3776 -0.4313
15963TIP3    H169304   3.030   4.817   0.945 -1.3284 -1.0763  0.8590
15963TIP3    H269305   2.912   4.828   0.851  0.6720  1.4958 -1.5185
15964TIP3   OH269306   1.689   1.428   4.962 -0.5339  0.2654 -0.4369
15964TIP3    H169307   1.641   1.354   4.997 -0.8301  0.6523 -0.0110
15964TIP3    H269308   1.774   1.392   4.935 -0.2497 -0.0171  0.7865
15965TIP3   OH269309   6.221   3.481  11.914 -0.0501  0.3165  0.7506
15965TIP3    H169310   6.165   3.500  11.839  1.4165  0.1761 -0.4400
15965TIP3    H269311   6.301   3.445  11.875  0.5486 -0.2456  2.4274
15966TIP3   OH269312   4.016   0.100   3.347 -0.0040  0.7250  0.4869
15966TIP3    H169313   3.981   0.188   3.332  0.8868  0.9861 -0.0788
15966TIP3    H269314   4.076   0.085   3.275 -0.6759 -0.6428  0.1840
15967TIP3   OH269315   0.040   4.434   3.194  0.4827  0.3834  0.0779
15967TIP3    H169316   0.096   4.501   3.154 -0.2046  0.3078 -1.0573
15967TIP3    H269317  -0.006   4.480   3.264  1.1189  0.7204  0.2872
15968TIP3   OH269318   4.721   0.564   6.309 -0.4240  0.3838 -0.0021
15968TIP3    H169319   4.676   0.491   6.267 -0.1818 -0.0830  0.5366
15968TIP3    H269320   4.652   0.611   6.356 -0.6198  0.6494 -0.5483
15969TIP3   OH269321   4.924   5.486   2.111 -0.4844 -0.2113  0.1108
15969TIP3    H169322   4.873   5.461   2.188  0.8882 -0.3885  1.0190
15969TIP3    H269323   4.876   5.451   2.036 -0.7963 -1.8622  1.0455
15970TIP3   OH269324   5.377   4.185   6.257  0.2583  0.4857 -0.4423
15970TIP3    H169325   5.468   4.159   6.273 -0.0111 -0.6637 -0.7099
15970TIP3    H269326   5.332   4.104   6.234 -0.7016  1.1457 -0.9637
15971TIP3   OH269327   5.874   1.065   0.935 -0.1725  0.2046  0.2132
15971TIP3    H169328   5.832   1.084   0.851  2.3120  1.9113 -0.7659
15971TIP3    H269329   5.930   1.140   0.952  1.1712 -1.1393  2.2661
15972TIP3   OH269330   6.522   5.529  12.842 -0.2599 -0.2409  0.2857
15972TIP3    H169331   6.590   5.463  12.856  0.8625  0.3340 -2.0753
15972TIP3    H269332   6.442   5.478  12.827  0.1582 -1.0019  0.5961
15973TIP3   OH269333   3.903   5.696   0.109  0.0509  0.1547 -0.2337
15973TIP3    H169334   3.862   5.741   0.036  0.8202 -0.7011 -1.2263
15973TIP3    H269335   3.996   5.713   0.099  0.1128  0.6375  0.9866
15974TIP3   OH269336   5.182   0.287   5.846  0.5021  0.8513  0.7074
15974TIP3    H169337   5.120   0.214   5.848 -0.1871  1.3798 -0.4275
15974TIP3    H269338   5.243   0.269   5.917 -0.4711 -0.1128  1.3178
15975TIP3   OH269339   6.430   0.236  12.707  0.0125 -0.1688 -0.0758
15975TIP3    H169340   6.457   0.151  12.674 -0.7804 -1.4448  2.2817
15975TIP3    H269341   6.497   0.258  12.773  0.1313  0.9733 -0.5583
15976TIP3   OH269342   4.785   1.277  16.363 -0.0220 -0.2176 -0.4627
15976TIP3    H169343   4.808   1.355  16.415 -0.3186 -1.1454  1.1443
15976TIP3    H269344   4.848   1.278  16.291  1.0124  0.6770  0.3927
15977TIP3   OH269345   0.317   4.145   1.720  0.3331 -0.3437 -0.2903
15977TIP3    H169346   0.369   4.114   1.646  1.2047 -0.5396  0.3952
15977TIP3    H269347   0.375   4.138   1.796  0.4422  2.4372  0.0143
15978TIP3   OH269348   3.477   1.596   2.801 -0.4688  0.0634 -0.0074
15978TIP3    H169349   3.533   1.651   2.857 -0.7031 -0.9816  1.3026
15978TIP3    H269350   3.404   1.571   2.857 -0.3136 -1.6623 -0.5195
15979TIP3   OH269351   3.565   2.815   0.175  0.2771  0.4063  0.2972
15979TIP3    H169352   3.475   2.849   0.181  0.2260  0.7375 -1.7557
15979TIP3    H269353   3.570   2.749   0.244 -0.9414  1.6490  1.6776
15980TIP3   OH269354   4.130   0.404  16.659  0.5779 -0.1884 -0.3704
15980TIP3    H169355   4.054   0.448  16.698  0.8942  0.2865 -0.2730
15980TIP3    H269356   4.137   0.321  16.706  0.1727 -0.1974 -0.3238
15981TIP3   OH269357   5.743   5.474  14.737 -0.2197 -0.2689 -0.2157
15981TIP3    H169358   5.745   5.557  14.688  0.5993  0.7018  1.3637
15981TIP3    H269359   5.652   5.466  14.766 -0.2100  0.3136 -0.0064
15982TIP3   OH269360   0.847   1.497  13.700 -0.3996 -0.5129 -0.0258
15982TIP3    H169361   0.881   1.434  13.763 -0.2634  0.0549  0.4803
15982TIP3    H269362   0.795   1.558  13.752 -0.5945 -0.2493 -0.5157
15983TIP3   OH269363   4.422   0.546  12.745  0.1784  0.2191 -0.0180
15983TIP3    H169364   4.430   0.471  12.687 -2.1569  0.7265 -1.1088
15983TIP3    H269365   4.376   0.512  12.821  0.7454  0.1823  0.3195
15984TIP3   OH269366   6.119   2.422   4.372  0.1870  0.0765  0.5608
15984TIP3    H169367   6.093   2.514   4.365 -0.0119  0.1714  2.1348
15984TIP3    H269368   6.112   2.403   4.466  2.4540 -0.8869  0.5880
15985TIP3   OH269369   5.946   5.475  15.789  0.0267  0.1839 -0.4880
15985TIP3    H169370   6.018   5.537  15.773  0.3592 -0.6057 -2.3207
15985TIP3    H269371   5.912   5.456  15.702 -0.0618 -2.1954  0.0102
15986TIP3   OH269372   5.050   6.480   6.236 -0.4567  0.0196  0.3516
15986TIP3    H169373   5.137   6.519   6.246  0.2095 -1.2207 -0.3468
15986TIP3    H269374   5.042   6.419   6.309  0.6562 -2.2889 -1.3478
15987TIP3   OH269375   5.446   3.533  13.337  0.1322 -0.4670  1.0369
15987TIP3    H169376   5.536   3.509  13.316  0.5852  1.1204  0.9820
15987TIP3    H269377   5.449   3.628  13.350 -1.8822 -0.0430 -0.8543
15988TIP3   OH269378   1.136   2.531  14.381 -0.3431  0.5422  0.0814
15988TIP3    H169379   1.074   2.503  14.448 -0.7846 -0.7203 -0.8187
15988TIP3    H269380   1.090   2.601  14.334  0.5076  2.4604  1.9150
15989TIP3   OH269381   6.286   3.169  14.991 -0.1116 -0.2365  0.1491
15989TIP3    H169382   6.279   3.264  15.006  1.4022 -0.2153  0.9550
15989TIP3    H269383   6.380   3.152  14.990 -0.3645 -1.8156  0.5051
15990TIP3   OH269384   0.490   0.283  14.344  0.5336 -0.3435  0.7102
15990TIP3    H169385   0.398   0.273  14.368  0.1648  1.8228  0.4492
15990TIP3    H269386   0.537   0.290  14.427  0.0400  1.3627  0.8822
15991TIP3   OH269387   0.006   5.423  12.803  0.1809  0.4714  0.1225
15991TIP3    H169388  -0.028   5.354  12.746  2.1406 -0.7624  0.3574
15991TIP3    H269389   0.004   5.502  12.750 -0.1967 -0.1825 -0.8574
15992TIP3   OH269390   1.596   2.036  14.772 -0.8505  0.3653  0.6126
15992TIP3    H169391   1.503   2.055  14.760 -1.2850 -2.2869 -1.2812
15992TIP3    H269392   1.606   2.014  14.864 -2.4594 -0.7183  0.5590
15993TIP3   OH269393   6.313   5.256  13.606  0.0714 -0.6111  0.4972
15993TIP3    H169394   6.275   5.269  13.520  0.7654 -0.0853  0.2581
15993TIP3    H269395   6.239   5.235  13.663 -0.3630 -1.1468 -0.2576
15994TIP3   OH269396   5.341   4.183  16.425 -0.2504 -0.3420 -0.2294
15994TIP3    H169397   5.313   4.097  16.457  1.1459 -0.8269 -0.2367
15994TIP3    H269398   5.434   4.189  16.450 -0.6499  1.7504  1.0003
15995TIP3   OH269399   5.327   4.000  13.798  0.6298  0.1656  0.0738
15995TIP3    H169400   5.296   4.080  13.841  1.5691  0.9878 -0.7371
15995TIP3    H269401   5.372   3.951  13.867  1.6800  1.2319  0.1577
15996TIP3   OH269402   6.121   3.535  16.488  0.2334  0.2976 -0.1669
15996TIP3    H169403   6.208   3.547  16.526 -0.1558  0.9350  0.5323
15996TIP3    H269404   6.090   3.452  16.525 -0.1177  0.8812  0.8838
15997TIP3   OH269405   4.330   4.862  17.013  0.0013 -0.6166  0.3884
15997TIP3    H169406   4.343   4.899  17.100  0.0514 -1.4408  0.7341
15997TIP3    H269407   4.251   4.809  17.020 -1.2479  0.9958 -0.6332
15998TIP3   OH269408   4.047   4.784   0.878  0.0413 -0.3874  0.0836
15998TIP3    H169409   4.130   4.737   0.872 -0.3736 -1.2951  1.1429
15998TIP3    H269410   4.060   4.845   0.951 -0.0652 -0.1978 -0.0557
15999TIP3   OH269411   2.710   3.218  13.670  0.8532 -0.0319 -0.0715
15999TIP3    H169412   2.725   3.190  13.760  0.3150 -0.9815 -0.2673
15999TIP3    H269413   2.771   3.165  13.618  0.0136 -0.6840 -0.4166
16000TIP3   OH269414   2.266   1.431   3.696  0.6918 -0.7419  0.2458
16000TIP3    H169415   2.259   1.375   3.774 -0.1841 -2.6355 -1.1233
16000TIP3    H269416   2.183   1.478   3.693 -0.2396 -2.3502 -0.7118
16001TIP3   OH269417   4.671   5.935   1.104  0.1670 -0.0568  0.2803
16001TIP3    H169418   4.704   6.011   1.152  2.4491 -0.3156 -0.7157
16001TIP3    H269419   4.733   5.925   1.031 -1.0735 -1.8413 -0.5906
16002TIP3   OH269420   2.131   3.497   1.504 -0.1004 -0.0317  0.3594
16002TIP3    H169421   2.208   3.447   1.533 -0.6286 -0.5719  0.8698
16002TIP3    H269422   2.133   3.576   1.558  0.7672  0.5510 -0.4856
16003TIP3   OH269423   3.927   6.739  13.049 -0.7934 -0.3885 -0.5478
16003TIP3    H169424   3.910   6.675  12.980 -2.9410 -0.7223  0.2254
16003TIP3    H269425   3.913   6.824  13.008  0.0606 -0.4754 -1.0467
16004TIP3   OH269426   1.117   5.038   5.457 -0.4125 -0.2974  0.9174
16004TIP3    H169427   1.102   5.116   5.509  0.0163  0.4355 -0.0304
16004TIP3    H269428   1.057   5.046   5.383 -1.8709 -1.9049  1.8503
16005TIP3   OH269429   4.408   3.611   0.253  0.4144  0.4954 -0.5921
16005TIP3    H169430   4.497   3.600   0.220 -0.2314 -2.3117 -1.6491
16005TIP3    H269431   4.383   3.525   0.284 -1.3367  1.6400  1.4322
16006TIP3   OH269432   3.762   4.252   1.651  0.0810 -0.1771 -0.4362
16006TIP3    H169433   3.732   4.230   1.739  1.8036 -1.7962 -0.1707
16006TIP3    H269434   3.788   4.344   1.657 -1.3547  0.2131  0.2649
16007TIP3   OH269435   5.309   1.124   2.864 -0.6747  0.2048 -0.1084
16007TIP3    H169436   5.241   1.181   2.828 -0.2753  0.2787 -0.7500
16007TIP3    H269437   5.335   1.067   2.792  1.2961  1.4416 -0.4649
16008TIP3   OH269438   0.622   5.399   4.554 -0.5897 -0.1874 -0.4494
16008TIP3    H169439   0.565   5.343   4.607 -1.0388 -1.0800 -1.8253
16008TIP3    H269440   0.565   5.468   4.521 -0.3921  0.1483 -0.1034
16009TIP3   OH269441   5.903   2.463   2.411  0.1372  0.2026 -0.1845
16009TIP3    H169442   5.833   2.479   2.474 -1.0883 -1.2321 -1.0922
16009TIP3    H269443   5.899   2.538   2.352 -0.5817  0.1955 -0.1558
16010TIP3   OH269444   1.437   0.590  12.785 -0.1327 -0.3253 -0.0439
16010TIP3    H169445   1.352   0.562  12.752 -0.4719 -0.4777  0.9199
16010TIP3    H269446   1.417   0.631  12.869  0.6788  0.2383 -0.1173
16011TIP3   OH269447   5.304   2.072  11.529  0.4607  0.1849  0.2935
16011TIP3    H169448   5.257   2.016  11.590  0.2049 -0.7217 -0.7087
16011TIP3    H269449   5.396   2.065  11.556  0.0959  2.0993  2.3639
16012TIP3   OH269450   5.511   1.453   0.781 -0.3182 -0.3943 -0.4053
16012TIP3    H169451   5.514   1.357   0.783 -0.9219 -0.4402  2.5203
16012TIP3    H269452   5.602   1.480   0.793 -0.4545 -0.6950  1.6636
16013TIP3   OH269453   4.286   4.448   0.822  0.3021 -0.7071 -0.2931
16013TIP3    H169454   4.197   4.448   0.857  0.9575  0.4752  1.5425
16013TIP3    H269455   4.275   4.437   0.727 -2.0487  2.5317 -0.5850
16014TIP3   OH269456   6.342   6.080   1.088  0.5258 -0.2717 -0.0276
16014TIP3    H169457   6.394   6.008   1.051 -2.0169 -2.5578  0.5125
16014TIP3    H269458   6.372   6.086   1.179 -1.4495 -3.0704  0.9249
16015TIP3   OH269459   5.306   1.267  11.979 -0.9102 -0.2725 -0.5801
16015TIP3    H169460   5.319   1.252  11.886  0.2970 -1.8526 -0.2093
16015TIP3    H269461   5.216   1.299  11.987 -1.2283 -0.6884 -2.2195
16016TIP3   OH269462   4.156   1.883  16.894  0.2718  0.3817 -0.0269
16016TIP3    H169463   4.073   1.923  16.868 -0.3651 -1.8923 -1.8951
16016TIP3    H269464   4.138   1.846  16.981 -0.6517  0.0753 -0.3279
16017TIP3   OH269465   6.753   1.353   4.679 -0.2681  0.5382 -0.7875
16017TIP3    H169466   6.836   1.310   4.701  0.4390  0.8831 -2.6023
16017TIP3    H269467   6.763   1.442   4.711  0.5067  0.8659 -1.8620
16018TIP3   OH269468   3.699   2.340   4.896  0.0685  0.4033 -0.4813
16018TIP3    H169469   3.661   2.394   4.965 -0.2185 -0.2018 -0.1552
16018TIP3    H269470   3.637   2.349   4.823 -0.9954 -0.9461  0.2035
16019TIP3   OH269471   2.913   4.837  13.658  0.6754 -0.7007 -0.0533
16019TIP3    H169472   2.921   4.775  13.585 -2.5896 -0.4314 -0.8039
16019TIP3    H269473   2.864   4.790  13.725  0.8840  0.0641  0.6557
16020TIP3   OH269474   5.866   5.282  11.847 -0.1285 -0.0992  0.3657
16020TIP3    H169475   5.797   5.277  11.781 -0.6677  2.3943  0.6402
16020TIP3    H269476   5.823   5.258  11.929 -0.4830  0.6590  0.4078
16021TIP3   OH269477   6.734   0.899  15.381 -0.8824 -0.7040 -0.1167
16021TIP3    H169478   6.647   0.922  15.348 -1.2126 -2.2992 -0.4051
16021TIP3    H269479   6.728   0.915  15.476 -0.7661  1.3042 -0.4050
16022TIP3   OH269480   5.466   0.487   4.261 -0.1421 -0.3222  0.1091
16022TIP3    H169481   5.463   0.539   4.341  0.1407 -0.1739  0.0235
16022TIP3    H269482   5.541   0.521   4.213  0.8248 -1.6671  0.6239
16023TIP3   OH269483   2.647   0.504   6.279 -0.2108  0.4685  0.0498
16023TIP3    H169484   2.553   0.524   6.284 -0.7851 -1.8556  0.0042
16023TIP3    H269485   2.663   0.447   6.355  0.3369 -1.8892 -1.7051
16024TIP3   OH269486   6.705   0.877  12.050 -0.1479 -0.2327 -0.0437
16024TIP3    H169487   6.694   0.968  12.078  2.8372  0.4005 -0.5055
16024TIP3    H269488   6.729   0.830  12.130 -1.4129 -0.5791  0.1458
16025TIP3   OH269489   6.298   0.383  17.121  0.2169  0.0926 -0.0150
16025TIP3    H169490   6.339   0.308  17.079  0.0375  0.3159 -0.6054
16025TIP3    H269491   6.221   0.401  17.067 -0.6540 -0.3053  1.0571
16026TIP3   OH269492   2.037   1.272   5.263 -0.2264  0.1626 -0.1275
16026TIP3    H169493   2.093   1.313   5.197 -0.4700 -0.6509 -0.8662
16026TIP3    H269494   2.098   1.243   5.331 -0.0511  1.6577  0.3718
16027TIP3   OH269495   2.321   0.897  11.237  0.2886 -0.4274  0.4707
16027TIP3    H169496   2.250   0.952  11.204  0.7482 -0.5963 -0.8379
16027TIP3    H269497   2.399   0.927  11.191  0.7363 -1.4968  0.4977
16028TIP3   OH269498   3.950   2.358   4.820  0.5784  0.1906 -0.1122
16028TIP3    H169499   3.945   2.343   4.725 -1.1033 -0.2427  0.0042
16028TIP3    H269500   3.861   2.340   4.851  0.6672  1.9435  1.3152
16029TIP3   OH269501   6.688   6.011  12.531  0.1566  0.2711 -0.4096
16029TIP3    H169502   6.651   6.009  12.619  0.1440  0.5815 -0.4067
16029TIP3    H269503   6.776   5.977  12.541  0.1467  0.2844 -0.2805
16030TIP3   OH269504   2.621   4.287  12.540  0.6239  0.2953  0.2731
16030TIP3    H169505   2.559   4.228  12.583 -0.3061  0.4414 -0.8317
16030TIP3    H269506   2.668   4.232  12.478 -0.1244  0.6501 -0.6354
16031TIP3   OH269507   4.939   4.203   2.536 -0.1703 -0.1521  0.2819
16031TIP3    H169508   4.943   4.108   2.546 -2.8495 -0.3482  0.1380
16031TIP3    H269509   4.974   4.220   2.448  0.5709 -0.9398  0.4090
16032TIP3   OH269510   5.136   4.010   4.716 -0.2967 -0.6565  0.4539
16032TIP3    H169511   5.051   4.037   4.751 -1.2699 -1.6583 -1.0231
16032TIP3    H269512   5.171   4.089   4.675 -0.5050 -0.2328  1.0844
16033TIP3   OH269513   3.731   6.375   2.055  0.0048 -0.8831  0.8058
16033TIP3    H169514   3.756   6.284   2.068  0.6754 -0.7235  0.6759
16033TIP3    H269515   3.696   6.403   2.139 -2.0950 -1.8360  0.3001
16034TIP3   OH269516   3.478   5.931  16.949  0.5264 -0.3888  0.1643
16034TIP3    H169517   3.541   5.933  17.021  2.9788 -0.2285 -1.8364
16034TIP3    H269518   3.532   5.928  16.870 -1.9701 -2.9981 -1.6760
16035TIP3   OH269519   5.759   1.089   0.117 -0.5453  0.7054 -0.2881
16035TIP3    H169520   5.777   1.159   0.054 -2.3436 -0.0701 -1.7478
16035TIP3    H269521   5.770   1.008   0.067 -3.1207  0.0942  0.0033
16036TIP3   OH269522   1.466   1.542   2.197 -0.0049  0.3931 -0.1273
16036TIP3    H169523   1.449   1.630   2.165  1.1513  0.4596 -0.6079
16036TIP3    H269524   1.560   1.529   2.184 -0.3859 -1.4363 -1.4473
16037TIP3   OH269525   3.529   1.598   0.056  0.2474  0.9452 -0.5995
16037TIP3    H169526   3.593   1.565   0.119  0.7457 -0.3800 -1.7216
16037TIP3    H269527   3.496   1.519   0.013 -0.3497  1.7799 -1.7316
16038TIP3   OH269528   0.540   0.856  13.011  0.3677  0.1643 -0.9153
16038TIP3    H169529   0.507   0.768  13.029  1.5185  0.2873  2.5533
16038TIP3    H269530   0.494   0.912  13.074 -0.2022  2.0669 -2.9337
16039TIP3   OH269531   1.062   3.330   1.430 -0.1827  0.1072 -0.0192
16039TIP3    H169532   1.048   3.350   1.523  1.5086  0.7070  0.1409
16039TIP3    H269533   0.979   3.353   1.388 -1.3358 -1.1270  1.4516
16040TIP3   OH269534   1.592   2.879  10.600  0.6225  0.1631 -0.5331
16040TIP3    H169535   1.522   2.895  10.663 -0.0125 -1.2037 -0.8450
16040TIP3    H269536   1.572   2.937  10.526 -0.3587 -0.3875 -0.7284
16041TIP3   OH269537   3.786   1.216   4.341  0.0051 -0.4933  0.6481
16041TIP3    H169538   3.830   1.137   4.309  0.6005 -0.3509  1.0840
16041TIP3    H269539   3.851   1.285   4.329 -0.9592  0.1997 -0.9421
16042TIP3   OH269540   2.778   2.773   4.230  0.6219  0.0783  0.2143
16042TIP3    H169541   2.721   2.698   4.208  1.2262  0.2123 -2.1081
16042TIP3    H269542   2.865   2.746   4.200  0.5675  2.2458 -2.2964
16043TIP3   OH269543   1.867   1.377   1.566 -0.2569 -1.1314  0.0932
16043TIP3    H169544   1.949   1.395   1.520 -0.2173 -0.1199  0.5181
16043TIP3    H269545   1.851   1.456   1.618 -1.7049 -1.1398 -0.2901
16044TIP3   OH269546   5.761   3.482  16.051  0.4080  0.6015 -0.2551
16044TIP3    H169547   5.693   3.518  16.108 -0.3484  0.0321 -0.7861
16044TIP3    H269548   5.742   3.517  15.964  0.3259 -0.1628 -0.5593
16045TIP3   OH269549   2.777   1.712  11.063 -0.8848 -0.0481 -0.0405
16045TIP3    H169550   2.695   1.682  11.023  0.2419 -0.9663 -1.7863
16045TIP3    H269551   2.749   1.769  11.135 -3.0338  1.0239 -1.6135
16046TIP3   OH269552   5.768   0.447  12.293  0.1775  0.0387  0.6321
16046TIP3    H169553   5.842   0.397  12.328  2.4157  2.3578 -0.4445
16046TIP3    H269554   5.695   0.386  12.296  2.1992 -2.5546  1.3986
16047TIP3   OH269555   4.670   5.907  16.052 -0.8713 -1.0212  0.6424
16047TIP3    H169556   4.598   5.858  16.012 -0.5478 -1.2553  0.3400
16047TIP3    H269557   4.696   5.971  15.986 -0.9961 -0.7398  0.8654
16048TIP3   OH269558   5.454   1.848   2.838  0.0879  0.0894 -0.4381
16048TIP3    H169559   5.422   1.912   2.902  0.0431 -0.9563  0.6273
16048TIP3    H269560   5.383   1.784   2.831  0.3387 -0.1221 -1.0994
16049TIP3   OH269561   6.089   2.953  15.727 -0.6591  0.3233 -0.8786
16049TIP3    H169562   6.093   2.859  15.743 -1.7480  0.2609 -0.9092
16049TIP3    H269563   6.167   2.972  15.675 -1.1312 -0.7996 -2.0444
16050TIP3   OH269564   0.293   1.741   3.647 -0.4935  0.1336 -0.1401
16050TIP3    H169565   0.324   1.652   3.634  1.2150  0.4917  1.1516
16050TIP3    H269566   0.200   1.738   3.623 -0.7304 -2.2187  0.8624
16051TIP3   OH269567   5.787   3.976   4.216  0.0824 -0.1334 -0.2623
16051TIP3    H169568   5.878   3.970   4.187  0.3997  0.7490  0.4919
16051TIP3    H269569   5.739   3.918   4.157  0.8575  0.7455 -1.8284
16052TIP3   OH269570   4.401   1.454  13.413  0.1834  0.2187 -0.6201
16052TIP3    H169571   4.461   1.473  13.485  1.5239  1.8549 -2.0839
16052TIP3    H269572   4.453   1.406  13.349 -1.3277 -2.3487 -0.0557
16053TIP3   OH269573   4.579   6.788   3.534 -0.2494  0.1469 -0.3864
16053TIP3    H169574   4.565   6.815   3.625 -1.7159 -0.7835 -0.3100
16053TIP3    H269575   4.668   6.819   3.514 -0.4334  1.6475  0.8743
16054TIP3   OH269576   5.448   5.243   5.258  0.2294 -0.1423 -0.0147
16054TIP3    H169577   5.419   5.204   5.340 -1.0252  0.1942 -0.2734
16054TIP3    H269578   5.437   5.337   5.271 -3.1460 -0.1645 -1.6135
16055TIP3   OH269579   4.581   1.410  12.995 -0.4315  0.3952  0.0638
16055TIP3    H169580   4.659   1.356  13.006  0.1087  0.7792 -1.5814
16055TIP3    H269581   4.583   1.436  12.903 -0.3172  3.7161  0.8853
16056TIP3   OH269582   4.249   0.401   4.859  0.1207  0.2660 -0.6510
16056TIP3    H169583   4.243   0.495   4.879 -0.3019 -0.0009  0.5291
16056TIP3    H269584   4.273   0.360   4.942  2.1921 -0.4965 -1.5542
16057TIP3   OH269585   4.064   3.963   4.549  0.0871  0.3071  0.8309
16057TIP3    H169586   4.089   3.993   4.636  2.4268  2.2978 -0.3992
16057TIP3    H269587   4.008   4.033   4.514  2.6314  1.7391 -0.7178
16058TIP3   OH269588   4.327   5.424  11.947 -0.4695  0.0123 -0.6562
16058TIP3    H169589   4.402   5.404  12.004 -0.4790 -0.5749 -0.8451
16058TIP3    H269590   4.366   5.466  11.871 -0.4053  0.3446 -0.4420
16059TIP3   OH269591   5.549   3.509  11.115 -0.2308 -0.3403 -0.4330
16059TIP3    H169592   5.639   3.527  11.142 -0.3820 -0.5700  0.2433
16059TIP3    H269593   5.521   3.588  11.069 -0.0918  0.2226  0.4250
16060TIP3   OH269594   2.382   2.839  13.228 -0.0864 -0.1367  0.0131
16060TIP3    H169595   2.410   2.907  13.289  0.2755 -1.8355  1.8169
16060TIP3    H269596   2.394   2.757  13.275 -2.1464 -1.3818 -1.4550
16061TIP3   OH269597   3.997   3.764  11.108 -0.0086 -0.4319  0.1802
16061TIP3    H169598   3.977   3.677  11.071 -0.4984  0.3222 -1.4493
16061TIP3    H269599   4.069   3.796  11.054 -0.2600  0.4214  0.3368
16062TIP3   OH269600   2.108   2.994   2.937 -0.0767 -0.5930 -0.5289
16062TIP3    H169601   2.137   3.045   2.861 -3.0563  1.1533 -0.6163
16062TIP3    H269602   2.159   3.030   3.010 -1.1899  1.7246 -0.8135
16063TIP3   OH269603   2.640   4.106   4.871  0.0106  0.0914 -0.2412
16063TIP3    H169604   2.681   4.127   4.787 -0.9551  3.1307 -0.0690
16063TIP3    H269605   2.712   4.107   4.934  0.4412 -0.1871 -0.7193
16064TIP3   OH269606   4.005   2.079   5.891  1.0199  0.1026 -0.0164
16064TIP3    H169607   3.933   2.095   5.952  0.5199  0.2939 -0.6585
16064TIP3    H269608   3.972   2.107   5.806  2.5991  2.2447  0.0093
16065TIP3   OH269609   4.682   6.580   2.061 -0.1735  0.2687 -0.2687
16065TIP3    H169610   4.740   6.651   2.033 -1.3283  0.8241 -1.3145
16065TIP3    H269611   4.645   6.611   2.144  2.6697 -1.0541  1.6336
16066TIP3   OH269612   2.229   5.410   2.572 -0.5548  0.0865 -0.1231
16066TIP3    H169613   2.275   5.472   2.515 -1.7046  1.2128  0.1076
16066TIP3    H269614   2.159   5.374   2.517 -0.5012 -0.2527  0.0307
16067TIP3   OH269615   4.366   4.233   4.913  0.3708  0.5368 -0.3917
16067TIP3    H169616   4.426   4.292   4.866 -0.5162  0.3244 -1.8485
16067TIP3    H269617   4.393   4.145   4.886 -0.2109  0.4168 -0.5858
16068TIP3   OH269618   6.294   2.113  16.650  0.2650  0.4346 -0.5316
16068TIP3    H169619   6.222   2.173  16.667 -0.8037 -1.5155  2.7013
16068TIP3    H269620   6.347   2.157  16.583 -2.6502  2.9561 -1.3990
16069TIP3   OH269621   5.965   0.753   3.385 -0.1839  0.1321  0.2964
16069TIP3    H169622   6.040   0.813   3.386  0.3565 -0.4887  2.3859
16069TIP3    H269623   5.894   0.804   3.423 -0.3999  0.2187 -0.2201
16070TIP3   OH269624   0.296   5.896   0.893 -0.1974  0.4401 -0.1441
16070TIP3    H169625   0.348   5.819   0.867  0.5597  1.1874 -0.8982
16070TIP3    H269626   0.227   5.902   0.826 -0.7803 -0.0644  0.3936
16071TIP3   OH269627   0.747   0.183  13.501 -0.5459 -0.5079 -0.7834
16071TIP3    H169628   0.693   0.242  13.553  1.1862  0.5470 -0.0859
16071TIP3    H269629   0.759   0.105  13.556 -1.0639 -0.6069 -0.8082
16072TIP3   OH269630   1.450   6.743   1.502  0.7379  0.5592  0.3079
16072TIP3    H169631   1.518   6.810   1.489  0.8565  0.2660 -0.6571
16072TIP3    H269632   1.400   6.775   1.577  1.7518  0.9298  0.8529
16073TIP3   OH269633   0.073   4.738  11.929 -1.2518  0.4633  0.1960
16073TIP3    H169634   0.031   4.655  11.954 -1.6259  0.6069  0.0499
16073TIP3    H269635   0.026   4.765  11.850  0.0516 -0.0993 -0.8126
16074TIP3   OH269636   0.659   1.302   2.920  0.6860  0.0703  0.3584
16074TIP3    H169637   0.580   1.329   2.966  0.7772  0.5770  0.2305
16074TIP3    H269638   0.656   1.351   2.837 -1.6195 -3.8728 -2.1832
16075TIP3   OH269639   3.678   2.084  15.249 -0.5670  0.5096  0.0108
16075TIP3    H169640   3.637   2.062  15.165 -0.7715  0.2845  0.1668
16075TIP3    H269641   3.605   2.088  15.311 -0.1435 -2.9453  0.9539
16076TIP3   OH269642   4.734   0.727   5.139 -0.1473  0.7187 -0.5106
16076TIP3    H169643   4.802   0.787   5.109 -1.1994  2.3590  0.2617
16076TIP3    H269644   4.660   0.783   5.161 -0.7881 -0.7292  1.3544
16077TIP3   OH269645   3.817   5.498  11.108 -0.8331  0.3296  1.2693
16077TIP3    H169646   3.770   5.579  11.130  1.0809  1.7465  0.4660
16077TIP3    H269647   3.825   5.500  11.013 -3.3031 -2.3939  0.8709
16078TIP3   OH269648   2.109   0.801  14.347 -0.1467 -0.1801 -0.5457
16078TIP3    H169649   2.125   0.713  14.313 -0.2269 -0.1333 -0.7040
16078TIP3    H269650   2.014   0.812  14.343 -0.1973 -0.3184  0.0543
16079TIP3   OH269651   3.675   4.929   0.383 -0.1739  0.1937  0.3364
16079TIP3    H169652   3.612   4.879   0.435 -0.7985 -0.5460 -1.0843
16079TIP3    H269653   3.649   5.021   0.396  0.2761  0.1129  2.0467
16080TIP3   OH269654   5.550   5.260   2.475  0.1932  0.6152 -0.1718
16080TIP3    H169655   5.533   5.342   2.428 -0.3362  0.5811 -0.0518
16080TIP3    H269656   5.639   5.270   2.509 -0.4960  1.9224  1.4108
16081TIP3   OH269657   0.091   0.731  16.919  0.0146  0.5852  0.1404
16081TIP3    H169658   0.107   0.710  17.011  0.9454 -0.8130 -0.3064
16081TIP3    H269659   0.165   0.786  16.893 -0.2624  1.0027  0.2258
16082TIP3   OH269660   3.685   4.629   3.880 -0.4659  0.3993  0.4923
16082TIP3    H169661   3.704   4.657   3.790 -0.2461 -1.0133  0.0699
16082TIP3    H269662   3.605   4.577   3.873  0.6737 -1.5030  0.7127
16083TIP3   OH269663   5.012   0.252  14.575 -0.3293 -0.5276 -0.3603
16083TIP3    H169664   5.045   0.165  14.599 -2.2716 -0.8973  1.1650
16083TIP3    H269665   4.926   0.236  14.536  0.1569  0.6028 -2.0387
16084TIP3   OH269666   4.209   1.183  14.061 -0.4186 -0.2216  0.7518
16084TIP3    H169667   4.197   1.262  14.008 -0.8833 -2.2730 -2.4405
16084TIP3    H269668   4.145   1.191  14.131 -0.0322  2.4617  0.9209
16085TIP3   OH269669   3.704   5.031   4.102  0.0972  0.0833  0.5477
16085TIP3    H169670   3.757   5.068   4.031  1.1106 -1.5698  0.3905
16085TIP3    H269671   3.759   5.040   4.179  0.0923 -0.5019  0.6214
16086TIP3   OH269672   1.526   5.885   2.028  0.4353 -0.0980  0.1524
16086TIP3    H169673   1.522   5.962   1.970 -1.0055 -1.5210 -1.7866
16086TIP3    H269674   1.560   5.815   1.972  0.0588 -1.2798  1.3650
16087TIP3   OH269675   2.383   3.122  16.382  0.2733 -0.0028  0.1959
16087TIP3    H169676   2.371   3.182  16.308 -0.2025  0.0397  0.3083
16087TIP3    H269677   2.411   3.040  16.341  0.1332  0.0570 -0.0236
16088TIP3   OH269678   4.505   0.131  13.444 -0.0314  0.2175  0.3277
16088TIP3    H169679   4.543   0.075  13.512  0.4681 -0.8183 -0.7709
16088TIP3    H269680   4.529   0.220  13.471  2.1381 -0.3184  0.3565
16089TIP3   OH269681   4.183   0.649  10.427  0.3292 -1.2930  0.1790
16089TIP3    H169682   4.104   0.606  10.459 -1.1634  1.1913  0.1387
16089TIP3    H269683   4.254   0.610  10.478 -1.1948 -2.0620  1.8339
16090TIP3   OH269684   5.044   6.270   1.818 -0.0483 -0.3024  0.0235
16090TIP3    H169685   5.025   6.200   1.880  0.7982 -0.2118  0.4050
16090TIP3    H269686   5.097   6.228   1.750 -1.8566 -0.6500 -1.2465
16091TIP3   OH269687   4.261   3.192  17.207  0.6187  0.4590  0.2730
16091TIP3    H169688   4.337   3.224  17.255  0.4284  2.0837 -0.4564
16091TIP3    H269689   4.254   3.249  17.131 -0.9830 -0.0235  0.0026
16092TIP3   OH269690   5.890   1.556   0.543  0.4178  0.0882 -0.6649
16092TIP3    H169691   5.923   1.637   0.505  0.6105 -0.1294 -0.9623
16092TIP3    H269692   5.858   1.506   0.468 -0.1038  0.0701 -0.4405
16093TIP3   OH269693   6.294   2.589   3.551 -0.2656  0.0997  1.0870
16093TIP3    H169694   6.238   2.619   3.622  0.8541  2.1262  1.1796
16093TIP3    H269695   6.246   2.516   3.511 -3.1804  1.9806  0.9001
16094TIP3   OH269696   4.052   3.252   3.772 -0.1627 -0.2093 -0.0486
16094TIP3    H169697   3.985   3.189   3.748  0.4029 -0.8809  0.0799
16094TIP3    H269698   4.106   3.262   3.694 -1.1022  1.2770 -0.5597
16095TIP3   OH269699   4.479   1.455  11.344 -0.8865  0.5558  0.0035
16095TIP3    H169700   4.407   1.405  11.381 -3.1264  2.1028 -1.9929
16095TIP3    H269701   4.446   1.488  11.261  2.0657  1.5658 -0.9140
16096TIP3   OH269702   5.446   0.869  16.813 -0.3663  0.0784  0.4389
16096TIP3    H169703   5.413   0.822  16.736  0.6235  1.7012 -1.0686
16096TIP3    H269704   5.394   0.836  16.886 -1.2823 -1.6067 -0.9087
16097TIP3   OH269705   2.487   1.787   4.254 -0.5149 -0.1594 -0.8836
16097TIP3    H169706   2.474   1.729   4.329  0.8459  0.4587 -0.1285
16097TIP3    H269707   2.505   1.729   4.180 -1.8720 -0.7725 -0.7476
16098TIP3   OH269708   5.537   4.918  12.406 -0.5201 -0.1703 -0.0736
16098TIP3    H169709   5.597   4.927  12.480  0.9409  0.5992 -1.3093
16098TIP3    H269710   5.545   4.827  12.378 -0.5276 -0.2705  0.2420
16099TIP3   OH269711   1.133   4.848   2.060 -0.0402 -0.4300 -0.1091
16099TIP3    H169712   1.085   4.794   2.123  0.5025  1.2237  1.8129
16099TIP3    H269713   1.072   4.918   2.037  0.4577  0.0972  0.1533
16100TIP3   OH269714   3.946   4.857   1.523  0.6526 -0.1370 -0.2650
16100TIP3    H169715   3.936   4.840   1.429 -0.7220  0.3262 -0.2274
16100TIP3    H269716   4.038   4.839   1.541  1.5936  2.2357 -2.2176
16101TIP3   OH269717   4.742   0.661   0.103 -0.5220  0.0302  0.6541
16101TIP3    H169718   4.759   0.580   0.054 -0.4863  1.3592 -1.6389
16101TIP3    H269719   4.796   0.653   0.182  0.3374 -1.6793 -0.0531
16102TIP3   OH269720   3.603   5.380   5.376  0.2809 -0.6159 -0.5982
16102TIP3    H169721   3.566   5.336   5.299  0.5764 -0.8075 -0.6320
16102TIP3    H269722   3.593   5.473   5.357 -0.9744 -0.6603 -0.2208
16103TIP3   OH269723   2.333   4.458  15.049  0.3289 -0.1277 -0.5066
16103TIP3    H169724   2.406   4.459  14.987 -0.0947  0.3341 -1.0089
16103TIP3    H269725   2.257   4.482  14.997  0.2548  2.1223  0.5410
16104TIP3   OH269726   3.710   1.218  16.004 -0.4354  0.0714 -0.1221
16104TIP3    H169727   3.761   1.193  16.081  2.0201  1.5800 -1.1236
16104TIP3    H269728   3.692   1.136  15.959 -0.2727 -0.6578  1.0898
16105TIP3   OH269729   3.926   4.867  15.963  0.1015  0.2212  0.0904
16105TIP3    H169730   3.897   4.820  16.041  0.6608 -0.2999 -0.0016
16105TIP3    H269731   4.022   4.868  15.971  0.0770  1.7688  0.3241
16106TIP3   OH269732   1.881   3.768   3.628 -0.1298  0.3879  0.2538
16106TIP3    H169733   1.845   3.702   3.569  2.5621  1.0890 -2.4168
16106TIP3    H269734   1.816   3.838   3.628 -0.6462 -0.0644 -1.0847
16107TIP3   OH269735   0.062   1.638  13.629  0.5852 -0.0276 -0.2210
16107TIP3    H169736   0.045   1.556  13.583 -1.3188  0.8185 -1.1492
16107TIP3    H269737   0.050   1.617  13.722 -1.7483 -0.4249 -0.5712
16108TIP3   OH269738   6.356   5.149  11.824 -0.4802 -0.2857  0.0485
16108TIP3    H169739   6.264   5.159  11.798 -0.4156  1.6527  0.3951
16108TIP3    H269740   6.405   5.148  11.742 -0.7335 -0.3873 -0.1023
16109TIP3   OH269741   0.543   6.280   0.691 -0.2210 -0.7060 -0.8415
16109TIP3    H169742   0.532   6.249   0.780 -0.2314  1.0424 -0.1868
16109TIP3    H269743   0.454   6.280   0.654 -0.3270 -0.6870 -0.5841
16110TIP3   OH269744   3.467   6.446   3.263  0.1843  0.0910  0.3776
16110TIP3    H169745   3.430   6.489   3.340 -0.1226  2.8085 -1.1868
16110TIP3    H269746   3.562   6.445   3.279 -0.0211 -1.5930  1.7958
16111TIP3   OH269747   3.768   0.641  12.895 -0.0781  0.0861 -0.2695
16111TIP3    H169748   3.778   0.549  12.918 -0.8708  0.1814  0.5167
16111TIP3    H269749   3.857   0.673  12.885  0.2282 -0.5617  0.3150
16112TIP3   OH269750   3.011   1.016  15.179 -0.5797  0.4234 -0.2499
16112TIP3    H169751   2.922   1.035  15.149 -1.9246 -2.0213  1.7418
16112TIP3    H269752   3.049   0.962  15.110 -1.9313 -1.2586  0.2462
16113TIP3   OH269753   2.958   5.700  14.773 -0.0865  0.3467 -0.0846
16113TIP3    H169754   2.896   5.699  14.846 -1.4215 -1.6063 -1.1626
16113TIP3    H269755   3.027   5.760  14.802 -1.2113  0.6659  2.2100
16114TIP3   OH269756   6.305   0.222  10.852 -0.2959  0.2113 -0.0620
16114TIP3    H169757   6.322   0.140  10.805  1.2757 -1.0069  2.3991
16114TIP3    H269758   6.363   0.286  10.809  0.6833 -0.7116 -0.1644
16115TIP3   OH269759   1.163   0.272  11.508  0.2959  0.0026 -0.1747
16115TIP3    H169760   1.142   0.219  11.431 -3.5768  1.4980 -0.3946
16115TIP3    H269761   1.192   0.356  11.472 -1.2850  0.6186 -0.1327
16116TIP3   OH269762   3.387   2.579  13.188 -0.3324  0.7080  0.1424
16116TIP3    H169763   3.398   2.674  13.177  2.5285  0.4694  0.0803
16116TIP3    H269764   3.364   2.548  13.101 -0.9232  1.2860  0.0795
16117TIP3   OH269765   0.877   3.906  15.082 -0.4972 -0.1465 -0.9030
16117TIP3    H169766   0.916   3.963  15.016 -0.3325  1.1520  0.2516
16117TIP3    H269767   0.785   3.932  15.084 -0.8573 -1.2793 -1.6887
16118TIP3   OH269768   0.249   6.113  13.563 -0.2032 -0.2657  0.4002
16118TIP3    H169769   0.217   6.149  13.646 -1.8093  1.6125 -0.9474
16118TIP3    H269770   0.169   6.088  13.516  0.6846 -1.3537 -0.5680
16119TIP3   OH269771   6.280   3.173  12.015 -0.5337 -0.4503 -0.0719
16119TIP3    H169772   6.274   3.213  11.929 -0.2140  1.6476  0.8168
16119TIP3    H269773   6.202   3.203  12.061  0.9707  1.3965  1.4572
16120TIP3   OH269774   5.693   5.118  14.853 -0.0423 -0.3599  0.8797
16120TIP3    H169775   5.747   5.148  14.926 -1.4098  2.3273  0.9160
16120TIP3    H269776   5.731   5.160  14.776 -2.4299  2.4466  1.0216
16121TIP3   OH269777   4.784   5.845  12.250 -0.3094  0.5169 -0.0042
16121TIP3    H169778   4.826   5.787  12.187  0.1135 -0.4591  1.1391
16121TIP3    H269779   4.713   5.886  12.200  0.3637  0.2238 -1.2627
16122TIP3   OH269780   5.867   3.745   0.429  0.2615  0.3680 -0.1724
16122TIP3    H169781   5.867   3.672   0.367 -0.0159  0.0269  0.2172
16122TIP3    H269782   5.853   3.703   0.514  0.3102  0.8591  0.0803
16123TIP3   OH269783   0.587   5.427   0.652  0.0718 -0.2476 -0.2647
16123TIP3    H169784   0.644   5.395   0.583 -0.2487  0.0014 -0.6454
16123TIP3    H269785   0.498   5.409   0.621 -0.0618 -0.5838  0.2999
16124TIP3   OH269786   2.482   0.187   0.929  0.3359 -0.2412  0.4360
16124TIP3    H169787   2.503   0.198   0.837  0.2060  0.7765  0.5253
16124TIP3    H269788   2.567   0.189   0.973  0.3650 -0.2870  0.3815
16125TIP3   OH269789   5.075   0.196   2.751  0.4381  0.4871 -0.4134
16125TIP3    H169790   5.096   0.120   2.804 -1.0686  0.4332  0.1748
16125TIP3    H269791   5.058   0.266   2.815  1.0012  1.1028 -0.9187
16126TIP3   OH269792   5.559   4.477   1.292  0.0645 -0.0414 -0.2670
16126TIP3    H169793   5.545   4.571   1.277 -0.7497  0.1523  1.4468
16126TIP3    H269794   5.581   4.442   1.206 -2.8151  1.1734 -1.6614
16127TIP3   OH269795   5.222   4.187  16.982  0.1493 -0.0514 -0.0047
16127TIP3    H169796   5.135   4.164  17.013  0.5353 -0.7778  0.5547
16127TIP3    H269797   5.232   4.280  17.003 -0.2998 -0.0889  0.3642
16128TIP3   OH269798   3.540   2.093  15.013 -0.4553 -0.4633 -0.3840
16128TIP3    H169799   3.463   2.055  14.971  0.1904 -1.8035 -0.4149
16128TIP3    H269800   3.591   2.130  14.940 -0.5827 -0.4763 -0.4798
16129TIP3   OH269801   3.472   2.544  11.586 -0.4549 -0.3951 -0.1156
16129TIP3    H169802   3.497   2.473  11.644  1.1786  0.2288 -0.0202
16129TIP3    H269803   3.498   2.624  11.632 -1.6693  0.2522 -0.5005
16130TIP3   OH269804   0.919   4.916  11.802  0.6058  0.3709 -0.3206
16130TIP3    H169805   0.998   4.954  11.764 -0.0565  2.1870 -0.0186
16130TIP3    H269806   0.925   4.938  11.895 -0.2435  0.5512 -0.3019
16131TIP3   OH269807   3.162   1.820  14.908 -0.1144  0.2276 -0.0760
16131TIP3    H169808   3.131   1.780  14.989  1.2772 -0.1772  0.2799
16131TIP3    H269809   3.092   1.880  14.883 -1.1757 -0.6535  0.6755
16132TIP3   OH269810   0.154   3.073   2.975  0.0339  0.3918 -0.2739
16132TIP3    H169811   0.078   3.119   2.940 -0.9827 -1.4712 -0.6819
16132TIP3    H269812   0.177   3.011   2.906  1.6460  0.6003  0.0499
16133TIP3   OH269813   1.029   3.662   5.591  0.0645  0.2281 -0.2461
16133TIP3    H169814   1.098   3.643   5.527  0.2294  1.9951 -0.6223
16133TIP3    H269815   0.950   3.671   5.539 -0.0555  0.3331 -0.0479
16134TIP3   OH269816   3.496   3.265  16.602  1.0073  0.1175  0.0871
16134TIP3    H169817   3.479   3.171  16.606 -0.5401  0.3989  0.6390
16134TIP3    H269818   3.462   3.299  16.685  0.2587  1.3638 -0.7140
16135TIP3   OH269819   6.153   0.112  11.048 -0.2920  0.4041  0.2365
16135TIP3    H169820   6.068   0.145  11.020  0.0458  2.1467  1.1521
16135TIP3    H269821   6.215   0.144  10.983 -0.2496 -0.4287 -0.1477
16136TIP3   OH269822   3.771   3.169  14.582  0.2710  0.0956  0.1762
16136TIP3    H169823   3.698   3.199  14.528  0.2463  0.1908  0.2622
16136TIP3    H269824   3.842   3.231  14.561  0.2763  0.1027  0.2158
16137TIP3   OH269825   4.451   0.240   2.660  0.2477  0.1195 -0.6060
16137TIP3    H169826   4.426   0.149   2.671  1.5524 -0.6461 -3.1399
16137TIP3    H269827   4.519   0.255   2.726 -0.6748 -0.3899  0.4879
16138TIP3   OH269828   5.977   4.939   5.847 -0.0827  0.3931  0.2876
16138TIP3    H169829   5.957   4.908   5.758 -0.3384 -0.7462  0.7312
16138TIP3    H269830   5.891   4.951   5.887  0.0116  1.7081  0.1300
16139TIP3   OH269831   6.744   5.181  13.468  0.9337 -0.7167  0.0676
16139TIP3    H169832   6.819   5.239  13.456  0.3051 -0.1747 -1.4189
16139TIP3    H269833   6.674   5.238  13.499 -0.4956  0.0095 -3.9401
16140TIP3   OH269834   2.948   1.783   5.605 -0.3174 -0.5458  0.0907
16140TIP3    H169835   2.951   1.878   5.595 -1.8576 -0.5353 -0.4620
16140TIP3    H269836   3.029   1.752   5.563  0.3246  0.5180  0.5049
16141TIP3   OH269837   5.460   1.821   4.345  0.2882 -0.1749  0.0273
16141TIP3    H169838   5.460   1.916   4.359  0.8071 -0.1772  0.0617
16141TIP3    H269839   5.379   1.791   4.387  0.9012  0.0500  1.4615
16142TIP3   OH269840   6.107   1.409   1.195  0.3102 -0.1005  0.2874
16142TIP3    H169841   6.135   1.368   1.277  0.7808 -0.5878 -0.1131
16142TIP3    H269842   6.113   1.503   1.213  0.6236 -0.2027  0.7447
16143TIP3   OH269843   4.837   0.342   1.232 -0.2911  0.0335  0.1180
16143TIP3    H169844   4.852   0.255   1.195  1.5958  0.6422 -0.6424
16143TIP3    H269845   4.796   0.392   1.161 -1.5136 -0.2281  0.6012
16144TIP3   OH269846   6.174   3.951  15.799  0.0487  0.1726  0.3432
16144TIP3    H169847   6.158   4.027  15.856  0.5268  0.1626  0.5053
16144TIP3    H269848   6.180   3.877  15.860  1.4660  0.2934  0.4005
16145TIP3   OH269849   1.142   4.326   3.173  0.6593  0.2223  0.2225
16145TIP3    H169850   1.194   4.252   3.144  1.2686  0.2474  1.2201
16145TIP3    H269851   1.089   4.291   3.245  1.7944  1.0078  1.4784
16146TIP3   OH269852   2.368   4.560   4.266 -0.1837 -0.1429  0.4552
16146TIP3    H169853   2.446   4.510   4.243 -1.5779 -2.4979  0.5267
16146TIP3    H269854   2.369   4.634   4.206  1.2501 -0.9755 -0.6313
16147TIP3   OH269855   1.372   1.786   3.645 -0.2398  0.6192 -0.1392
16147TIP3    H169856   1.441   1.821   3.589 -0.9775  1.2801 -0.6453
16147TIP3    H269857   1.400   1.807   3.734  0.7874 -0.1689 -0.2495
16148TIP3   OH269858   6.537   3.357  12.134  0.2119 -0.0086  0.5106
16148TIP3    H169859   6.481   3.289  12.096  0.3648 -0.5269  1.2048
16148TIP3    H269860   6.491   3.439  12.116 -0.2433 -0.3396  0.1495
16149TIP3   OH269861   6.123   5.439  11.476 -0.4860 -0.3237  0.3688
16149TIP3    H169862   6.163   5.482  11.552 -0.1237 -0.7673  0.4363
16149TIP3    H269863   6.029   5.446  11.491 -0.4195 -0.1803  0.7303
16150TIP3   OH269864   3.358   0.907   2.176  0.0884 -0.1173  0.3481
16150TIP3    H169865   3.404   0.831   2.140 -0.7816  0.3831 -2.0117
16150TIP3    H269866   3.421   0.979   2.170  0.4491 -0.3360  1.3055
16151TIP3   OH269867   0.632   5.588  12.007 -0.2349  0.4594  0.3540
16151TIP3    H169868   0.699   5.613  11.944 -1.0989  3.5598  0.5182
16151TIP3    H269869   0.646   5.645  12.082 -1.5900 -0.4859  1.3946
16152TIP3   OH269870   1.728   1.586   2.885  0.2169 -0.8235  0.5326
16152TIP3    H169871   1.750   1.568   2.793  3.5573 -3.1043  1.5608
16152TIP3    H269872   1.741   1.680   2.895  1.6019 -0.7931 -1.0026
16153TIP3   OH269873   6.605   3.798  12.956  0.0136  0.9453  0.1975
16153TIP3    H169874   6.634   3.814  12.866 -0.3809 -2.5352 -0.6958
16153TIP3    H269875   6.670   3.738  12.992 -1.2295  0.1851  1.2765
16154TIP3   OH269876   6.241   6.340   1.114  0.4231 -0.0093  0.2600
16154TIP3    H169877   6.195   6.319   1.032 -0.0866  0.5924  0.3781
16154TIP3    H269878   6.308   6.273   1.122 -0.4041 -0.8910  0.0569
16155TIP3   OH269879   5.080   1.784  12.505 -0.0893 -0.5097  0.4059
16155TIP3    H169880   5.050   1.867  12.542  0.9197 -0.2077  0.5853
16155TIP3    H269881   5.148   1.754  12.565  0.2323 -0.9715 -0.1766
16156TIP3   OH269882   3.752   5.826  11.776  0.1530  0.4879 -0.3522
16156TIP3    H169883   3.776   5.916  11.797 -0.9384  0.9853 -1.1240
16156TIP3    H269884   3.807   5.773  11.833  0.2549  1.6624  0.7022
16157TIP3   OH269885   1.072   4.947   0.033  0.0291 -0.0116  0.0341
16157TIP3    H169886   1.107   5.031   0.063 -0.3942 -0.3039  1.4219
16157TIP3    H269887   0.978   4.953   0.052 -0.0065 -0.7910  0.1192
16158TIP3   OH269888   2.017   3.750   4.192 -0.2140  0.6939  0.0344
16158TIP3    H169889   2.012   3.846   4.196 -3.5888  0.6257  0.8627
16158TIP3    H269890   2.011   3.722   4.283  2.1262 -0.3691 -0.0772
16159TIP3   OH269891   0.313   2.719  16.335 -0.5106  0.5430 -0.2345
16159TIP3    H169892   0.224   2.717  16.369 -0.8340 -0.0712 -1.0986
16159TIP3    H269893   0.368   2.699  16.411 -1.2830 -1.9137 -0.2391
16160TIP3   OH269894   5.517   0.499  16.689  0.1345  0.1208  0.3270
16160TIP3    H169895   5.549   0.428  16.633 -0.7988  0.0996 -0.1981
16160TIP3    H269896   5.453   0.546  16.635 -0.0825  0.6870  1.0476
16161TIP3   OH269897   4.386   6.736   3.344 -0.0391  0.0333 -0.2971
16161TIP3    H169898   4.397   6.656   3.294 -0.2030  0.0890 -0.4248
16161TIP3    H269899   4.462   6.739   3.402 -1.2821 -1.5151  1.5313
16162TIP3   OH269900   3.812   0.771   1.802 -0.0610  0.5351 -0.0399
16162TIP3    H169901   3.847   0.860   1.799  4.0148 -0.5354  4.3513
16162TIP3    H269902   3.886   0.714   1.781 -1.9299 -1.9442 -0.5107
16163TIP3   OH269903   3.727   0.858   5.422 -0.3478 -0.2697  0.1043
16163TIP3    H169904   3.668   0.934   5.419 -0.8857 -0.6411 -3.5522
16163TIP3    H269905   3.811   0.893   5.393  0.1649 -0.5740  1.1865
16164TIP3   OH269906   3.995   6.417  13.050  0.4240 -0.5146 -0.7599
16164TIP3    H169907   3.975   6.475  13.124 -0.2682  0.1799 -1.4865
16164TIP3    H269908   4.057   6.467  12.997  0.0393 -0.5559 -1.2443
16165TIP3   OH269909   4.910   5.393  14.117 -0.1595  0.3859 -0.2209
16165TIP3    H169910   4.868   5.468  14.075 -1.1193 -0.5657 -1.0536
16165TIP3    H269911   4.900   5.409  14.211 -2.4825  0.2046 -0.3813
16166TIP3   OH269912   3.636   4.929  12.795  0.3484  0.0565  0.6184
16166TIP3    H169913   3.673   4.873  12.863  0.0147 -1.0836 -0.1044
16166TIP3    H269914   3.633   4.873  12.717 -1.8624  0.4156  0.3708
16167TIP3   OH269915   0.597   5.257  14.997  0.2051  0.6947 -1.1544
16167TIP3    H169916   0.503   5.274  14.994  0.1402  0.2498 -2.1011
16167TIP3    H269917   0.617   5.216  14.913  0.8580 -1.2165 -0.1411
16168TIP3   OH269918   1.774   5.745   2.479  0.3763  0.0784  0.4677
16168TIP3    H169919   1.712   5.816   2.496 -2.1133 -2.1677  1.3369
16168TIP3    H269920   1.769   5.731   2.384 -2.1360 -1.4265  0.7520
16169TIP3   OH269921   5.651   5.476   4.061  0.2368  0.3107  0.2171
16169TIP3    H169922   5.682   5.548   4.007 -1.8507  1.2329  0.1485
16169TIP3    H269923   5.575   5.442   4.014  0.6601 -1.3845  0.7008
16170TIP3   OH269924   4.496   3.427  11.217 -0.2730 -0.4115 -0.5714
16170TIP3    H169925   4.462   3.406  11.130 -0.2454 -1.3633 -0.3583
16170TIP3    H269926   4.590   3.440  11.204 -0.2175 -0.8543 -0.6427
16171TIP3   OH269927   2.894   0.143  16.142 -0.5159 -0.8013  0.2604
16171TIP3    H169928   2.847   0.078  16.195  1.2640 -2.9452 -0.6149
16171TIP3    H269929   2.830   0.170  16.076 -0.9294 -2.8767 -0.2886
16172TIP3   OH269930   2.859   6.589  15.045  0.1597 -0.2394 -0.5004
16172TIP3    H169931   2.932   6.574  14.985  1.1736  2.2825 -0.0578
16172TIP3    H269932   2.900   6.627  15.123 -1.4556 -0.3502  0.4450
16173TIP3   OH269933   4.474   6.648   4.049  0.3833  0.1136  0.0830
16173TIP3    H169934   4.401   6.588   4.064  0.1082  0.2693 -0.5976
16173TIP3    H269935   4.469   6.711   4.121 -0.3017  0.2671 -0.0981
16174TIP3   OH269936   0.929   2.319  15.676 -0.0959 -0.0566  0.2268
16174TIP3    H169937   0.862   2.364  15.624  1.0625  0.6527 -0.7247
16174TIP3    H269938   0.894   2.317  15.765 -1.6707 -0.3327 -0.3675
16175TIP3   OH269939   1.655   4.142   2.401 -0.1124 -0.3739 -0.6448
16175TIP3    H169940   1.682   4.054   2.425 -0.5275 -0.7648 -1.5510
16175TIP3    H269941   1.628   4.183   2.483 -0.2332 -1.2019 -0.2632
16176TIP3   OH269942   0.053   3.778  14.744  0.4580 -0.2985  0.2843
16176TIP3    H169943  -0.006   3.853  14.744 -1.0947 -1.4783 -0.2026
16176TIP3    H269944   0.138   3.814  14.718 -0.4374  1.1420 -0.7529
16177TIP3   OH269945   1.604   2.989  15.133 -0.6086 -0.2064  0.1225
16177TIP3    H169946   1.584   3.068  15.184  0.1789  0.2532 -0.2634
16177TIP3    H269947   1.698   2.995  15.115 -0.8243 -0.4539 -1.2022
16178TIP3   OH269948   2.211   1.142  10.884  0.3421  0.6432  0.2364
16178TIP3    H169949   2.293   1.151  10.835 -0.3360 -0.8205 -1.2819
16178TIP3    H269950   2.149   1.198  10.837 -0.4078 -1.0481 -0.9056
16179TIP3   OH269951   2.318   0.321   0.657  0.4693  0.0918 -0.5535
16179TIP3    H169952   2.366   0.316   0.574  2.3354  1.9177  0.3429
16179TIP3    H269953   2.333   0.410   0.689 -1.5792 -0.0362  0.9793
16180TIP3   OH269954   4.646   3.665  16.612  0.6533 -0.2332 -0.5245
16180TIP3    H169955   4.593   3.730  16.656 -0.2265 -1.5600  0.4535
16180TIP3    H269956   4.736   3.688  16.635  0.3433  0.4719  0.0134
16181TIP3   OH269957   0.762   2.431  12.698  0.1490  0.5565 -0.5988
16181TIP3    H169958   0.754   2.338  12.718 -0.1309  0.6749 -0.1190
16181TIP3    H269959   0.853   2.443  12.674  0.5077  0.3699  0.5731
16182TIP3   OH269960   6.153   2.397  11.789 -0.3164  0.1756  0.1731
16182TIP3    H169961   6.106   2.397  11.872  1.0627  0.5104  0.9770
16182TIP3    H269962   6.191   2.485  11.782 -0.9472  0.3726 -1.1373
16183TIP3   OH269963   0.329   4.794  13.561 -0.0346 -0.1685  0.0125
16183TIP3    H169964   0.335   4.875  13.510 -0.5733 -0.5955 -0.7455
16183TIP3    H269965   0.251   4.806  13.615 -0.7385 -0.5927 -0.8742
16184TIP3   OH269966   5.795   3.767  16.884  0.0124 -0.1675  0.3813
16184TIP3    H169967   5.712   3.776  16.838 -0.0830 -3.0235 -0.1991
16184TIP3    H269968   5.839   3.851  16.871 -2.3105  1.0311 -0.2093
16185TIP3   OH269969   3.110   2.429   5.630  0.4888 -0.2897 -0.0820
16185TIP3    H169970   3.126   2.501   5.692 -0.7414  0.2661 -0.3731
16185TIP3    H269971   3.153   2.353   5.669  1.6382  0.5500  0.3421
16186TIP3   OH269972   0.351   1.092  11.918 -0.4138 -0.5777  0.8304
16186TIP3    H169973   0.375   1.017  11.973  1.4046 -0.3117  0.4603
16186TIP3    H269974   0.430   1.110  11.866 -0.5140  2.0267  1.4319
16187TIP3   OH269975   4.507   0.218   4.484  0.0445  0.1789  0.2482
16187TIP3    H169976   4.598   0.209   4.512  0.3831 -0.1991 -0.8937
16187TIP3    H269977   4.455   0.205   4.563  0.9844  0.5716  0.9473
16188TIP3   OH269978   2.085   1.002  13.578  0.0091 -0.3818  0.5843
16188TIP3    H169979   2.133   1.084  13.591  2.3694 -1.7103  0.7399
16188TIP3    H269980   2.056   1.005  13.487 -1.5834  1.3719  1.0683
16189TIP3   OH269981   1.390   1.654  11.689  0.4224  0.3396 -0.7820
16189TIP3    H169982   1.379   1.711  11.614  0.3167  0.2284 -0.8508
16189TIP3    H269983   1.346   1.700  11.761 -0.4962 -0.0938 -1.0506
16190TIP3   OH269984   3.917   1.513  12.863  0.0738 -0.5043 -0.0783
16190TIP3    H169985   4.001   1.550  12.892  2.0127 -2.3692 -2.8248
16190TIP3    H269986   3.873   1.487  12.944  3.2620 -1.7067  1.4524
16191TIP3   OH269987   5.174   6.295  14.670  0.1280 -0.8042  0.0268
16191TIP3    H169988   5.159   6.201  14.682  0.5428 -0.8312  0.3535
16191TIP3    H269989   5.089   6.335  14.690 -0.2524 -1.1538 -0.8159
16192TIP3   OH269990   2.717   6.051  12.592 -0.2670  0.4710 -0.0732
16192TIP3    H169991   2.736   5.964  12.626 -0.8644  0.2187 -0.3712
16192TIP3    H269992   2.735   6.045  12.498 -0.3360  0.6562 -0.0994
16193TIP3   OH269993   3.266   5.953   1.955 -0.2720 -0.6627 -0.0874
16193TIP3    H169994   3.263   5.868   1.998 -0.7427 -0.3765  0.4659
16193TIP3    H269995   3.174   5.979   1.946 -0.1697 -0.5770 -0.9969
16194TIP3   OH269996   0.556   0.616  10.954 -0.8538  0.1900  0.3275
16194TIP3    H169997   0.489   0.622  10.886 -2.1027  0.0446  1.5013
16194TIP3    H269998   0.631   0.577  10.910 -1.6052  0.1442 -0.9748
16195TIP3   OH269999   3.785   3.394  16.019  0.2758  0.1843 -0.0059
16195TIP3    H170000   3.775   3.476  15.970  2.6434  0.6309  0.1079
16195TIP3    H270001   3.835   3.337  15.961  1.6232  0.0956  1.1685
16196TIP3   OH270002   4.377   2.073  11.788  0.1541  0.3579  0.2313
16196TIP3    H170003   4.325   1.994  11.777  0.9213 -0.3222  1.3282
16196TIP3    H270004   4.456   2.057  11.738 -0.7330  1.4988 -1.6527
16197TIP3   OH270005   4.201   6.700  11.090  0.4513  0.3676 -0.8419
16197TIP3    H170006   4.265   6.636  11.059  1.2086  0.8249 -0.2569
16197TIP3    H270007   4.137   6.647  11.138  0.8462 -0.0104 -0.7136
16198TIP3   OH270008   3.735   1.569   5.790 -0.1688  0.0935  0.0285
16198TIP3    H170009   3.651   1.587   5.749 -0.2437 -1.8435 -0.8099
16198TIP3    H270010   3.768   1.654   5.818 -0.8960  1.3447 -2.5991
16199TIP3   OH270011   1.707   5.759   3.238 -0.4032  0.2464 -0.1909
16199TIP3    H170012   1.615   5.733   3.249  0.3792 -2.0082  1.7256
16199TIP3    H270013   1.725   5.742   3.146 -1.1689 -2.1295  0.0182
16200TIP3   OH270014   3.483   6.618  11.906 -0.5391 -0.3686  0.3335
16200TIP3    H170015   3.572   6.629  11.940  0.2043  0.0189 -1.6172
16200TIP3    H270016   3.430   6.679  11.957  0.7986  1.3278 -0.2314
16201TIP3   OH270017   5.627   2.638  11.033 -0.3388  0.5565 -0.3342
16201TIP3    H170018   5.668   2.720  11.006 -1.9291  0.4323 -3.6426
16201TIP3    H270019   5.669   2.571  10.979 -2.1773 -0.0900 -1.0621
16202TIP3   OH270020   5.636   3.079   3.629 -0.1858 -0.2552  0.1535
16202TIP3    H170021   5.544   3.105   3.626 -0.0900  0.0272 -1.5648
16202TIP3    H270022   5.683   3.151   3.587  1.2064  0.8439  3.2885
16203TIP3   OH270023   1.598   1.060  14.568  0.5812  0.1879  1.0725
16203TIP3    H170024   1.517   1.016  14.540  0.8192  0.0150  0.6450
16203TIP3    H270025   1.582   1.153  14.552  1.2368 -0.0105 -1.0665
16204TIP3   OH270026   1.059   1.933   1.193  0.2313  0.2933  0.0672
16204TIP3    H170027   1.142   1.912   1.151  0.6081  1.2497  0.3172
16204TIP3    H270028   1.081   1.996   1.261 -0.6516  0.2996  0.3623
16205TIP3   OH270029   5.688   5.204   2.200 -0.3357 -0.3496  0.7673
16205TIP3    H170030   5.651   5.127   2.244 -2.6223  0.3067  0.1250
16205TIP3    H270031   5.688   5.273   2.267 -0.0690 -0.3884  0.8110
16206TIP3   OH270032   3.697   3.749   1.675  0.1748 -0.0596  0.2473
16206TIP3    H170033   3.775   3.805   1.670 -0.6992  1.0904 -2.1638
16206TIP3    H270034   3.634   3.801   1.726  0.4742 -0.3263  0.8932
16207TIP3   OH270035   0.337   4.384   4.891 -0.4649 -0.6241 -0.4375
16207TIP3    H170036   0.383   4.341   4.819 -0.9674 -1.2175 -0.4072
16207TIP3    H270037   0.246   4.354   4.884 -1.1312  1.4024 -1.1713
16208TIP3   OH270038   6.561   2.917  16.101  0.7754  0.7897 -0.2849
16208TIP3    H170039   6.606   2.953  16.025 -0.1526 -0.2859 -1.3631
16208TIP3    H270040   6.473   2.955  16.098  0.2625 -0.3865 -0.5993
16209TIP3   OH270041   4.320   4.105   2.987 -0.1738  0.2821  0.6188
16209TIP3    H170042   4.290   4.191   2.959  0.1045  0.6587  1.4480
16209TIP3    H270043   4.312   4.050   2.909  1.3179  1.4635 -0.4207
16210TIP3   OH270044   2.031   1.052  12.874  0.1227  0.5720 -0.4209
16210TIP3    H170045   2.127   1.050  12.874  0.1603  0.4908  1.3430
16210TIP3    H270046   2.009   1.145  12.874  0.1845  0.5908 -1.2708
16211TIP3   OH270047   4.866   6.061  16.946 -0.3980  0.7489 -0.2772
16211TIP3    H170048   4.941   6.012  16.982 -0.5596  1.1513  0.6352
16211TIP3    H270049   4.891   6.153  16.956  0.7829  0.9581 -3.7976
16212TIP3   OH270050   0.220   4.050  12.661 -0.3678  0.2989 -0.3941
16212TIP3    H170051   0.262   4.025  12.579  1.2791 -0.8149  0.7335
16212TIP3    H270052   0.149   3.987  12.671  1.3249 -1.5818  0.4844
16213TIP3   OH270053   5.530   5.534   6.195 -0.1955 -0.8506 -0.0115
16213TIP3    H170054   5.518   5.444   6.225 -0.1832 -0.5773  0.8352
16213TIP3    H270055   5.452   5.581   6.226  0.2056 -0.3803  0.3023
16214TIP3   OH270056   4.856   5.661   4.334  0.1174  0.1556 -0.3554
16214TIP3    H170057   4.859   5.660   4.238 -0.3508  0.7291 -0.3855
16214TIP3    H270058   4.911   5.587   4.360  0.5487  0.2136 -1.0541
16215TIP3   OH270059   0.689   2.170  13.113  0.5576  0.4077 -0.4667
16215TIP3    H170060   0.755   2.101  13.108  0.4766  0.3303 -0.4492
16215TIP3    H270061   0.617   2.133  13.164 -0.9074 -0.6579 -3.1183
16216TIP3   OH270062   3.147   0.488  13.803  0.5403 -0.2491  0.3559
16216TIP3    H170063   3.204   0.547  13.754  0.9840 -1.2831 -0.4109
16216TIP3    H270064   3.088   0.546  13.852  0.1170  0.8166 -1.3626
16217TIP3   OH270065   1.554   3.015   1.089 -0.2069 -0.0946  0.3502
16217TIP3    H170066   1.592   2.988   1.172 -0.2567 -2.3801 -0.2956
16217TIP3    H270067   1.622   3.067   1.047  1.1496 -1.7281  0.4346
16218TIP3   OH270068   6.337   5.678  13.722 -0.1170 -0.4207 -0.9999
16218TIP3    H170069   6.322   5.596  13.769 -1.2864  0.3181  0.0070
16218TIP3    H270070   6.286   5.669  13.642 -1.1071 -0.3032 -0.4050
16219TIP3   OH270071   1.513   3.424   0.953 -0.0346 -0.1491 -0.1512
16219TIP3    H170072   1.514   3.396   1.045 -2.3748 -0.4858 -0.1842
16219TIP3    H270073   1.476   3.512   0.955  0.4896  0.0920 -0.7326
16220TIP3   OH270074   4.281   0.386  15.078  0.1077 -0.4131 -0.2770
16220TIP3    H170075   4.241   0.358  15.160 -0.7599  0.9025 -0.2317
16220TIP3    H270076   4.254   0.320  15.014 -0.4311 -0.6518  0.1905
16221TIP3   OH270077   4.065   0.024   1.355  0.0304 -1.0251  0.4066
16221TIP3    H170078   4.152   0.017   1.316 -0.0370  0.1592 -0.0016
16221TIP3    H270079   4.060  -0.049   1.417  2.0085 -0.0489  1.8028
16222TIP3   OH270080   3.371   4.781  13.908 -0.4700 -0.7692  0.1773
16222TIP3    H170081   3.444   4.842  13.905  0.8778 -2.3227 -2.6956
16222TIP3    H270082   3.396   4.716  13.974  0.6963 -1.1592 -0.6151
16223TIP3   OH270083   6.312   3.308  11.190 -0.5159  0.1868 -0.2178
16223TIP3    H170084   6.324   3.360  11.111 -0.4171  0.9809  0.3031
16223TIP3    H270085   6.394   3.260  11.200 -0.4962  0.1488 -0.5516
16224TIP3   OH270086   2.136   0.096  12.221 -0.2513 -0.0336 -0.2567
16224TIP3    H170087   2.152   0.113  12.129 -0.4804 -1.4190 -0.5791
16224TIP3    H270088   2.216   0.053  12.252  0.9822  2.8980  0.9447
16225TIP3   OH270089   5.424   2.996   0.385  0.2252 -0.6266 -0.3301
16225TIP3    H170090   5.415   2.969   0.293 -0.4844  0.2366 -0.5222
16225TIP3    H270091   5.334   3.004   0.417  0.4293 -3.0593  1.1105
16226TIP3   OH270092   5.996   1.389   2.771  0.0076  0.2411 -0.5942
16226TIP3    H170093   5.902   1.404   2.757  0.0737  1.9363  0.5518
16226TIP3    H270094   6.034   1.397   2.683 -1.0617 -2.2676 -1.4028
16227TIP3   OH270095   1.578   0.553  12.529  0.4709 -0.4713  0.2960
16227TIP3    H170096   1.553   0.642  12.505  0.4879 -0.3447  0.7292
16227TIP3    H270097   1.568   0.550  12.624 -0.1418 -1.1298  0.2172
16228TIP3   OH270098   4.857   0.102  12.656 -0.4589  0.1214  0.7087
16228TIP3    H170099   4.834   0.009  12.656 -0.9055  0.2264  0.2392
16228TIP3    H270100   4.854   0.127  12.748 -2.1516  0.0955  0.6957
16229TIP3   OH270101   1.621   4.485   3.018  0.7522 -0.1165  0.6936
16229TIP3    H170102   1.669   4.418   3.067  0.4364  1.0803  2.8085
16229TIP3    H270103   1.666   4.567   3.041  0.4638  0.5393 -0.9472
16230TIP3   OH270104   2.768   6.619   2.325  0.0091  0.4704 -0.1444
16230TIP3    H170105   2.695   6.678   2.303 -1.2389 -0.6205  0.9210
16230TIP3    H270106   2.745   6.536   2.283  0.6958  0.1328  0.1336
16231TIP3   OH270107   5.827   2.346   6.379 -0.0719  0.5751  0.2406
16231TIP3    H170108   5.742   2.389   6.367 -0.5254 -0.7319 -1.7971
16231TIP3    H270109   5.805   2.254   6.393  0.9686 -0.0289 -1.6780
16232TIP3   OH270110   4.626   5.464   1.263  0.0936 -0.5567 -0.5414
16232TIP3    H170111   4.619   5.488   1.355  3.1060  1.3568 -0.6748
16232TIP3    H270112   4.634   5.547   1.217  2.6433 -1.5016 -2.0202
16233TIP3   OH270113   4.091   4.252   4.910 -0.2217  0.2722 -0.4091
16233TIP3    H170114   4.077   4.336   4.953  0.8578  0.9399 -1.3081
16233TIP3    H270115   4.186   4.238   4.914 -0.4710 -1.3241  0.4812
16234TIP3   OH270116   5.999   4.585   0.052 -0.1942 -0.3558  0.5815
16234TIP3    H170117   6.053   4.521   0.098 -0.3343  0.5770  2.0882
16234TIP3    H270118   5.931   4.609   0.114  0.3831  1.9338  0.4021
16235TIP3   OH270119   1.517   5.728   3.512  0.4687 -0.2598 -0.7410
16235TIP3    H170120   1.607   5.745   3.539  0.5166  0.8386 -1.5260
16235TIP3    H270121   1.491   5.651   3.563  1.9295 -0.7644 -0.7191
16236TIP3   OH270122   0.978   5.232  12.349 -0.2188 -0.4272 -0.1596
16236TIP3    H170123   0.899   5.182  12.331  1.1356 -2.8523  0.2520
16236TIP3    H270124   0.964   5.317  12.306 -2.2134 -1.4881 -1.7362
16237TIP3   OH270125   2.705   6.440  15.587  0.0390  0.4064  0.3349
16237TIP3    H170126   2.707   6.534  15.566  0.3174  0.3323  0.0149
16237TIP3    H270127   2.791   6.408  15.561 -0.0305  0.0756  0.5107
16238TIP3   OH270128   5.772   1.809   2.586  0.3644 -0.0872 -0.2163
16238TIP3    H170129   5.860   1.773   2.584 -0.4060 -2.3257  1.7585
16238TIP3    H270130   5.784   1.902   2.602  2.3524 -0.5421  1.2015
16239TIP3   OH270131   1.918   5.601  13.577 -0.1339 -0.1725  0.1712
16239TIP3    H170132   1.989   5.548  13.541  0.0463 -0.5541  1.0651
16239TIP3    H270133   1.941   5.691  13.554 -0.4240 -0.4460 -1.3332
16240TIP3   OH270134   2.032   2.207   2.244  0.4459 -0.5637  0.4450
16240TIP3    H170135   1.946   2.166   2.240  0.3480 -0.3771  0.5672
16240TIP3    H270136   2.057   2.201   2.337  0.3478 -0.1899  0.4989
16241TIP3   OH270137   5.730   3.897   0.143 -0.1612 -0.3241  0.0555
16241TIP3    H170138   5.771   3.914   0.228 -1.8109  1.1180  0.6272
16241TIP3    H270139   5.657   3.839   0.163 -0.4268 -0.1578 -0.4280
16242TIP3   OH270140   4.601   2.439   3.937  0.4201 -0.2379 -0.0657
16242TIP3    H170141   4.596   2.501   4.009  2.7493 -2.0653  1.8545
16242TIP3    H270142   4.650   2.485   3.868  1.5750  0.3015  1.0763
16243TIP3   OH270143   3.653   1.975   3.222  0.1602  0.3243  0.3126
16243TIP3    H170144   3.588   1.963   3.153  2.0606  2.5543 -2.0799
16243TIP3    H270145   3.709   1.898   3.217 -1.4014 -0.9661  1.5001
16244TIP3   OH270146   0.197   0.717   5.581 -0.3712 -0.2778  0.5431
16244TIP3    H170147   0.244   0.635   5.590  1.3273  0.5424 -0.4255
16244TIP3    H270148   0.194   0.753   5.670  0.1714 -0.6982  0.7364
16245TIP3   OH270149   0.941   6.472   4.194  0.5701  0.5472 -0.2969
16245TIP3    H170150   0.876   6.403   4.212 -0.2728  0.7903 -2.2107
16245TIP3    H270151   0.895   6.553   4.217  1.2321  0.5685  1.0479
16246TIP3   OH270152   5.888   0.834   3.080 -0.4933  0.4759  0.1533
16246TIP3    H170153   5.809   0.796   3.119  0.5455 -0.5791  1.3070
16246TIP3    H270154   5.956   0.819   3.144  1.0365 -0.2241 -1.5441
16247TIP3   OH270155   0.761   5.639  13.193  0.0381 -0.5272  0.2695
16247TIP3    H170156   0.700   5.706  13.164  0.6393 -0.1952 -0.2735
16247TIP3    H270157   0.706   5.571  13.232 -0.8681 -1.1006 -1.8744
16248TIP3   OH270158   0.825   1.976   0.612 -0.2640  0.1629 -0.3993
16248TIP3    H170159   0.893   1.935   0.666 -0.0150  1.1225  0.0238
16248TIP3    H270160   0.859   1.968   0.523 -0.4441 -0.9742 -0.3882
16249TIP3   OH270161   3.706   5.314  14.104 -0.0914 -0.2641 -0.3075
16249TIP3    H170162   3.630   5.366  14.129 -0.0559  0.2292 -1.2183
16249TIP3    H270163   3.672   5.226  14.093 -0.1218 -0.5146  1.4114
16250TIP3   OH270164   3.597   4.156  14.935  0.1015 -0.1253  0.5559
16250TIP3    H170165   3.682   4.197  14.921  0.6638 -1.6847 -0.9493
16250TIP3    H270166   3.614   4.086  14.998  0.0758 -0.7929 -0.1634
16251TIP3   OH270167   2.019   3.496  12.638 -0.2798 -0.1625 -0.4141
16251TIP3    H170168   1.992   3.557  12.569  1.6174  0.7415 -0.4136
16251TIP3    H270169   2.078   3.547  12.694 -0.5730 -1.3142  1.0215
16252TIP3   OH270170   3.533   5.512  16.293 -0.1407  0.0915  0.2353
16252TIP3    H170171   3.539   5.527  16.198  0.8285  1.1612  0.4446
16252TIP3    H270172   3.457   5.454  16.303  0.3091 -0.8290 -1.2771
16253TIP3   OH270173   2.958   5.265  12.263 -0.1767 -0.4362 -0.3436
16253TIP3    H170174   2.908   5.211  12.324 -0.1287 -0.7987 -0.6228
16253TIP3    H270175   2.971   5.209  12.186 -2.3105  0.8069 -1.7085
16254TIP3   OH270176   4.258   4.372   2.373 -0.3913  0.2269  0.3737
16254TIP3    H170177   4.303   4.341   2.452 -0.3263  1.7952  0.9762
16254TIP3    H270178   4.289   4.462   2.361  0.9603 -0.5074 -2.4692
16255TIP3   OH270179   6.028   3.874  15.296  0.1114 -0.1719  0.1526
16255TIP3    H170180   5.997   3.847  15.210  0.4209 -1.8129  0.5308
16255TIP3    H270181   5.970   3.947  15.320 -1.6154 -1.3152 -0.3822
16256TIP3   OH270182   5.603   3.048  11.876  0.1040 -0.3993  0.6948
16256TIP3    H170183   5.646   2.966  11.900  1.8083  0.8279  2.1218
16256TIP3    H270184   5.513   3.039  11.906 -0.1880 -2.2961 -0.5827
16257TIP3   OH270185   6.395   2.543   4.153  0.6384 -0.0087  0.1918
16257TIP3    H170186   6.352   2.500   4.079  1.4906 -0.8558  0.1659
16257TIP3    H270187   6.379   2.484   4.227 -1.4826  1.5405  1.0827
16258TIP3   OH270188   0.880   3.418  16.569  0.2452 -0.1259 -0.0780
16258TIP3    H170189   0.911   3.433  16.658 -0.1745  0.8095 -0.0698
16258TIP3    H270190   0.913   3.494  16.519 -0.1146 -0.2803 -0.5602
16259TIP3   OH270191   5.648   3.221  10.976 -0.1212 -0.6606 -0.0457
16259TIP3    H170192   5.653   3.264  10.891 -1.4320  0.3022  0.3342
16259TIP3    H270193   5.562   3.178  10.977  0.3814 -1.7016  0.3306
16260TIP3   OH270194   5.507   0.568  15.332 -0.0008  0.1504  0.1975
16260TIP3    H170195   5.435   0.548  15.392 -1.3915 -0.5887 -1.6204
16260TIP3    H270196   5.484   0.522  15.251  1.6394  1.3437 -1.0068
16261TIP3   OH270197   6.371   5.337  11.392 -0.2879 -0.5458  0.2742
16261TIP3    H170198   6.342   5.275  11.325  0.0508 -0.5139  0.0956
16261TIP3    H270199   6.291   5.358  11.441 -0.5484 -0.5383 -0.1440
16262TIP3   OH270200   0.297   1.233   5.941 -0.0833  0.0772 -0.1149
16262TIP3    H170201   0.257   1.303   5.994 -0.9727 -0.2490 -0.3377
16262TIP3    H270202   0.224   1.195   5.893  0.6676  0.1859 -1.3927
16263TIP3   OH270203   6.692   6.269  11.249 -0.1368  0.2511  0.2308
16263TIP3    H170204   6.758   6.267  11.179 -0.2438  2.6906 -0.0466
16263TIP3    H270205   6.616   6.226  11.212  1.6923 -4.4366  1.2089
16264TIP3   OH270206   1.935   0.306  12.272  0.1143  0.0130 -0.2032
16264TIP3    H170207   2.008   0.254  12.307 -1.2262 -0.6495  1.7851
16264TIP3    H270208   1.880   0.242  12.227 -1.1119 -0.2326  1.5361
16265TIP3   OH270209   4.840   2.236  14.920  0.1914  0.4393  0.0687
16265TIP3    H170210   4.910   2.214  14.858  0.1069 -0.1610  0.1775
16265TIP3    H270211   4.850   2.172  14.990 -0.5522  0.2620  0.0179
16266TIP3   OH270212   0.557   3.001   3.245  0.5525  0.2061 -0.0099
16266TIP3    H170213   0.470   3.011   3.283  0.2233 -0.8184 -0.4708
16266TIP3    H270214   0.565   2.908   3.226  2.0940  0.1478  0.7993
16267TIP3   OH270215   1.356   3.738  10.781 -0.5526  0.4886  0.6164
16267TIP3    H170216   1.360   3.658  10.833 -2.6200  1.2730  2.1532
16267TIP3    H270217   1.417   3.798  10.825 -0.9683  0.5802  1.0775
16268TIP3   OH270218   0.465   2.642   0.634 -0.0438  0.4919 -0.0505
16268TIP3    H170219   0.430   2.684   0.555  0.9843  0.4371 -0.5524
16268TIP3    H270220   0.557   2.670   0.637  0.8665 -2.1242 -0.7144
16269TIP3   OH270221   5.822   4.616   0.387 -0.6221  0.1717 -0.0542
16269TIP3    H170222   5.760   4.556   0.344  0.0247 -0.0840 -0.6351
16269TIP3    H270223   5.773   4.649   0.463 -0.5543 -2.1556  1.1105
16270TIP3   OH270224   0.791   1.124   3.792 -0.4674 -0.1929 -0.0489
16270TIP3    H170225   0.843   1.044   3.786  0.6650  0.4530  0.8087
16270TIP3    H270226   0.765   1.143   3.702  0.6203 -0.6361 -0.4699
16271TIP3   OH270227   2.749   5.689  14.952  0.2158  0.5172 -0.1631
16271TIP3    H170228   2.733   5.595  14.940 -2.2276  1.1639 -3.8186
16271TIP3    H270229   2.682   5.717  15.015  0.3693 -0.0569  0.2569
16272TIP3   OH270230   4.142   2.182  11.287 -0.3965  0.4905 -0.3866
16272TIP3    H170231   4.059   2.182  11.335 -0.5836 -0.7430 -0.6880
16272TIP3    H270232   4.153   2.092  11.257  0.4598  0.9019 -1.3771
16273TIP3   OH270233   1.334   5.051  14.576 -0.0706  0.2317  0.3680
16273TIP3    H170234   1.246   5.025  14.551  0.1664 -1.4708  1.1619
16273TIP3    H270235   1.389   5.022  14.503  0.2999 -2.4308  1.6093
16274TIP3   OH270236   1.410   2.042   3.152 -0.2958  0.2406  0.5412
16274TIP3    H170237   1.391   2.107   3.219 -1.7261  2.1884 -1.5882
16274TIP3    H270238   1.351   1.969   3.173  0.4418  0.0953  2.2647
16275TIP3   OH270239   2.132   6.174   1.662  0.9399 -0.5484 -0.1724
16275TIP3    H170240   2.221   6.144   1.648  1.1975 -0.4951  1.2338
16275TIP3    H270241   2.092   6.108   1.719  0.1680 -0.4299 -0.5562
16276TIP3   OH270242   0.764   6.208   6.099 -0.7322 -0.0530  0.2452
16276TIP3    H170243   0.814   6.155   6.161  0.1543  0.1045 -0.3218
16276TIP3    H270244   0.687   6.155   6.080 -1.2429  0.0787  1.8018
16277TIP3   OH270245   0.423   6.702  16.233 -0.3846  0.5402 -0.0722
16277TIP3    H170246   0.415   6.608  16.246 -1.8558  0.1343 -3.0429
16277TIP3    H270247   0.367   6.721  16.158  2.0430  3.3240 -1.4194
16278TIP3   OH270248   2.856   2.983  15.974 -0.0566  0.1524 -0.4889
16278TIP3    H170249   2.892   2.896  15.991  1.3492  0.9446  0.8604
16278TIP3    H270250   2.762   2.974  15.989  0.3858 -0.5428  2.5461
16279TIP3   OH270251   0.688   1.039  16.622 -0.5350 -0.4883  0.2096
16279TIP3    H170252   0.602   1.060  16.587 -0.5929 -1.4116 -0.2359
16279TIP3    H270253   0.676   1.039  16.717 -0.6315  0.9701  0.2285
16280TIP3   OH270254   1.003   3.088  15.643 -0.0808  0.4993 -0.1859
16280TIP3    H170255   0.996   3.134  15.560 -1.5951  0.3428 -0.1748
16280TIP3    H270256   0.980   2.997  15.623 -2.1006  0.7686  0.6420
16281TIP3   OH270257   0.172   6.504  17.127  0.0192 -0.2927 -0.2732
16281TIP3    H170258   0.092   6.521  17.177 -1.3418 -1.1538 -2.0199
16281TIP3    H270259   0.242   6.541  17.180 -1.3931 -0.5156  1.8925
16282TIP3   OH270260   4.818   6.214   3.482  0.3345 -0.1435 -0.0517
16282TIP3    H170261   4.742   6.269   3.464  0.3135  0.0281  0.5440
16282TIP3    H270262   4.787   6.125   3.465 -0.5849 -0.2638  1.9639
16283TIP3   OH270263   3.592   3.955  16.966  0.6365  0.0270  0.2220
16283TIP3    H170264   3.679   3.987  16.946  0.4388 -0.3534 -1.4433
16283TIP3    H270265   3.566   3.905  16.888 -1.3752  0.7918  0.3292
16284TIP3   OH270266   2.988   3.326  11.495 -0.5410 -0.0393  0.2468
16284TIP3    H170267   3.050   3.280  11.552  0.6366  0.7465 -0.3755
16284TIP3    H270268   3.029   3.326  11.409  0.6270  4.0039  0.5990
16285TIP3   OH270269   5.467   1.770   5.490 -0.0642  0.3193  0.4449
16285TIP3    H170270   5.559   1.781   5.516  0.1480  0.7368 -0.4359
16285TIP3    H270271   5.431   1.858   5.488  0.0985  0.3855 -1.1978
16286TIP3   OH270272   2.290   5.795   3.221 -0.1286  0.9597 -0.0471
16286TIP3    H170273   2.213   5.738   3.217  0.3891  0.2359 -0.0441
16286TIP3    H270274   2.259   5.876   3.259 -0.4776 -0.0676  1.9933
16287TIP3   OH270275   6.300   2.742  16.859  1.0616 -0.0669 -0.5767
16287TIP3    H170276   6.215   2.704  16.839  0.8070  0.3570 -0.3199
16287TIP3    H270277   6.308   2.816  16.799  0.8377  0.4529  0.0155
16288TIP3   OH270278   0.155   4.666   6.152 -0.7544  0.8196 -0.0651
16288TIP3    H170279   0.126   4.624   6.233 -0.7632  1.6032  0.3510
16288TIP3    H270280   0.075   4.699   6.111 -0.9391 -0.9432 -1.2143
16289TIP3   OH270281   2.283   2.158  11.972 -0.1110  0.3572  0.3223
16289TIP3    H170282   2.344   2.227  11.947 -0.0084 -0.4338 -1.7917
16289TIP3    H270283   2.335   2.078  11.974 -0.8332 -0.1457 -0.3630
16290TIP3   OH270284   4.279   2.288   3.347  0.3973 -0.3658  0.1315
16290TIP3    H170285   4.372   2.267   3.351  1.3603  2.4953 -2.5891
16290TIP3    H270286   4.247   2.244   3.269 -0.9110 -2.2356  1.6441
16291TIP3   OH270287   0.562   0.942   4.831 -0.1111 -0.3080 -0.0951
16291TIP3    H170288   0.541   0.849   4.821 -1.0982 -0.0431 -0.5831
16291TIP3    H270289   0.502   0.986   4.771 -0.7655  0.7709  1.3295
16292TIP3   OH270290   0.233   4.623   0.374  0.4168 -0.5404  0.7004
16292TIP3    H170291   0.232   4.535   0.336  0.0437 -1.6536  3.0701
16292TIP3    H270292   0.307   4.622   0.435  0.3326  0.7700  0.8579
16293TIP3   OH270293   2.475   5.389   3.670  0.0561 -0.1026  0.1866
16293TIP3    H170294   2.512   5.464   3.717  2.8176 -1.6591  0.7228
16293TIP3    H270295   2.492   5.314   3.726  0.2552 -1.5566 -1.7014
16294TIP3   OH270296   5.067   1.383  14.409 -0.4070 -0.2038 -0.1009
16294TIP3    H170297   5.032   1.471  14.423 -2.9364 -1.2737  0.9403
16294TIP3    H270298   5.155   1.397  14.374 -0.9652  2.7172 -0.5747
16295TIP3   OH270299   1.426   5.301   3.194 -0.7719 -0.0188 -0.1520
16295TIP3    H170300   1.384   5.308   3.280 -0.2174 -0.1143  0.1345
16295TIP3    H270301   1.414   5.209   3.169 -1.1094  0.0559 -0.2735
16296TIP3   OH270302   4.562   6.343  12.437  0.5697  0.6793 -0.2436
16296TIP3    H170303   4.500   6.370  12.505 -0.9322  0.3871 -1.4465
16296TIP3    H270304   4.546   6.404  12.365  2.0736  0.9279 -0.4050
16297TIP3   OH270305   4.665   0.457  14.095 -0.4779 -0.4742 -0.0497
16297TIP3    H170306   4.703   0.375  14.064  1.0506 -0.0138  0.4789
16297TIP3    H270307   4.703   0.469  14.182 -0.9611  0.6051  0.0248
16298TIP3   OH270308   2.861   0.443   5.600 -0.3577  0.1210 -0.0988
16298TIP3    H170309   2.880   0.523   5.650 -0.3068 -1.3445  2.4250
16298TIP3    H270310   2.765   0.438   5.599 -0.3569 -0.2173  0.5675
16299TIP3   OH270311   0.116   4.435  13.100 -0.2526 -0.0986 -0.1385
16299TIP3    H170312   0.148   4.422  13.011  0.3028 -2.0293  0.2969
16299TIP3    H270313   0.178   4.496  13.140  0.2467 -0.2423 -0.6810
16300TIP3   OH270314   4.136   1.765  15.969  0.1509  0.2169  0.3573
16300TIP3    H170315   4.046   1.750  15.937  0.2948  0.4869 -0.1895
16300TIP3    H270316   4.125   1.823  16.044 -0.1058  0.5499  0.0664
16301TIP3   OH270317   5.388   6.652  13.032 -0.4212 -0.1779  0.0780
16301TIP3    H170318   5.375   6.746  13.020 -1.1381 -0.4155 -1.0657
16301TIP3    H270319   5.437   6.624  12.955 -0.4087 -0.7950  0.3024
16302TIP3   OH270320   3.251   3.326  13.539  0.2007 -0.1386  0.5646
16302TIP3    H170321   3.189   3.384  13.494  0.9922 -0.8452 -1.5307
16302TIP3    H270322   3.332   3.377  13.544  0.3666 -0.3882  0.4101
16303TIP3   OH270323   5.185   0.032   2.948  0.5048 -0.0783 -0.2098
16303TIP3    H170324   5.160   0.018   3.039  4.8443  0.8258  1.3598
16303TIP3    H270325   5.212  -0.054   2.916  2.1338  0.0948  0.5812
16304TIP3   OH270326   2.093   0.540   0.794 -0.5635 -0.3857 -0.7729
16304TIP3    H170327   2.101   0.477   0.865 -0.1539  0.4428 -0.0628
16304TIP3    H270328   2.183   0.553   0.763 -0.9657 -2.5188 -3.0677
16305TIP3   OH270329   2.601   1.523  14.859  0.1761 -0.3765 -0.5963
16305TIP3    H170330   2.570   1.515  14.950 -0.2175  1.7663 -0.4899
16305TIP3    H270331   2.521   1.533  14.807  0.4649  0.4700 -0.9002
16306TIP3   OH270332   5.864   1.286   3.537  0.2904 -0.1657  0.3421
16306TIP3    H170333   5.957   1.286   3.559  0.2946 -0.2389  0.3247
16306TIP3    H270334   5.821   1.250   3.615 -0.0753  3.1630  1.8358
16307TIP3   OH270335   4.404   6.464  12.641  0.0043  0.0604 -0.0515
16307TIP3    H170336   4.335   6.404  12.669  0.1521  0.4262  1.1537
16307TIP3    H270337   4.367   6.510  12.566 -0.5647 -0.6721 -0.2319
16308TIP3   OH270338   3.988   3.140  15.481 -0.4999  0.5473  0.0729
16308TIP3    H170339   4.078   3.171  15.472 -0.8704  1.2710 -1.7485
16308TIP3    H270340   3.992   3.072  15.548  1.3767  0.6178  0.0858
16309TIP3   OH270341   4.237   3.202   3.994  0.0927  0.7651  0.3134
16309TIP3    H170342   4.198   3.234   3.912  0.2406  0.2047  0.0218
16309TIP3    H270343   4.203   3.261   4.061  2.5498  3.4057 -0.5276
16310TIP3   OH270344   1.471   2.187  15.895  0.7010  0.5445 -0.3212
16310TIP3    H170345   1.445   2.170  15.804  0.1640 -0.6744  0.0512
16310TIP3    H270346   1.506   2.276  15.893 -2.9247  2.1278 -0.9800
16311TIP3   OH270347   5.819   5.252  14.611  0.4528 -0.0099 -0.3351
16311TIP3    H170348   5.804   5.339  14.647 -1.3591 -2.0853  4.9031
16311TIP3    H270349   5.909   5.231  14.636 -0.1757 -0.7064  1.5810
16312TIP3   OH270350   1.273   2.172   5.417 -0.5304 -0.0582  0.3157
16312TIP3    H170351   1.358   2.174   5.373 -0.1486  0.9525  1.0672
16312TIP3    H270352   1.293   2.187   5.509 -1.6116  1.5846  0.3340
16313TIP3   OH270353   2.282   5.715  12.619  0.0163 -0.1622  0.1160
16313TIP3    H170354   2.322   5.727  12.705 -0.4194 -1.4397  0.5137
16313TIP3    H270355   2.343   5.659  12.571  0.8455  1.4937 -0.8617
16314TIP3   OH270356   6.630   6.452  14.463  0.3696 -0.0633 -0.6312
16314TIP3    H170357   6.560   6.516  14.478  1.1419  0.9148 -1.0491
16314TIP3    H270358   6.653   6.463  14.371  0.2083 -1.2882 -0.8390
16315TIP3   OH270359   4.982   5.293  15.170  0.3022 -0.4212 -0.3754
16315TIP3    H170360   5.048   5.357  15.146  0.3363 -1.1101 -2.3587
16315TIP3    H270361   4.967   5.243  15.089 -0.7874 -1.9338  0.7009
16316TIP3   OH270362   4.194   4.041   1.801 -0.1429 -0.4020 -0.5556
16316TIP3    H170363   4.231   4.044   1.713  0.7271 -0.9222 -0.2097
16316TIP3    H270364   4.162   3.951   1.811 -0.7735 -0.1859 -0.5451
16317TIP3   OH270365   4.307   5.705   1.555  0.5291 -0.0446 -0.5112
16317TIP3    H170366   4.268   5.729   1.471 -0.0108 -0.0817 -0.2703
16317TIP3    H270367   4.238   5.658   1.601  0.5663  0.6253  0.2559
16318TIP3   OH270368   1.949   1.597  11.270 -0.0224  0.0172  0.1222
16318TIP3    H170369   1.981   1.607  11.180  0.3328 -1.3080  0.0710
16318TIP3    H270370   2.027   1.603  11.325 -0.1599  0.2451  0.2949
16319TIP3   OH270371   3.158   3.976  12.102 -0.1282 -0.5753  0.1495
16319TIP3    H170372   3.136   3.883  12.103  1.3777 -0.9852 -0.9027
16319TIP3    H270373   3.133   4.006  12.014  0.9984 -0.4446 -0.1486
16320TIP3   OH270374   5.343   3.134  16.710  0.1903  0.7478 -0.3095
16320TIP3    H170375   5.338   3.213  16.764 -0.5385  0.2563  0.3707
16320TIP3    H270376   5.303   3.160  16.627  0.6772  1.3105 -0.3765
16321TIP3   OH270377   4.794   3.324  10.932  0.1844  0.1515  0.2601
16321TIP3    H170378   4.741   3.329  10.853  0.8628  2.2155 -0.1237
16321TIP3    H270379   4.838   3.409  10.938 -1.3926  0.9358  3.9467
16322TIP3   OH270380   6.549   0.631   1.975  0.6371 -0.2889  0.1843
16322TIP3    H170381   6.460   0.634   2.011 -1.0013  3.8313 -3.2779
16322TIP3    H270382   6.557   0.543   1.939 -2.5562 -0.5129 -0.2801
16323TIP3   OH270383   1.001   3.374  10.743 -0.5622  0.1999  0.1374
16323TIP3    H170384   1.052   3.439  10.695 -1.1167 -0.0047 -0.7515
16323TIP3    H270385   0.951   3.328  10.675 -2.3339  0.7368  1.0275
16324TIP3   OH270386   3.364   3.736  12.626  0.0301  0.5368  0.0306
16324TIP3    H170387   3.421   3.683  12.569  0.1157  0.2251  0.4028
16324TIP3    H270388   3.343   3.813  12.573 -0.4406 -0.0622 -0.6728
16325TIP3   OH270389   3.750   4.649  14.340  0.0079 -0.5922 -0.3996
16325TIP3    H170390   3.668   4.693  14.315  1.0221  0.6348 -1.8115
16325TIP3    H270391   3.791   4.708  14.404  1.2811  0.5395 -2.1519
16326TIP3   OH270392   4.766   1.982  15.938 -0.2524  0.2145 -0.2220
16326TIP3    H170393   4.738   1.910  15.880 -1.5384  1.1010 -0.7391
16326TIP3    H270394   4.717   1.968  16.019 -0.0157  0.1404 -0.0923
16327TIP3   OH270395   6.493   3.576  13.453  0.1945 -0.1109 -0.0929
16327TIP3    H170396   6.523   3.667  13.449  1.0290 -0.3784 -0.2235
16327TIP3    H270397   6.430   3.575  13.525  1.5341  0.2202  1.1561
16328TIP3   OH270398   0.188   1.779  12.436 -0.1702 -0.3565 -0.1000
16328TIP3    H170399   0.096   1.783  12.463  0.0879  1.5299  0.6562
16328TIP3    H270400   0.187   1.731  12.354 -1.5070 -2.6233  1.1304
16329TIP3   OH270401   0.917   4.806  16.211  0.1459 -0.6702  0.0553
16329TIP3    H170402   0.823   4.823  16.204  0.9156  3.9716 -2.7356
16329TIP3    H270403   0.931   4.729  16.156 -1.7409  0.1337 -1.6865
16330TIP3   OH270404   0.043   5.038  11.387 -0.6107  0.2774 -0.5048
16330TIP3    H170405   0.114   5.100  11.369 -1.8900  1.7510 -0.7160
16330TIP3    H270406  -0.011   5.083  11.453 -1.0027 -1.0984  0.1424
16331TIP3   OH270407   6.154   0.639   5.982 -0.1974 -0.2471 -0.2906
16331TIP3    H170408   6.166   0.661   6.074  1.0747 -0.0857 -0.4759
16331TIP3    H270409   6.096   0.708   5.948 -1.3834 -0.7966  0.5664
16332TIP3   OH270410   4.865   0.990   0.620  0.1194  0.1006  0.3107
16332TIP3    H170411   4.771   0.983   0.639  0.2360 -0.3673  0.7590
16332TIP3    H270412   4.875   0.953   0.533  0.0053 -0.6971  0.6258
16333TIP3   OH270413   5.195   5.466  11.556 -0.9097 -0.1244 -0.2993
16333TIP3    H170414   5.101   5.468  11.575 -0.6477  0.6093  1.0358
16333TIP3    H270415   5.237   5.466  11.642  0.3214 -2.1481 -0.8268
16334TIP3   OH270416   5.092   4.042  14.459  0.2003 -0.3768 -1.0290
16334TIP3    H170417   5.082   4.053  14.365 -2.2034  0.6064 -0.7241
16334TIP3    H270418   5.045   3.960  14.479 -0.9736  0.3993 -0.4845
16335TIP3   OH270419   1.473   2.128   1.132 -0.0757  0.0275  0.8907
16335TIP3    H170420   1.543   2.174   1.086 -0.0795  1.2300  2.0185
16335TIP3    H270421   1.393   2.177   1.111 -0.1634  0.2423  1.6684
16336TIP3   OH270422   1.802   0.754  16.474 -0.4412  0.1602 -0.6952
16336TIP3    H170423   1.862   0.699  16.424 -0.6950  1.3181 -2.3630
16336TIP3    H270424   1.826   0.738  16.566 -0.4013 -2.5443 -1.0865
16337TIP3   OH270425   2.611   2.708   3.183  0.3199  0.4034 -0.5213
16337TIP3    H170426   2.539   2.771   3.187 -0.3110 -0.1246 -2.3079
16337TIP3    H270427   2.586   2.640   3.245  0.8672  1.6991  1.2169
16338TIP3   OH270428   0.337   0.818  11.271  0.2128  0.1361  0.1402
16338TIP3    H170429   0.340   0.912  11.290  0.4644  0.2888 -0.6080
16338TIP3    H270430   0.243   0.799  11.258  0.0313  0.0133  1.5283
16339TIP3   OH270431   6.684   6.205   2.038 -0.4932  0.0789  0.0305
16339TIP3    H170432   6.711   6.140   2.103 -0.6253  0.1870  0.1962
16339TIP3    H270433   6.738   6.282   2.057  0.9695 -0.5601 -1.3111
16340TIP3   OH270434   6.173   5.850  14.966 -0.3297  0.5537  0.3153
16340TIP3    H170435   6.144   5.858  14.875  0.5733 -1.5753 -0.2400
16340TIP3    H270436   6.093   5.850  15.017 -1.3245 -2.8456 -0.9658
16341TIP3   OH270437   3.490   0.439   1.292 -0.3454  0.3582 -0.9056
16341TIP3    H170438   3.506   0.528   1.324  2.2082  0.1068 -1.2483
16341TIP3    H270439   3.533   0.382   1.356  1.9885 -0.3122 -2.9081
16342TIP3   OH270440   1.507   2.038   5.288  0.1088 -0.1218 -0.1372
16342TIP3    H170441   1.590   2.024   5.244  0.5343 -0.1875  0.6679
16342TIP3    H270442   1.516   2.124   5.329  0.8406 -1.2312  2.2062
16343TIP3   OH270443   0.969   2.044   3.059  0.1092 -0.3797 -0.4730
16343TIP3    H170444   1.053   2.011   3.028 -0.0936 -0.0675 -1.3838
16343TIP3    H270445   0.952   2.122   3.006 -0.1715  0.2829  0.5621
16344TIP3   OH270446   1.049   0.585  14.650  0.5517 -0.2809  0.4993
16344TIP3    H170447   0.961   0.606  14.683  1.2490  1.6365  1.2652
16344TIP3    H270448   1.107   0.609  14.721  1.8211  0.1139 -0.6324
16345TIP3   OH270449   6.404   6.285   2.049  0.3674  0.1006 -0.4220
16345TIP3    H170450   6.476   6.230   2.019 -0.9435 -0.7732 -2.1116
16345TIP3    H270451   6.341   6.285   1.977 -0.4584  2.4714  0.1852
16346TIP3   OH270452   5.073   5.044   0.740  0.4567  0.3673 -0.0527
16346TIP3    H170453   5.012   4.975   0.715  1.7365 -0.6390 -0.5347
16346TIP3    H270454   5.020   5.123   0.745 -1.0188 -0.6111  0.3386
16347TIP3   OH270455   5.285   2.423  13.527 -0.8073  0.8593  0.3426
16347TIP3    H170456   5.259   2.515  13.532 -2.0796  0.4580  2.3841
16347TIP3    H270457   5.233   2.380  13.594  0.4408 -1.2145  0.0689
16348TIP3   OH270458   3.875   2.048  16.212  0.5738  0.0605  0.1655
16348TIP3    H170459   3.883   1.961  16.252 -0.1165 -0.0832  0.0084
16348TIP3    H270460   3.947   2.099  16.250  0.9530 -0.5629  0.2987
16349TIP3   OH270461   6.747   0.777   0.242  0.2886 -0.2361 -0.0035
16349TIP3    H170462   6.792   0.859   0.260  0.2364 -0.4715  1.2943
16349TIP3    H270463   6.668   0.780   0.296  0.9555 -1.6985  1.1368
16350TIP3   OH270464   4.108   3.168   2.388  0.3455 -0.1999  0.6148
16350TIP3    H170465   4.069   3.134   2.308  0.3043 -0.2047  0.6369
16350TIP3    H270466   4.096   3.263   2.381  2.7967  0.0739 -0.6951
16351TIP3   OH270467   5.829   5.898  14.799  0.4088  0.3335  0.3028
16351TIP3    H170468   5.913   5.895  14.753  1.3315 -0.3941  1.9450
16351TIP3    H270469   5.852   5.925  14.889 -1.1858  0.6761  0.6315
16352TIP3   OH270470   4.982   1.342   1.361 -0.0111  0.1493 -0.0431
16352TIP3    H170471   4.933   1.298   1.292  0.0223 -2.7693  1.6199
16352TIP3    H270472   5.072   1.342   1.330  0.2334 -2.3856  0.4525
16353TIP3   OH270473   5.404   5.361   3.964 -0.0103  0.1126  0.0177
16353TIP3    H170474   5.384   5.298   4.033  2.0586 -1.8881 -1.0756
16353TIP3    H270475   5.324   5.365   3.911 -0.7561 -0.2363  1.0969
16354TIP3   OH270476   5.165   0.855  14.724 -0.3218 -0.4170  0.6604
16354TIP3    H170477   5.161   0.950  14.723 -0.8832 -0.3790 -2.7280
16354TIP3    H270478   5.257   0.834  14.712 -0.0163 -0.4071  2.5747
16355TIP3   OH270479   0.650   5.009   2.379 -0.4895 -0.3268  0.7535
16355TIP3    H170480   0.661   5.036   2.470  0.2663 -0.0231  0.5776
16355TIP3    H270481   0.587   5.071   2.343  0.6026  0.7156  0.5790
16356TIP3   OH270482   6.228   3.979  13.593  0.3567 -0.3128  0.0312
16356TIP3    H170483   6.307   3.932  13.618  0.3175 -0.2348  0.3053
16356TIP3    H270484   6.236   3.992  13.498 -0.7187 -2.9507 -0.5287
16357TIP3   OH270485   1.315   6.180   4.759  0.4427  0.2561 -0.1845
16357TIP3    H170486   1.324   6.275   4.757 -1.4056  0.5206  1.4582
16357TIP3    H270487   1.232   6.163   4.714  1.6178 -0.8019 -2.1172
16358TIP3   OH270488   0.558   2.731   3.165  0.1348 -0.3442 -0.0288
16358TIP3    H170489   0.567   2.773   3.080 -1.7304 -0.6788 -0.4241
16358TIP3    H270490   0.573   2.638   3.148 -1.5967 -0.6063 -0.2923
16359TIP3   OH270491   0.035   5.877  16.890 -0.0199 -0.0547  0.7553
16359TIP3    H170492   0.100   5.842  16.951  0.2053 -2.6462 -0.8103
16359TIP3    H270493  -0.047   5.876  16.938  0.7277  1.4352  2.1402
16360TIP3   OH270494   2.124   4.475  16.431 -0.4556  0.5047 -0.4319
16360TIP3    H170495   2.147   4.550  16.485 -0.0452 -0.2976  0.5502
16360TIP3    H270496   2.028   4.474  16.428 -0.6328 -0.8035  2.3712
16361TIP3   OH270497   3.720   3.688  11.615  0.1784  0.0144  0.2140
16361TIP3    H170498   3.751   3.777  11.636  0.9145  0.1885 -1.3782
16361TIP3    H270499   3.670   3.700  11.534  0.8796 -1.0971 -0.4112
16362TIP3   OH270500   5.833   0.967  16.360  0.2972  0.5044  0.3863
16362TIP3    H170501   5.843   0.872  16.349  1.8563  0.7996 -1.2778
16362TIP3    H270502   5.740   0.982  16.349  0.1146 -0.7817 -0.0516
16363TIP3   OH270503   3.833   5.872   0.785  0.0435 -0.0552  0.5189
16363TIP3    H170504   3.893   5.820   0.731 -0.7070  0.4826 -0.9066
16363TIP3    H270505   3.751   5.821   0.785  0.0817 -0.1265  1.3061
16364TIP3   OH270506   3.799   0.829   5.100  0.9110  0.4645  0.0467
16364TIP3    H170507   3.773   0.740   5.126  0.9463  1.0565  2.3755
16364TIP3    H270508   3.728   0.859   5.043  0.0319 -0.4766  0.6038
16365TIP3   OH270509   6.498   1.911  17.001 -0.3441 -0.3067 -0.7918
16365TIP3    H170510   6.497   2.000  17.036 -2.0538 -0.2307 -0.9269
16365TIP3    H270511   6.499   1.854  17.079 -0.3050 -0.1645 -0.6890
16366TIP3   OH270512   4.267   5.682  16.112 -0.1402 -0.0276 -0.0907
16366TIP3    H170513   4.202   5.691  16.182  0.2844 -1.1884  0.4918
16366TIP3    H270514   4.221   5.636  16.042 -0.1263 -0.2878  0.0686
16367TIP3   OH270515   1.395   4.644  12.465  0.1955 -1.1881 -0.1566
16367TIP3    H170516   1.440   4.629  12.381 -0.8821 -0.9691 -0.7959
16367TIP3    H270517   1.329   4.576  12.470  0.7851 -1.7070  0.9352
16368TIP3   OH270518   5.979   1.246   0.181  0.5927  0.5386 -0.7567
16368TIP3    H170519   5.975   1.315   0.115  0.7048 -0.7287 -2.1463
16368TIP3    H270520   5.893   1.203   0.176  1.2821 -0.8302 -1.5400
16369TIP3   OH270521   3.531   6.107   3.258  0.6064  0.7819 -0.1061
16369TIP3    H170522   3.543   6.192   3.215  0.4387  0.7068 -0.3009
16369TIP3    H270523   3.616   6.088   3.297  1.5277 -0.2630 -2.4045
16370TIP3   OH270524   3.387   0.911  11.441  0.2454  0.0310  0.0608
16370TIP3    H170525   3.299   0.940  11.465 -0.2122 -0.3858 -1.0224
16370TIP3    H270526   3.405   0.837  11.499 -0.5529 -0.5316 -0.3832
16371TIP3   OH270527   3.366   4.345  15.013  0.2830  0.0918 -0.1021
16371TIP3    H170528   3.422   4.284  15.061  0.7377  0.0139 -0.7103
16371TIP3    H270529   3.342   4.411  15.077  1.8281  0.6251 -0.0409
16372TIP3   OH270530   3.927   5.983   5.753 -0.5970  1.2427 -0.8343
16372TIP3    H170531   3.878   5.919   5.701 -2.0740  0.6766  1.1531
16372TIP3    H270532   4.016   5.979   5.717 -0.2689 -2.8928 -0.0339
16373TIP3   OH270533   6.139   3.409  14.657 -0.2923  0.3682  0.2422
16373TIP3    H170534   6.112   3.431  14.568  0.0166  0.5428  0.1909
16373TIP3    H270535   6.235   3.403  14.653 -0.3749 -1.8940  0.0424
16374TIP3   OH270536   4.866   0.585  16.531  0.5261  0.4670  0.4150
16374TIP3    H170537   4.776   0.593  16.561 -0.0448 -1.3810 -0.6284
16374TIP3    H270538   4.886   0.670  16.491 -1.6013  0.1820 -1.4469
16375TIP3   OH270539   6.188   4.996   0.704  0.4668 -0.3440  0.6891
16375TIP3    H170540   6.200   5.065   0.640 -0.8738 -0.9210 -0.2203
16375TIP3    H270541   6.109   5.020   0.752 -0.4023 -1.5465 -0.0809
16376TIP3   OH270542   0.985   2.024  11.978  0.1420 -0.4537  0.0377
16376TIP3    H170543   0.986   1.977  11.894  0.8807 -0.2613 -0.0628
16376TIP3    H270544   0.997   1.955  12.044  1.4903 -0.3858 -0.1250
16377TIP3   OH270545   2.256   3.372  13.481  0.5526  0.1175 -0.0553
16377TIP3    H170546   2.199   3.443  13.453  0.5941 -0.6493 -2.3953
16377TIP3    H270547   2.311   3.409  13.550  0.2633  2.1984 -0.8845
16378TIP3   OH270548   6.181   4.132  16.002 -0.2344  0.2751  0.3782
16378TIP3    H170549   6.261   4.165  16.044 -0.3575  0.0320  0.8032
16378TIP3    H270550   6.112   4.144  16.067 -0.4334 -0.0629  0.2331
16379TIP3   OH270551   6.766   1.038  12.497  0.1965 -0.1756  0.0800
16379TIP3    H170552   6.750   1.099  12.569 -1.6307 -1.5137  0.8642
16379TIP3    H270553   6.684   1.037  12.447  1.2564  0.3617 -1.7967
16380TIP3   OH270554   0.503   0.073  16.696  0.0370 -0.3341 -0.2586
16380TIP3    H170555   0.528   0.017  16.623  1.1289 -1.1434  0.7050
16380TIP3    H270556   0.417   0.042  16.722 -0.1102 -0.4131 -0.8215
16381TIP3   OH270557   2.946   4.882  12.283  0.5387 -0.1665 -0.5208
16381TIP3    H170558   2.874   4.846  12.231  0.0837 -0.9581  0.6014
16381TIP3    H270559   2.953   4.823  12.358  2.4916 -0.1939 -0.6921
16382TIP3   OH270560   2.390   5.713   3.524  0.3577 -0.7004 -0.0718
16382TIP3    H170561   2.301   5.711   3.559 -0.4713  1.0787 -1.8598
16382TIP3    H270562   2.446   5.691   3.599 -1.3842  1.1835  1.9059
16383TIP3   OH270563   5.017   1.439   0.583  0.0522  0.0296  0.1701
16383TIP3    H170564   5.066   1.473   0.508  0.8772 -2.6620 -0.6232
16383TIP3    H270565   5.023   1.508   0.649  0.8621  1.7285 -1.5908
16384TIP3   OH270566   5.164   5.681   2.916 -0.5079 -0.4270  0.8747
16384TIP3    H170567   5.083   5.675   2.968  0.4014  0.5737  2.4700
16384TIP3    H270568   5.233   5.690   2.980  0.7039  0.7123 -0.5241
16385TIP3   OH270569   5.826   2.106   0.683 -0.1742  0.7942 -0.6738
16385TIP3    H170570   5.746   2.155   0.666 -0.1108  0.9042 -0.6557
16385TIP3    H270571   5.896   2.170   0.672 -0.0629  0.5971 -1.1110
16386TIP3   OH270572   2.542   0.483   2.260  0.1741  0.8837  0.4754
16386TIP3    H170573   2.459   0.517   2.228 -0.0427  0.4353  0.5598
16386TIP3    H270574   2.581   0.556   2.309 -0.4657  0.8903  0.9811
16387TIP3   OH270575   2.469   5.702   4.144  0.0459 -0.3038 -0.4450
16387TIP3    H170576   2.404   5.692   4.214  0.6056  1.0977  0.3016
16387TIP3    H270577   2.425   5.666   4.066 -0.4395 -2.3054  0.6632
16388TIP3   OH270578   3.715   2.071   4.128  0.5055 -0.2891 -0.2292
16388TIP3    H170579   3.683   2.125   4.055  0.5871  0.7520  0.4756
16388TIP3    H270580   3.710   1.981   4.095 -0.0847  0.1017 -1.2795
16389TIP3   OH270581   6.094   1.625   1.730 -0.5599 -0.5154 -0.3640
16389TIP3    H170582   6.136   1.710   1.735 -0.2327 -0.7391  1.8181
16389TIP3    H270583   6.021   1.637   1.670  0.2497  0.9306 -1.1023
16390TIP3   OH270584   6.611   1.635   1.793  0.1360  0.3293  0.5083
16390TIP3    H170585   6.586   1.559   1.740  0.9093 -0.5388  1.3526
16390TIP3    H270586   6.529   1.673   1.822 -0.2564 -0.6291  0.6794
16391TIP3   OH270587   1.747   6.485   4.911 -0.2453 -0.0940  0.1132
16391TIP3    H170588   1.774   6.393   4.906  0.9157  0.1486  1.3106
16391TIP3    H270589   1.772   6.512   4.999  1.5134  1.9964 -0.9291
16392TIP3   OH270590   0.569   1.599   5.651 -0.6768 -0.3138  0.1872
16392TIP3    H170591   0.657   1.570   5.624 -0.8196  0.2612 -0.9705
16392TIP3    H270592   0.524   1.616   5.568 -1.7385 -0.1785  0.7866
16393TIP3   OH270593   4.474   3.887  11.782  0.0645 -0.2109 -0.0421
16393TIP3    H170594   4.533   3.948  11.737  2.2717 -1.0244  1.5842
16393TIP3    H270595   4.494   3.802  11.745  2.2817 -0.9767  2.6228
16394TIP3   OH270596   6.424   4.492   1.086  0.3367  0.0664 -0.6116
16394TIP3    H170597   6.453   4.561   1.026  0.3568  0.6793  0.0885
16394TIP3    H270598   6.433   4.411   1.036  0.8051  0.5214 -1.2762
16395TIP3   OH270599   0.548   3.147  13.371  0.6150  0.8126  0.4991
16395TIP3    H170600   0.643   3.153  13.378  0.7151  0.0115  0.0097
16395TIP3    H270601   0.533   3.112  13.283 -0.0999  0.3144  0.8079
16396TIP3   OH270602   4.577   3.139   2.261  0.4933  0.0760  0.2898
16396TIP3    H170603   4.499   3.086   2.243  1.0142 -0.3689 -0.7157
16396TIP3    H270604   4.554   3.227   2.233  0.2758 -0.0134  0.1870
16397TIP3   OH270605   6.194   6.571   5.388 -0.0409  0.5032 -0.1139
16397TIP3    H170606   6.187   6.485   5.428 -0.4359  1.2878  1.5873
16397TIP3    H270607   6.155   6.560   5.301 -2.3716 -0.4628  0.9812
16398TIP3   OH270608   1.192   1.313  12.701  0.6748 -0.5839 -0.4973
16398TIP3    H170609   1.149   1.349  12.623 -0.4806 -1.0832 -0.1170
16398TIP3    H270610   1.217   1.390  12.752 -1.3936 -0.2331  0.1114
16399TIP3   OH270611   5.011   4.947   5.133 -0.1785  0.7147 -0.0649
16399TIP3    H170612   4.930   4.908   5.165  0.9372 -0.2839  1.7358
16399TIP3    H270613   5.012   4.926   5.039 -1.7130  0.2407  0.0026
16400TIP3   OH270614   0.232   1.575  17.101  0.3561 -0.1338 -0.1836
16400TIP3    H170615   0.301   1.642  17.096  0.6276 -0.3476  0.6338
16400TIP3    H270616   0.225   1.542  17.011 -0.3696  1.5713 -0.7983
16401TIP3   OH270617   3.039   3.774   5.231  0.6449 -0.8197 -0.1422
16401TIP3    H170618   2.996   3.806   5.311  1.0809 -0.0871 -0.1994
16401TIP3    H270619   3.081   3.851   5.193  0.7650 -1.2397 -0.8823
16402TIP3   OH270620   1.785   0.278   0.289 -0.0684  0.7808 -0.4416
16402TIP3    H170621   1.880   0.291   0.300  0.0895 -0.4282 -0.1833
16402TIP3    H270622   1.751   0.279   0.378 -0.0597 -0.3721 -0.4165
16403TIP3   OH270623   6.449   4.276   6.305 -0.2264  0.5444  0.1566
16403TIP3    H170624   6.401   4.209   6.256 -0.4265  1.0436 -0.3373
16403TIP3    H270625   6.539   4.242   6.308  0.5453  1.8449 -3.2170
16404TIP3   OH270626   3.344   4.123   0.674 -0.2976  0.6518 -0.3420
16404TIP3    H170627   3.272   4.122   0.738 -0.9388  0.6055 -1.0547
16404TIP3    H270628   3.423   4.124   0.728 -0.7546 -1.4487  0.5076
16405TIP3   OH270629   2.769   3.367   0.897  0.2993 -0.3286  1.2202
16405TIP3    H170630   2.817   3.419   0.961 -0.8427  1.2593  0.8224
16405TIP3    H270631   2.746   3.428   0.828  0.7792 -1.8377 -0.3374
16406TIP3   OH270632   6.451   6.377   1.457  0.3952  0.0989  0.1539
16406TIP3    H170633   6.405   6.454   1.423  0.9260  0.9261  1.2676
16406TIP3    H270634   6.392   6.304   1.437 -0.1153  0.7801 -0.9229
16407TIP3   OH270635   6.264   5.486   2.834  0.1812  0.0399 -0.5749
16407TIP3    H170636   6.358   5.504   2.840  0.0706  0.5129 -0.2095
16407TIP3    H270637   6.227   5.525   2.913 -0.4096  0.4408 -1.0435
16408TIP3   OH270638   2.190   5.315   0.433  0.1882  0.1234 -0.2330
16408TIP3    H170639   2.263   5.261   0.402  0.0197  1.0851 -2.4761
16408TIP3    H270640   2.230   5.400   0.452  0.0775 -0.1126  1.1707
16409TIP3   OH270641   5.671   6.759  11.848 -0.5480  0.0084 -0.3019
16409TIP3    H170642   5.644   6.678  11.891  0.6743 -1.2704 -1.8379
16409TIP3    H270643   5.766   6.762  11.859 -0.0644 -0.7562 -3.3802
16410TIP3   OH270644   1.900   5.636   5.587 -1.1249 -0.2681  0.7252
16410TIP3    H170645   1.860   5.696   5.650  0.4532  1.3770  0.2354
16410TIP3    H270646   1.943   5.570   5.641 -2.0134 -0.3970  1.2973
16411TIP3   OH270647   0.589   1.504   5.206  0.4292  0.3968  0.0785
16411TIP3    H170648   0.608   1.414   5.231  0.7419  0.3364 -0.3606
16411TIP3    H270649   0.570   1.499   5.112 -1.7901  0.4451  0.4590
16412TIP3   OH270650   3.375   2.616  14.270 -0.0051 -0.1580  0.3190
16412TIP3    H170651   3.303   2.634  14.331 -0.8046 -2.1683  0.0234
16412TIP3    H270652   3.331   2.597  14.187  1.0633  3.8169 -1.4297
16413TIP3   OH270653   3.003   2.021   1.034  0.0098 -0.2139 -0.2276
16413TIP3    H170654   3.061   2.068   1.093 -1.2687 -0.5627  1.3737
16413TIP3    H270655   3.020   2.061   0.948  2.7083 -0.4470  0.1020
16414TIP3   OH270656   1.199   4.072  15.618 -0.0168 -0.1569  0.2668
16414TIP3    H170657   1.177   4.024  15.538  0.3440 -0.0846  0.1249
16414TIP3    H270658   1.121   4.125  15.636 -0.3075 -0.5816  0.2677
16415TIP3   OH270659   5.454   0.796  14.657  0.0460 -0.2638 -0.5727
16415TIP3    H170660   5.474   0.743  14.580  1.9250 -1.3044  0.5476
16415TIP3    H270661   5.534   0.846  14.674  0.2584 -1.1972  1.5348
16416TIP3   OH270662   5.976   1.757   2.313 -0.5796 -0.1279 -0.4652
16416TIP3    H170663   5.980   1.847   2.281  2.6585  0.2801  0.6681
16416TIP3    H270664   5.992   1.764   2.407  0.3020 -1.8712 -0.4401
16417TIP3   OH270665   0.592   5.522  16.908  0.0014  0.2291 -0.0073
16417TIP3    H170666   0.642   5.444  16.884  0.2004  0.2359  0.3851
16417TIP3    H270667   0.639   5.559  16.983 -0.7714  0.0662  0.5653
16418TIP3   OH270668   6.241   5.269   2.147  0.1557  0.1483  0.2434
16418TIP3    H170669   6.251   5.312   2.232  0.1296 -0.7971  0.7398
16418TIP3    H270670   6.149   5.278   2.126  0.0090 -0.2880  0.6885
16419TIP3   OH270671   6.695   1.211   4.319 -0.0739 -0.2948  0.3203
16419TIP3    H170672   6.687   1.304   4.340 -1.4104 -0.1630 -0.6650
16419TIP3    H270673   6.609   1.174   4.340 -0.7521 -0.5935 -2.5619
16420TIP3   OH270674   2.300   1.656   1.449 -0.9500 -0.2257 -1.0297
16420TIP3    H170675   2.318   1.716   1.521 -0.0633 -0.1395 -1.3089
16420TIP3    H270676   2.375   1.597   1.447 -1.2262 -0.5743 -1.5386
16421TIP3   OH270677   2.389   4.008   1.741 -0.2297 -0.2041 -0.1913
16421TIP3    H170678   2.309   3.960   1.719 -0.7565  1.1514 -1.3636
16421TIP3    H270679   2.370   4.099   1.718  0.9744  0.4804  1.3668
16422TIP3   OH270680   3.096   3.591  13.880  0.1872  0.0375  0.1491
16422TIP3    H170681   3.114   3.573  13.972 -0.1983  0.0453  0.2291
16422TIP3    H270682   3.005   3.563  13.867 -0.3629  1.6742  0.2270
16423TIP3   OH270683   3.644   1.039   4.961 -0.2361 -0.6237 -0.2924
16423TIP3    H170684   3.564   1.013   4.915  1.5055 -1.7068 -2.8980
16423TIP3    H270685   3.697   1.084   4.895  1.6084 -0.5227  1.1706
16424TIP3   OH270686   2.791   2.297   1.652  0.0268  0.5280 -0.0058
16424TIP3    H170687   2.807   2.212   1.612 -1.7599  1.5866 -3.4393
16424TIP3    H270688   2.877   2.338   1.658  0.7031 -0.8689  0.1053
16425TIP3   OH270689   5.750   3.644   1.973  0.3362  0.3127 -0.0525
16425TIP3    H170690   5.685   3.703   2.013  0.4192  1.6344 -1.7466
16425TIP3    H270691   5.745   3.664   1.880  2.6336 -0.1279 -0.3107
16426TIP3   OH270692   0.541   0.040   0.407  0.3628  0.0023  0.1148
16426TIP3    H170693   0.631   0.070   0.399  0.5279 -0.0624  1.5507
16426TIP3    H270694   0.505   0.090   0.481 -1.0608  0.6745 -0.9805
16427TIP3   OH270695   4.437   2.070  14.237 -0.0922 -0.4593  0.6674
16427TIP3    H170696   4.523   2.080  14.278 -1.2696 -0.8958  3.5423
16427TIP3    H270697   4.378   2.120  14.295 -1.9159 -1.0352 -0.6206
16428TIP3   OH270698   2.879   2.312  15.268  0.7577  0.1958 -0.2040
16428TIP3    H170699   2.931   2.290  15.345 -1.2483 -0.3092  1.0863
16428TIP3    H270700   2.934   2.289  15.194  1.0927 -3.7616  1.0425
16429TIP3   OH270701   0.909   0.254  12.010  0.6527  0.4203  0.2789
16429TIP3    H170702   0.995   0.236  11.973  1.3911  1.8313  1.1998
16429TIP3    H270703   0.926   0.273  12.102 -0.2562  3.3280 -0.0551
16430TIP3   OH270704   0.143   3.861  14.317  0.7588 -0.1017  0.8241
16430TIP3    H170705   0.226   3.816  14.299  0.3598 -0.7551  0.5826
16430TIP3    H270706   0.162   3.953  14.301  1.4848 -0.2263  0.9254
16431TIP3   OH270707   4.435   0.542  17.224 -0.3134  0.1821  0.2110
16431TIP3    H170708   4.395   0.475  17.279  2.4230 -0.3129  1.7891
16431TIP3    H270709   4.506   0.497  17.179 -0.5435  1.3156 -1.3728
16432TIP3   OH270710   0.717   3.327   4.020 -0.2943 -0.8041  0.4003
16432TIP3    H170711   0.700   3.271   4.095 -1.1665 -0.3771  0.5429
16432TIP3    H270712   0.640   3.384   4.015  1.2219  1.4306  1.1739
16433TIP3   OH270713   2.830   0.998   3.497  0.0923 -0.2352  0.1146
16433TIP3    H170714   2.757   1.057   3.478  0.2957 -0.2015 -0.6217
16433TIP3    H270715   2.908   1.047   3.471  0.1854 -1.2636 -1.7602
16434TIP3   OH270716   3.922   3.104  16.548  0.0552 -0.4325  1.2363
16434TIP3    H170717   3.943   3.163  16.475 -1.9463 -0.8687  0.2166
16434TIP3    H270718   3.970   3.139  16.622  0.2790  1.4720  0.2544
16435TIP3   OH270719   2.451   1.221   0.877 -0.0820  0.0255 -0.6299
16435TIP3    H170720   2.412   1.241   0.962  3.7412 -0.5242  1.5279
16435TIP3    H270721   2.406   1.143   0.847 -2.4603  1.0156  0.1486
16436TIP3   OH270722   1.301   3.694  15.420 -0.1328  0.2353 -0.0163
16436TIP3    H170723   1.351   3.614  15.403 -0.2011  0.0713  0.5458
16436TIP3    H270724   1.337   3.758  15.358 -0.1808 -0.2664 -0.5745
16437TIP3   OH270725   2.588   0.923   2.852 -0.0327 -0.5895  0.3196
16437TIP3    H170726   2.590   1.009   2.810 -1.3930 -0.4477  0.4701
16437TIP3    H270727   2.650   0.931   2.925 -0.7725  0.5813  0.8650
16438TIP3   OH270728   4.480   6.127   4.523  0.3991  0.4727  0.7045
16438TIP3    H170729   4.416   6.088   4.583 -0.5165  0.2519 -0.3734
16438TIP3    H270730   4.455   6.219   4.518 -0.0243  0.3305  0.0710
16439TIP3   OH270731   3.800   5.703  13.267 -0.4842  0.0922  0.0236
16439TIP3    H170732   3.732   5.635  13.261  2.0370 -2.6075 -0.6551
16439TIP3    H270733   3.799   5.745  13.181  0.7703 -2.2270 -1.2262
16440TIP3   OH270734   0.928   1.015  15.127 -0.0903  0.4141 -0.0680
16440TIP3    H170735   0.853   1.030  15.070 -0.9239 -0.9078  0.6169
16440TIP3    H270736   0.911   0.930  15.167  1.5035  0.3442  0.5499
16441TIP3   OH270737   2.738   4.117   3.538 -0.4947 -0.0106  0.2621
16441TIP3    H170738   2.670   4.052   3.558 -1.2135  1.2828  2.3552
16441TIP3    H270739   2.780   4.135   3.622  1.7002  0.0801 -0.7975
16442TIP3   OH270740   0.332   2.077   3.768 -0.9489 -0.1273 -0.5002
16442TIP3    H170741   0.383   2.102   3.691  0.7281  0.4951  0.7449
16442TIP3    H270742   0.265   2.145   3.776  0.2723  1.0696 -0.1575
16443TIP3   OH270743   6.603   6.698  11.587 -0.3816  0.4533 -0.1082
16443TIP3    H170744   6.563   6.640  11.523 -1.7613  0.7866  0.4240
16443TIP3    H270745   6.684   6.653  11.613 -1.4535 -1.2845  0.3633
16444TIP3   OH270746   4.372   2.796   6.128  0.1581  0.0017  0.1303
16444TIP3    H170747   4.429   2.737   6.079  0.2196  1.1577 -1.2396
16444TIP3    H270748   4.429   2.867   6.156 -0.4843  0.8945 -0.7834
16445TIP3   OH270749   6.054   6.683  15.779  0.0586  0.0720  0.3896
16445TIP3    H170750   6.014   6.602  15.747 -0.5804 -0.2671  1.9535
16445TIP3    H270751   6.109   6.655  15.853  1.2733  0.8548 -0.1904
16446TIP3   OH270752   2.799   4.893   3.238  0.2968  0.1910 -0.3298
16446TIP3    H170753   2.741   4.817   3.233  0.7846 -0.2954  1.0244
16446TIP3    H270754   2.840   4.887   3.324  1.1570  1.4067 -0.6205
16447TIP3   OH270755   2.793   6.180   3.491  0.1033 -0.5565  0.6302
16447TIP3    H170756   2.771   6.256   3.437 -2.5946  0.4892  2.9191
16447TIP3    H270757   2.859   6.212   3.552  1.4154 -1.0718 -0.4706
16448TIP3   OH270758   5.171   1.710   3.363  0.1220 -0.1464 -0.3914
16448TIP3    H170759   5.082   1.741   3.347  0.9272  2.4219 -0.3197
16448TIP3    H270760   5.216   1.785   3.402  2.8364 -0.6677 -2.2266
16449TIP3   OH270761   2.906   1.697   5.865 -1.1486 -0.0489  0.3016
16449TIP3    H170762   2.842   1.754   5.908 -2.4065 -0.9255 -0.3180
16449TIP3    H270763   2.912   1.731   5.776  0.6822  1.1384  0.8133
16450TIP3   OH270764   2.660   2.466  13.329 -0.0844  0.2732 -0.6887
16450TIP3    H170765   2.742   2.444  13.373 -0.3994 -0.2235 -0.3329
16450TIP3    H270766   2.662   2.415  13.248 -1.6326 -2.6818  0.9627
16451TIP3   OH270767   2.040   0.215   2.816 -0.1066  0.1028  0.1950
16451TIP3    H170768   2.075   0.302   2.798  1.0695  0.2472  2.7569
16451TIP3    H270769   1.995   0.190   2.735  1.2586  2.2208 -1.3201
16452TIP3   OH270770   0.252   3.538  10.575 -0.3435  0.0442 -0.0245
16452TIP3    H170771   0.328   3.560  10.628  1.2872 -0.5124 -1.9904
16452TIP3    H270772   0.262   3.590  10.495 -1.9864 -0.1222 -0.3870
16453TIP3   OH270773   2.897   3.282   5.907  0.2183 -0.3042 -0.1560
16453TIP3    H170774   2.851   3.329   5.977 -0.0500 -0.0090 -0.5346
16453TIP3    H270775   2.833   3.274   5.837  0.4125 -0.8177 -0.2807
16454TIP3   OH270776   3.616   4.111   3.706 -0.2482 -0.0911 -0.5109
16454TIP3    H170777   3.690   4.062   3.741 -0.1940 -0.3379 -0.9683
16454TIP3    H270778   3.542   4.089   3.764 -0.3329 -1.0630 -0.9715
16455TIP3   OH270779   0.400   0.461   2.743  0.5990 -0.1523  0.3001
16455TIP3    H170780   0.385   0.401   2.670  3.1712 -0.2802 -0.1893
16455TIP3    H270781   0.407   0.405   2.820  2.5509 -0.4961 -0.0906
16456TIP3   OH270782   3.606   1.854   0.058  0.0405 -0.0516 -0.1678
16456TIP3    H170783   3.566   1.768   0.072  0.7817 -0.6859 -1.7331
16456TIP3    H270784   3.585   1.876  -0.033  0.0609  1.3210  0.1443
16457TIP3   OH270785   4.729   4.951  12.572 -0.3757  0.2411 -0.3977
16457TIP3    H170786   4.744   5.009  12.497 -1.0356 -0.7618 -1.3329
16457TIP3    H270787   4.816   4.927  12.602 -0.0989  1.2209 -0.3816
16458TIP3   OH270788   3.475   3.950   4.183  0.0159  0.2723 -0.4464
16458TIP3    H170789   3.538   4.012   4.148 -1.3116  1.3647 -1.0172
16458TIP3    H270790   3.395   3.967   4.133 -0.6481 -1.2926  0.0092
16459TIP3   OH270791   2.005   1.871   3.767 -0.2235 -0.5305 -0.2203
16459TIP3    H170792   2.101   1.860   3.768 -0.2468 -0.7617  0.3658
16459TIP3    H270793   1.990   1.953   3.814 -0.3302 -0.7179  0.0808
16460TIP3   OH270794   5.524   6.576  12.061 -0.0494  0.1004  0.5927
16460TIP3    H170795   5.455   6.509  12.063  0.2674 -0.3029 -1.0770
16460TIP3    H270796   5.479   6.657  12.087 -1.0853 -0.2260 -0.1214
16461TIP3   OH270797   1.818   4.968  15.215 -0.6205 -0.4570  0.0402
16461TIP3    H170798   1.883   4.959  15.145  1.7045  1.0437  1.8630
16461TIP3    H270799   1.743   5.007  15.171  0.4898 -0.1910 -1.7680
16462TIP3   OH270800   2.707   0.280   0.402  0.0855 -0.6688 -0.1856
16462TIP3    H170801   2.620   0.270   0.363 -0.9642 -1.5314  2.1846
16462TIP3    H270802   2.756   0.333   0.339 -2.6113  1.1579 -0.9008
16463TIP3   OH270803   4.147   2.013  13.764  0.3518  0.0430 -0.7127
16463TIP3    H170804   4.170   2.103  13.784  0.8867 -0.9466  4.2840
16463TIP3    H270805   4.052   2.015  13.752  0.0174  1.0695  1.5943
16464TIP3   OH270806   6.399   3.419   2.004 -0.2289 -0.4528  0.2122
16464TIP3    H170807   6.477   3.468   2.027 -0.7915  0.3981  0.3632
16464TIP3    H270808   6.335   3.440   2.072 -0.7691 -0.7005 -0.1988
16465TIP3   OH270809   1.391   0.861  15.644  0.3540  0.5380 -0.0115
16465TIP3    H170810   1.442   0.837  15.721 -1.2396  2.6518  1.8596
16465TIP3    H270811   1.316   0.800  15.645 -0.8355  1.9280  1.5250
16466TIP3   OH270812   5.482   4.436  13.020 -0.4363 -0.1587 -0.1855
16466TIP3    H170813   5.543   4.508  13.002 -0.0733 -0.7114 -1.3181
16466TIP3    H270814   5.485   4.425  13.115 -0.3083  1.1410 -0.0119
16467TIP3   OH270815   5.856   5.215  17.045 -0.2801 -0.1096 -0.1322
16467TIP3    H170816   5.893   5.302  17.062 -0.1152  0.1144 -1.5458
16467TIP3    H270817   5.782   5.232  16.986 -0.8103 -0.8474  0.3033
16468TIP3   OH270818   5.342   0.604   0.173  0.4670  0.1513 -0.1306
16468TIP3    H170819   5.293   0.587   0.253  1.3828 -0.1041  0.3953
16468TIP3    H270820   5.339   0.522   0.124  1.1126 -0.1573  0.3252
16469TIP3   OH270821   4.562   1.322  14.699 -0.1791  0.4170  0.3540
16469TIP3    H170822   4.514   1.280  14.771 -1.0285  0.5928 -0.1104
16469TIP3    H270823   4.524   1.409  14.691 -0.6809  0.1086 -0.8613
16470TIP3   OH270824   6.171   5.498  16.433  0.5292 -0.0822  0.6492
16470TIP3    H170825   6.169   5.589  16.463 -0.8761  0.1618 -0.0941
16470TIP3    H270826   6.227   5.500  16.355 -2.0484  0.8770 -1.3609
16471TIP3   OH270827   1.630   0.448  15.706 -0.3243  0.7678  0.1782
16471TIP3    H170828   1.680   0.378  15.664  0.0989 -0.1042  2.0006
16471TIP3    H270829   1.691   0.522  15.710 -0.9408  1.4743 -2.2207
16472TIP3   OH270830   4.416   4.883   2.650 -0.1794  0.3401  0.1078
16472TIP3    H170831   4.425   4.923   2.563  0.8867  1.1617  0.5739
16472TIP3    H270832   4.365   4.948   2.700  0.3231  0.4708  0.4570
16473TIP3   OH270833   4.065   4.273   4.024  0.3070  0.4215 -0.3163
16473TIP3    H170834   4.062   4.323   3.943 -0.1495  1.8012  0.5103
16473TIP3    H270835   3.976   4.237   4.034  0.6920 -0.7962 -1.0192
16474TIP3   OH270836   4.511   3.115  11.784  0.6373  0.4680  0.6795
16474TIP3    H170837   4.426   3.147  11.753  0.7713  1.3140  1.1578
16474TIP3    H270838   4.568   3.192  11.783  1.2742  0.0062  0.8040
16475TIP3   OH270839   4.869   6.347  11.137  0.1329  0.1851  0.2375
16475TIP3    H170840   4.839   6.259  11.159  2.2003 -0.2968  1.3466
16475TIP3    H270841   4.861   6.352  11.042  1.2860 -1.7621 -0.0133
16476TIP3   OH270842   3.922   2.966   6.279 -0.2565 -0.0722  0.1878
16476TIP3    H170843   3.848   2.905   6.292 -0.4482 -1.6440 -5.6107
16476TIP3    H270844   3.999   2.914   6.302 -0.6435 -1.1205 -0.7735
16477TIP3   OH270845   1.910   4.609   5.368 -0.2200 -0.0607  0.8172
16477TIP3    H170846   1.912   4.513   5.372 -0.9009 -0.0301  2.6545
16477TIP3    H270847   2.001   4.633   5.350 -0.1752 -1.0494 -0.4370
16478TIP3   OH270848   4.903   6.003  10.986 -0.1979  0.0552 -0.7580
16478TIP3    H170849   4.903   6.039  10.898  0.8823  1.1403 -0.3472
16478TIP3    H270850   4.833   6.051  11.031  0.4357  0.7829 -0.5425
16479TIP3   OH270851   3.159   4.237  11.554  0.7053  0.0352  0.2507
16479TIP3    H170852   3.173   4.193  11.470 -0.3430 -0.1170  0.1395
16479TIP3    H270853   3.247   4.254  11.587  1.1451  0.3942 -1.0308
16480TIP3   OH270854   3.606   0.534   4.404  0.0503  0.5211  0.3716
16480TIP3    H170855   3.660   0.484   4.465 -1.1370 -2.5127 -0.8662
16480TIP3    H270856   3.665   0.601   4.368  1.7956 -0.0570  2.0233
16481TIP3   OH270857   6.142   1.496   3.048 -0.0151 -0.1778  0.1028
16481TIP3    H170858   6.228   1.511   3.087 -0.3700  0.7305  0.5452
16481TIP3    H270859   6.142   1.402   3.027  0.3811 -0.5812  1.7844
16482TIP3   OH270860   2.156   4.737  13.440  0.1092 -0.3256  0.3318
16482TIP3    H170861   2.217   4.697  13.378  1.1774  2.1539 -0.3740
16482TIP3    H270862   2.071   4.728  13.399  0.8326  1.5702 -1.8231
16483TIP3   OH270863   6.235   4.292  15.769 -0.1883  0.2351  0.0246
16483TIP3    H170864   6.189   4.274  15.852 -0.5437  1.0948  0.0200
16483TIP3    H270865   6.172   4.267  15.701 -0.4784  0.9692  0.0180
16484TIP3   OH270866   0.858   1.577   2.442 -0.1404 -0.2145  0.1779
16484TIP3    H170867   0.844   1.580   2.347  2.2245 -0.1381 -0.2395
16484TIP3    H270868   0.840   1.487   2.466 -1.8861  0.0240 -0.0951
16485TIP3   OH270869   6.335   6.508   1.758  0.3695  0.1236  0.2449
16485TIP3    H170870   6.413   6.551   1.722  1.4682 -1.5162  0.5570
16485TIP3    H270871   6.351   6.415   1.746 -1.3632 -0.2845  0.7467
16486TIP3   OH270872   4.905   2.573   5.033 -0.0161 -0.6881  0.0150
16486TIP3    H170873   4.927   2.490   5.074 -0.5360 -0.8601 -0.0433
16486TIP3    H270874   4.841   2.550   4.965 -1.2108 -0.0934  0.8929
16487TIP3   OH270875   2.816   2.502  13.724  0.2945 -0.0122 -0.0950
16487TIP3    H170876   2.837   2.410  13.740  3.2240  0.7948  1.2851
16487TIP3    H270877   2.831   2.514  13.630 -0.3893 -0.9693 -0.3453
16488TIP3   OH270878   3.849   2.440   3.744 -0.0994  0.5909  0.5756
16488TIP3    H170879   3.913   2.449   3.815  2.4511  0.4922 -1.5668
16488TIP3    H270880   3.876   2.361   3.697 -2.0516  0.3442 -0.2341
16489TIP3   OH270881   3.832   1.319  17.090 -0.1863 -0.0221  0.1684
16489TIP3    H170882   3.780   1.277  17.159 -0.2714  0.4477  0.3901
16489TIP3    H270883   3.822   1.413  17.105 -2.1951  0.1999 -1.9301
16490TIP3   OH270884   1.320   4.066   3.101  0.0338 -0.1229  0.3084
16490TIP3    H170885   1.233   4.037   3.128  0.0787 -0.1826  0.3871
16490TIP3    H270886   1.316   4.067   3.005  0.0975 -0.5793  0.2998
16491TIP3   OH270887   4.528   3.959  12.792  0.4079  0.4438 -0.2260
16491TIP3    H170888   4.457   4.016  12.761 -0.3657 -0.3836 -0.0317
16491TIP3    H270889   4.502   3.934  12.880  0.5911 -0.4319 -0.4125
16492TIP3   OH270890   1.121   0.824  12.621  0.1861  0.3490 -0.3639
16492TIP3    H170891   1.195   0.767  12.598 -0.3226 -0.5836  0.2410
16492TIP3    H270892   1.084   0.784  12.700 -1.3935  0.3924 -1.0449
16493TIP3   OH270893   4.968   3.015  12.406 -0.1999 -0.0598  0.3134
16493TIP3    H170894   4.873   3.015  12.419 -0.3038  0.5773 -0.3337
16493TIP3    H270895   4.980   3.001  12.312  0.3900 -1.1344  0.5336
16494TIP3   OH270896   2.997   3.079  10.839  0.7159 -0.5403 -0.3610
16494TIP3    H170897   2.989   3.099  10.746  0.1524 -0.6715 -0.3398
16494TIP3    H270898   2.946   3.000  10.852  0.1614 -0.1025  0.2031
16495TIP3   OH270899   1.850   5.381   2.644  0.4651  0.0828 -0.2518
16495TIP3    H170900   1.884   5.364   2.556 -1.8370  2.7939 -1.8185
16495TIP3    H270901   1.858   5.476   2.655 -2.3854  0.2681  1.0115
16496TIP3   OH270902   6.369   4.594  13.917  0.0918 -0.1530  0.3956
16496TIP3    H170903   6.328   4.508  13.929 -0.0396 -0.1612 -0.0898
16496TIP3    H270904   6.456   4.574  13.881 -0.8058 -0.0179 -2.0156
16497TIP3   OH270905   5.307   5.653   5.549 -0.3737  0.2172  0.2485
16497TIP3    H170906   5.254   5.600   5.608 -0.3640  0.9095  0.8990
16497TIP3    H270907   5.362   5.706   5.606 -1.2998  1.8731 -0.3057
16498TIP3   OH270908   1.376   5.066   3.433 -0.4634 -0.7487  0.5002
16498TIP3    H170909   1.412   5.096   3.517  0.2827 -1.1334  0.3298
16498TIP3    H270910   1.342   4.979   3.452  0.6962 -1.2895  0.1659
16499TIP3   OH270911   2.491   2.834  15.424  0.2778 -0.5344 -0.2329
16499TIP3    H170912   2.549   2.859  15.352 -0.0089 -0.7211 -0.5277
16499TIP3    H270913   2.449   2.754  15.395  1.2637 -1.4485  0.7422
16500TIP3   OH270914   3.291   3.060   5.210  0.0653  0.1722 -0.5322
16500TIP3    H170915   3.362   2.998   5.228 -0.0376  0.9766  3.4561
16500TIP3    H270916   3.212   3.014   5.238 -0.1697  1.5275  1.1453
16501TIP3   OH270917   6.515   3.838   4.943 -0.6771 -0.4556  0.2394
16501TIP3    H170918   6.579   3.791   4.891  0.6076  1.7109 -0.2735
16501TIP3    H270919   6.444   3.858   4.881 -1.0689 -1.3745  0.3776
16502TIP3   OH270920   0.557   1.363  16.805  0.3386  0.7611 -0.3599
16502TIP3    H170921   0.601   1.341  16.887  0.5444  0.7142 -0.4812
16502TIP3    H270922   0.553   1.458  16.804  2.2147  0.8696 -1.2620
16503TIP3   OH270923   5.801   0.860  17.216 -0.5159 -0.2119  0.1541
16503TIP3    H170924   5.739   0.806  17.264 -0.9391  0.2058  0.0828
16503TIP3    H270925   5.770   0.857  17.125  0.1540 -0.8226 -0.0639
16504TIP3   OH270926   3.335   3.356  13.920  0.5284 -0.2824  0.0163
16504TIP3    H170927   3.293   3.412  13.855 -0.9395 -2.1569 -0.7507
16504TIP3    H270928   3.299   3.385  14.004 -1.0053 -0.6774 -0.4655
16505TIP3   OH270929   5.775   0.791  14.786 -0.2945 -0.5216  0.1829
16505TIP3    H170930   5.724   0.856  14.835  0.0891  0.9711 -1.3080
16505TIP3    H270931   5.862   0.794  14.827 -1.0436 -2.3592  2.0862
16506TIP3   OH270932   3.275   6.697   1.992 -0.2411 -0.2835 -0.2031
16506TIP3    H170933   3.187   6.662   1.976  0.0827 -0.8836 -0.7313
16506TIP3    H270934   3.315   6.635   2.052 -0.3668  0.2955  0.4883
16507TIP3   OH270935   0.926   3.559   0.455 -0.1104 -0.6214  0.1714
16507TIP3    H170936   1.003   3.599   0.416 -0.0268 -0.7253  0.2311
16507TIP3    H270937   0.918   3.474   0.412 -1.3535  0.1951 -1.3192
16508TIP3   OH270938   0.518   4.421   1.166 -0.2705 -0.0230 -0.0047
16508TIP3    H170939   0.452   4.445   1.101 -1.0584 -1.7915  0.0888
16508TIP3    H270940   0.485   4.340   1.205  0.5742  0.5568  2.0511
16509TIP3   OH270941   3.569   1.324   6.216 -0.1582 -0.7250 -0.3137
16509TIP3    H170942   3.657   1.347   6.244 -0.4248 -1.0007  0.7857
16509TIP3    H270943   3.513   1.354   6.287 -0.9832 -0.3493 -1.0981
16510TIP3   OH270944   3.088   3.076   5.939 -0.4102 -0.1365 -0.6477
16510TIP3    H170945   3.136   3.114   5.866 -0.4911  1.4746  0.0944
16510TIP3    H270946   3.013   3.134   5.951  1.1316  1.4349  2.5404
16511TIP3   OH270947   1.004   5.048  13.360  0.0574  0.0923  0.7016
16511TIP3    H170948   1.075   5.009  13.411  0.0201 -1.5401 -0.4308
16511TIP3    H270949   1.006   5.141  13.385  2.0511 -0.0563  1.3207
16512TIP3   OH270950   5.419   3.870  14.036  0.4037  0.0150  0.1373
16512TIP3    H170951   5.439   3.903  14.123  0.9403  0.9072 -0.3093
16512TIP3    H270952   5.372   3.788  14.051  1.0334 -0.1518  1.2546
16513TIP3   OH270953   5.883   0.844  13.967  0.1524 -0.0534 -0.5647
16513TIP3    H170954   5.921   0.798  13.892  1.1951  2.3158 -1.5952
16513TIP3    H270955   5.836   0.918  13.929  1.3433  1.6694  1.1092
16514TIP3   OH270956   3.780   4.417   4.389  0.1013  0.0454 -0.2412
16514TIP3    H170957   3.734   4.444   4.309 -1.1745  1.0168  0.7717
16514TIP3    H270958   3.755   4.326   4.402 -0.1586  0.0576 -0.6470
16515TIP3   OH270959   3.907   1.463   1.805  0.4966 -0.1176  0.0639
16515TIP3    H170960   3.945   1.508   1.730  0.7992 -0.4508  0.0152
16515TIP3    H270961   3.979   1.412   1.841  0.0496 -0.8938 -0.1289
16516TIP3   OH270962   1.993   1.551   1.159 -0.0648 -0.3911  0.3580
16516TIP3    H170963   1.908   1.567   1.117  0.3731  0.6927 -0.1500
16516TIP3    H270964   2.018   1.464   1.129 -0.5688 -0.3364 -0.2401
16517TIP3   OH270965   0.320   1.184  10.713  0.3291 -0.4418  0.0810
16517TIP3    H170966   0.366   1.144  10.639  3.7975  0.8345  1.3643
16517TIP3    H270967   0.257   1.243  10.673  0.6955 -1.2594 -1.8211
16518TIP3   OH270968   3.169   0.184  16.006 -0.0381 -0.0647  0.2573
16518TIP3    H170969   3.159   0.223  15.919 -0.2865 -0.1360  0.2519
16518TIP3    H270970   3.170   0.258  16.066  1.2170  0.0590  0.1114
16519TIP3   OH270971   2.503   2.186   2.356 -0.3062  0.7569 -0.0535
16519TIP3    H170972   2.501   2.187   2.452 -1.7396 -1.4111  0.0174
16519TIP3    H270973   2.511   2.278   2.331 -1.8438  1.5625  2.1350
16520TIP3   OH270974   4.509   2.297  15.532  0.3606 -0.1615 -0.5112
16520TIP3    H170975   4.477   2.250  15.455  3.7652 -1.0660 -1.5632
16520TIP3    H270976   4.535   2.228  15.593  3.8689  0.1712 -1.3998
16521TIP3   OH270977   3.977   3.226  13.966 -0.4858 -0.4390  0.3081
16521TIP3    H170978   3.946   3.148  14.011  2.2301 -1.0638  1.3127
16521TIP3    H270979   4.044   3.194  13.905 -0.2440  0.9692 -0.2144
16522TIP3   OH270980   0.643   3.658   1.449  0.0713  0.2446  0.0568
16522TIP3    H170981   0.592   3.682   1.372 -0.8411 -2.3536 -0.2598
16522TIP3    H270982   0.579   3.647   1.519  0.5586 -0.0279  0.4747
16523TIP3   OH270983   3.260   1.852   4.385 -0.4346 -0.2776 -0.4681
16523TIP3    H170984   3.322   1.914   4.423 -0.6934 -0.6581  0.6171
16523TIP3    H270985   3.311   1.771   4.374 -0.2969 -0.0972 -1.1622
16524TIP3   OH270986   6.180   3.178  11.734 -0.2477  0.6052 -0.3109
16524TIP3    H170987   6.200   3.226  11.654 -1.3357  1.2118 -0.2359
16524TIP3    H270988   6.089   3.153  11.725  0.1200 -0.9126 -0.0545
16525TIP3   OH270989   3.560   1.326  12.253  0.2331  0.3287 -0.1169
16525TIP3    H170990   3.646   1.328  12.295  0.0588 -0.4379  0.2916
16525TIP3    H270991   3.566   1.390  12.182  1.6566 -0.7909 -1.0753
16526TIP3   OH270992   1.235   2.234  13.153  0.2615  0.6231 -0.0439
16526TIP3    H170993   1.247   2.141  13.137  0.4706  0.7768 -0.8242
16526TIP3    H270994   1.146   2.253  13.123  0.2853  0.7069 -0.0640
16527TIP3   OH270995   3.676   6.503  13.212  0.1025 -0.1636 -0.6089
16527TIP3    H170996   3.653   6.595  13.220  1.0425  0.1074 -0.9024
16527TIP3    H270997   3.632   6.461  13.286 -0.7115  0.4376 -0.7460
16528TIP3   OH270998   6.023   6.659   1.294  0.4965  0.1903  0.6424
16528TIP3    H170999   6.071   6.576   1.287  0.2229  0.1346 -0.7221
16528TIP3    H271000   6.086   6.725   1.266  0.6049  0.4223  1.4077
16529TIP3   OH271001   2.770   6.374   6.007  0.0352  0.3695  0.2170
16529TIP3    H171002   2.708   6.348   5.939 -0.5762  0.6070  0.6765
16529TIP3    H271003   2.814   6.292   6.032  0.9728  0.4277 -1.1373
16530TIP3   OH271004   4.582   2.193   4.072  0.1213  0.1599  0.1823
16530TIP3    H171005   4.493   2.158   4.072  0.5120 -0.8665  0.0246
16530TIP3    H271006   4.577   2.270   4.016 -1.1630  1.4727  1.9633
16531TIP3   OH271007   0.969   5.293   1.523  0.0887  0.7844  0.5109
16531TIP3    H171008   0.988   5.337   1.440  1.2479 -2.1210 -0.9146
16531TIP3    H271009   0.886   5.332   1.552 -0.4289  1.8108 -2.0713
16532TIP3   OH271010   3.672   2.561  13.259 -0.4085  0.2357 -0.0269
16532TIP3    H171011   3.578   2.562  13.275 -0.7460  0.5942 -1.8818
16532TIP3    H271012   3.701   2.650  13.277 -0.0034 -0.3084  2.4908
16533TIP3   OH271013   3.631   1.473   4.214 -0.5050  0.2533  0.0635
16533TIP3    H171014   3.569   1.480   4.141  0.6057 -0.7956 -1.0328
16533TIP3    H271015   3.627   1.382   4.241  0.4773  0.1831  0.0244
16534TIP3   OH271016   3.930   5.651  16.284 -0.5711 -0.0302 -0.0850
16534TIP3    H171017   3.855   5.650  16.344 -0.5258 -2.5760  0.0378
16534TIP3    H271018   3.891   5.660  16.197 -0.7666  1.7389  0.1543
16535TIP3   OH271019   2.377   1.637  13.204  0.0079  0.6099  0.1465
16535TIP3    H171020   2.398   1.731  13.204 -0.1605  0.6570  0.9520
16535TIP3    H271021   2.462   1.593  13.208  0.0412  0.7596  1.2296
16536TIP3   OH271022   0.436   6.205   4.104 -0.2000 -0.1252 -0.9090
16536TIP3    H171023   0.501   6.253   4.155 -0.1671 -0.2844 -0.7998
16536TIP3    H271024   0.431   6.119   4.145 -2.5671  0.7629  0.9174
16537TIP3   OH271025   4.823   2.707  11.021  0.2971 -0.2704  0.3716
16537TIP3    H171026   4.735   2.694  10.985  0.4524  0.0909 -0.1539
16537TIP3    H271027   4.875   2.634  10.986 -0.0056 -1.0416  1.4582
16538TIP3   OH271028   6.382   4.227  14.445 -0.4673  0.0040 -0.4109
16538TIP3    H171029   6.387   4.244  14.351 -0.5841 -0.0661 -0.4314
16538TIP3    H271030   6.468   4.250  14.479 -0.1682 -0.7208 -0.6587
16539TIP3   OH271031   6.711   0.546   3.184  0.0366  0.5021  0.2732
16539TIP3    H171032   6.742   0.630   3.217 -0.3938  1.5002 -1.7004
16539TIP3    H271033   6.668   0.567   3.101 -1.5276 -1.4578  0.4921
16540TIP3   OH271034   4.696   4.642   0.789 -0.2032  0.4046 -0.5511
16540TIP3    H171035   4.665   4.589   0.715 -0.1365  1.9051 -1.6904
16540TIP3    H271036   4.675   4.732   0.765  1.4439  1.1079  0.4636
16541TIP3   OH271037   4.444   5.380   1.511  0.5729  0.1515 -0.1325
16541TIP3    H171038   4.448   5.336   1.426 -1.8286 -1.0669  0.3096
16541TIP3    H271039   4.351   5.392   1.529  1.0101  0.8605  2.0999
16542TIP3   OH271040   1.200   3.594  14.035  0.4951 -0.3630  0.5602
16542TIP3    H171041   1.234   3.646  13.962  0.8739 -0.7139  0.4831
16542TIP3    H271042   1.261   3.611  14.107  0.6916 -0.7863  0.4994
16543TIP3   OH271043   4.201   0.590  16.901 -0.5029 -0.4035  0.2686
16543TIP3    H171044   4.110   0.619  16.913 -0.5775 -0.5323  0.0092
16543TIP3    H271045   4.215   0.528  16.972 -0.3203  0.3098  0.8757
16544TIP3   OH271046   5.475   4.458   6.208  0.0801  0.6713 -0.2842
16544TIP3    H171047   5.438   4.483   6.124  1.9061 -1.7182 -1.9187
16544TIP3    H271048   5.561   4.423   6.188 -0.3530 -2.3206  2.2232
16545TIP3   OH271049   5.590   3.219   0.493 -0.0265  0.1387  0.0650
16545TIP3    H171050   5.635   3.220   0.578  2.7303 -0.0904 -1.2829
16545TIP3    H271051   5.525   3.149   0.502  0.7187 -0.4078  1.7402
16546TIP3   OH271052   1.750   3.156   5.279  0.0779  0.0997 -0.0315
16546TIP3    H171053   1.791   3.179   5.362  0.1794 -0.3681  0.0538
16546TIP3    H271054   1.822   3.154   5.216  0.2903 -1.1891  0.2135
16547TIP3   OH271055   2.495   4.750   0.218 -0.4834  0.4693  0.3565
16547TIP3    H171056   2.507   4.742   0.124  0.4492  1.9869  0.3125
16547TIP3    H271057   2.556   4.687   0.256 -0.4081  0.3006 -0.0455
16548TIP3   OH271058   1.587   0.672   4.122 -0.2752 -0.4459 -0.9153
16548TIP3    H171059   1.495   0.695   4.127 -0.1100  0.2374 -0.9128
16548TIP3    H271060   1.629   0.747   4.079  0.1723 -1.0490 -1.5621
16549TIP3   OH271061   5.186   1.385  16.383  0.0414 -0.4495 -0.4674
16549TIP3    H171062   5.184   1.467  16.333 -0.6936  0.2440  0.6428
16549TIP3    H271063   5.128   1.326  16.335 -1.3464  0.4903 -0.0006
16550TIP3   OH271064   2.376   3.770  11.349  0.2340 -0.0365  0.3861
16550TIP3    H171065   2.376   3.683  11.310 -0.2156  0.2257 -0.2196
16550TIP3    H271066   2.440   3.765  11.420  0.7723 -0.6417 -0.1326
16551TIP3   OH271067   0.581   4.449  15.135 -0.3408 -0.2811 -0.2342
16551TIP3    H171068   0.576   4.393  15.212  0.2058  0.0206  0.0236
16551TIP3    H271069   0.603   4.390  15.063 -0.5861 -0.5205 -0.1111
16552TIP3   OH271070   6.537   6.697   5.329  0.1391 -0.4519 -0.2835
16552TIP3    H171071   6.516   6.604   5.330  0.1064 -0.4619 -1.0289
16552TIP3    H271072   6.475   6.736   5.390  1.3791 -1.1409  1.4868
16553TIP3   OH271073   1.720   3.037  16.400  0.1796 -0.1481  0.2275
16553TIP3    H171074   1.727   2.942  16.395  1.7466 -0.0462 -0.0149
16553TIP3    H271075   1.806   3.069  16.371 -0.4292  1.3487 -0.0122
16554TIP3   OH271076   6.185   1.315  15.178 -0.0953 -0.4232  0.5121
16554TIP3    H171077   6.142   1.394  15.143 -0.4186 -0.8411 -0.0493
16554TIP3    H271078   6.239   1.348  15.250  1.7199  0.7046 -1.2436
16555TIP3   OH271079   5.286   0.462   4.701  0.6028  0.3056 -0.1997
16555TIP3    H171080   5.263   0.449   4.609  1.5426 -0.6406 -0.3205
16555TIP3    H271081   5.210   0.507   4.739 -0.8555 -1.4519 -0.8932
16556TIP3   OH271082   3.708   1.333   1.587 -0.1847 -0.0442  0.3860
16556TIP3    H171083   3.697   1.380   1.670  3.4130  2.0142 -0.1136
16556TIP3    H271084   3.777   1.268   1.605 -0.8875 -1.0806 -0.5010
16557TIP3   OH271085   1.285   2.727   1.557 -0.5013  0.1637 -0.2977
16557TIP3    H171086   1.260   2.637   1.539  1.5838 -0.3591 -0.8176
16557TIP3    H271087   1.226   2.780   1.503 -0.7982 -0.9397 -1.0868
16558TIP3   OH271088   4.939   6.013   1.910 -0.2796  0.2563  0.1613
16558TIP3    H171089   4.874   5.997   1.840  0.7464 -1.5069 -0.4637
16558TIP3    H271090   4.897   5.979   1.989  0.0934 -1.5987 -0.3743
16559TIP3   OH271091   3.327   1.710  14.391 -0.4608  0.4324 -0.1505
16559TIP3    H171092   3.351   1.751  14.308  0.0561  0.4208 -0.0106
16559TIP3    H271093   3.244   1.751  14.415 -0.4917  0.6093 -0.5508
16560TIP3   OH271094   3.358   6.479  11.097  0.3252  0.3830 -0.9132
16560TIP3    H171095   3.370   6.425  11.019 -0.6402 -0.4207 -0.5240
16560TIP3    H271096   3.375   6.568  11.067 -1.6066  0.3048 -2.4552
16561TIP3   OH271097   6.540   3.204   6.562 -0.1897 -1.0280 -0.0276
16561TIP3    H171098   6.584   3.139   6.616 -2.3230 -2.9325 -0.4202
16561TIP3    H271099   6.519   3.157   6.481 -1.3779  0.2810 -0.5180
16562TIP3   OH271100   0.189   1.626  12.185  0.4507 -0.4182 -0.3965
16562TIP3    H171101   0.280   1.603  12.167 -0.0836 -1.6178 -1.8857
16562TIP3    H271102   0.156   1.553  12.237  0.1180 -0.4389 -0.6306
16563TIP3   OH271103   4.358   1.817  13.172 -0.6187  0.0577  0.2477
16563TIP3    H171104   4.319   1.902  13.154  1.4665  1.2111  0.8677
16563TIP3    H271105   4.448   1.824  13.139 -0.1641 -1.6240  1.0064
16564TIP3   OH271106   6.047   0.539   5.074 -0.1199  0.1758 -0.1720
16564TIP3    H171107   6.072   0.520   5.165  0.0906  0.4997 -0.1634
16564TIP3    H271108   5.970   0.483   5.059  0.7181 -0.9800 -0.2640
16565TIP3   OH271109   4.259   1.655  16.297  0.5038 -0.4575 -0.0448
16565TIP3    H171110   4.220   1.604  16.368 -1.0714  0.8226  0.0640
16565TIP3    H271111   4.270   1.592  16.226 -1.5604 -0.9616  0.0158
16566TIP3   OH271112   3.364   4.443  13.325  0.1573 -0.3060 -0.1496
16566TIP3    H171113   3.328   4.510  13.267 -0.5731  0.0931  0.7340
16566TIP3    H271114   3.289   4.389  13.349  0.5787 -0.8892 -0.1273
16567TIP3   OH271115   0.260   1.070   3.304  0.0142  0.3111  0.1449
16567TIP3    H171116   0.191   1.110   3.251 -1.2474  1.1171  2.2369
16567TIP3    H271117   0.331   1.134   3.302  0.5455 -0.2897 -1.6167
16568TIP3   OH271118   6.719   5.166  10.903  0.1570 -0.5249 -0.3677
16568TIP3    H171119   6.647   5.106  10.883  0.2961 -0.2757 -1.7091
16568TIP3    H271120   6.762   5.181  10.818  1.2287  0.0503  0.2530
16569TIP3   OH271121   4.223   6.106   3.542  0.0856  0.0539  0.0769
16569TIP3    H171122   4.172   6.044   3.489 -0.5199  1.3989 -0.9969
16569TIP3    H271123   4.312   6.072   3.541 -0.1375 -0.5351 -0.9317
16570TIP3   OH271124   5.440   4.087   1.226  0.0259 -0.1338 -0.2507
16570TIP3    H171125   5.392   4.094   1.144  1.3707 -0.2843 -1.0974
16570TIP3    H271126   5.509   4.022   1.207  0.4224 -0.0884  0.9614
16571TIP3   OH271127   5.856   6.107   6.191  0.0150  0.4689 -0.0117
16571TIP3    H171128   5.875   6.015   6.204  1.4400  0.7149 -0.2210
16571TIP3    H271129   5.931   6.153   6.229  0.2549  1.4581 -1.5908
16572TIP3   OH271130   4.991   0.812  13.732 -0.1434  0.0843  0.1130
16572TIP3    H171131   4.933   0.884  13.706  1.3866  0.7887 -1.4925
16572TIP3    H271132   5.017   0.834  13.821 -2.0672 -0.1056  0.7791
16573TIP3   OH271133   0.663   6.357  16.132 -0.0759  0.0704  0.3698
16573TIP3    H171134   0.690   6.312  16.212  1.5364 -0.3137 -0.3523
16573TIP3    H271135   0.589   6.411  16.159 -1.6866 -2.4865  1.4227
16574TIP3   OH271136   6.478   6.104   0.058  0.0476 -0.1115  0.5855
16574TIP3    H171137   6.418   6.069   0.125 -0.9684 -0.3566 -0.4289
16574TIP3    H271138   6.498   6.192   0.088 -2.0651  0.5586  0.1975
16575TIP3   OH271139   4.366   1.097   6.591  0.2728 -0.2277 -0.5530
16575TIP3    H171140   4.329   1.143   6.666 -0.7082  1.4742 -2.0078
16575TIP3    H271141   4.420   1.162   6.546 -1.1836 -0.3524 -2.6871
16576TIP3   OH271142   5.758   2.099   0.248  0.1333  0.0879  0.7224
16576TIP3    H171143   5.730   2.025   0.194 -1.1950  2.0553 -1.5036
16576TIP3    H271144   5.853   2.097   0.244  0.0956 -0.0199 -1.5686
16577TIP3   OH271145   1.029   0.643  12.403  0.6001  0.4827 -0.2333
16577TIP3    H171146   1.117   0.668  12.375 -0.1096  0.0861 -3.2483
16577TIP3    H271147   0.974   0.718  12.379 -0.2099 -0.2380 -0.7029
16578TIP3   OH271148   0.240   0.187  14.158  0.4166  0.6747 -0.0853
16578TIP3    H171149   0.249   0.281  14.140  0.5079  0.4493 -1.3102
16578TIP3    H271150   0.278   0.144  14.081  1.3314 -0.3778  0.9127
16579TIP3   OH271151   2.923   3.560   0.027 -0.0068 -0.2007 -0.0406
16579TIP3    H171152   2.978   3.491  -0.010 -2.1694 -2.2547  0.3015
16579TIP3    H271153   2.842   3.555  -0.023 -1.5976 -0.4874  2.4080
16580TIP3   OH271154   3.244   5.379  13.991  0.1090 -0.3686 -0.5644
16580TIP3    H171155   3.309   5.322  13.949 -2.8695 -3.0611 -1.9073
16580TIP3    H271156   3.215   5.330  14.067  0.0027  1.0538  0.3406
16581TIP3   OH271157   6.216   2.876  14.484 -0.9070 -0.6331  0.2311
16581TIP3    H171158   6.252   2.947  14.535 -0.8256 -0.5588  0.0713
16581TIP3    H271159   6.220   2.800  14.542 -0.5974 -0.6018  0.2512
16582TIP3   OH271160   0.559   0.775   0.562  0.4849 -0.2742  0.2619
16582TIP3    H171161   0.535   0.867   0.570  2.4298  0.2663  0.2535
16582TIP3    H271162   0.512   0.732   0.634 -0.9238  0.5908 -0.0985
16583TIP3   OH271163   1.938   6.435   0.308 -0.0712 -0.0965 -0.8325
16583TIP3    H171164   1.906   6.449   0.397  1.7160  2.1230 -0.4552
16583TIP3    H271165   1.859   6.443   0.253 -0.6227  3.4029  0.1976
16584TIP3   OH271166   2.726   4.206  15.879 -0.2152 -0.3704  0.2904
16584TIP3    H171167   2.652   4.146  15.887  0.0835 -0.6653  0.9271
16584TIP3    H271168   2.691   4.281  15.830 -1.8314  0.8886  3.1123
16585TIP3   OH271169   0.560   2.536  11.476  0.0538  0.1577  0.0056
16585TIP3    H171170   0.533   2.509  11.388  2.2624  1.2890 -1.1022
16585TIP3    H271171   0.482   2.523  11.530 -1.5412 -0.0807 -2.2110
16586TIP3   OH271172   6.456   4.098  12.186 -0.2224 -0.2022 -0.0566
16586TIP3    H171173   6.384   4.038  12.165 -0.2174  0.0330 -0.7911
16586TIP3    H271174   6.445   4.117  12.279 -0.6979 -0.7127 -0.0013
16587TIP3   OH271175   5.951   4.761  15.484  0.2871  0.1642 -0.0107
16587TIP3    H171176   6.004   4.768  15.405 -1.0220  1.8475 -0.8241
16587TIP3    H271177   6.012   4.776  15.556  1.5457 -1.6260 -0.6420
16588TIP3   OH271178   3.890   0.937   6.077 -0.4357 -0.2851 -0.2039
16588TIP3    H171179   3.856   0.847   6.079  0.1563 -0.5144  1.0591
16588TIP3    H271180   3.814   0.992   6.095 -0.8429 -0.5143 -1.2007
16589TIP3   OH271181   3.630   4.284   2.191 -0.0428 -0.3012  0.0573
16589TIP3    H171182   3.621   4.375   2.221 -0.8315 -0.5491  0.6095
16589TIP3    H271183   3.582   4.233   2.256  1.9436 -1.3290  0.8172
16590TIP3   OH271184   4.410   6.089   1.474 -0.1000 -0.9344 -0.2862
16590TIP3    H171185   4.423   6.182   1.490  0.6310 -0.5835 -2.5420
16590TIP3    H271186   4.478   6.046   1.525 -0.6105 -0.2903  0.9927
16591TIP3   OH271187   1.197   5.663  13.479  0.6235 -0.2749  0.1012
16591TIP3    H171188   1.129   5.598  13.467  1.3646 -1.0832  0.2011
16591TIP3    H271189   1.278   5.618  13.456  1.0450  0.9057 -0.8205
16592TIP3   OH271190   4.647   0.657  16.731 -0.0677  0.0822 -0.4682
16592TIP3    H171191   4.657   0.732  16.672 -1.1658 -0.5083 -1.4450
16592TIP3    H271192   4.556   0.629  16.719 -0.0178 -0.6905  0.7618
16593TIP3   OH271193   3.945   1.999  13.238 -0.3121 -0.3089 -0.2382
16593TIP3    H171194   3.953   2.095  13.239  1.4805 -0.3859 -1.4632
16593TIP3    H271195   3.958   1.972  13.329 -2.4565  0.6684  0.4141
16594TIP3   OH271196   4.951   6.294   0.544  0.0233 -0.2665  0.5225
16594TIP3    H171197   4.891   6.272   0.615 -0.9379  0.2071 -0.1308
16594TIP3    H271198   4.895   6.304   0.467  0.8858  0.6356 -0.0073
16595TIP3   OH271199   3.234   1.999   2.835  0.5629  0.0175  0.2628
16595TIP3    H171200   3.186   2.069   2.792  0.7470 -0.1677 -0.2502
16595TIP3    H271201   3.178   1.922   2.825  0.4469  0.0475  0.6618
16596TIP3   OH271202   0.835   0.335   2.975  0.0708  0.1772  0.5368
16596TIP3    H171203   0.766   0.358   2.913 -0.8368 -0.2178  1.3864
16596TIP3    H271204   0.791   0.285   3.044  1.5124 -1.7172  0.1675
16597TIP3   OH271205   0.972   5.390   2.405  0.0371  0.2512  0.4057
16597TIP3    H171206   0.897   5.383   2.346  2.1504 -0.4265 -2.3918
16597TIP3    H271207   0.933   5.396   2.492 -3.2589  1.0127 -0.9691
16598TIP3   OH271208   2.323   0.898   3.699 -0.5000  0.3076 -0.5328
16598TIP3    H171209   2.250   0.835   3.698 -0.8051  0.6601 -0.8389
16598TIP3    H271210   2.366   0.887   3.614 -0.1637  0.0633 -0.3308
16599TIP3   OH271211   6.457   1.213  13.742  0.3667  0.2854  0.3643
16599TIP3    H171212   6.396   1.243  13.675  1.7508  1.5496 -0.4038
16599TIP3    H271213   6.402   1.176  13.811 -1.1733  0.3754 -0.7751
16600TIP3   OH271214   5.166   4.417   6.202 -0.0742 -0.6132  0.2470
16600TIP3    H171215   5.179   4.444   6.111 -0.9678 -1.3286 -0.1032
16600TIP3    H271216   5.072   4.422   6.216  0.1275  0.4576  1.4619
16601TIP3   OH271217   0.069   6.591   2.739  0.1355  0.0433 -0.4357
16601TIP3    H171218   0.110   6.614   2.656  1.0726  1.7571  0.4580
16601TIP3    H271219   0.063   6.495   2.737  0.1445  0.0382 -2.4442
16602TIP3   OH271220   6.218   0.706  15.739  0.3284  0.3111 -0.5671
16602TIP3    H171221   6.168   0.657  15.674  0.8370  0.0289 -0.7543
16602TIP3    H271222   6.288   0.747  15.689  4.1237 -4.2117  0.3004
16603TIP3   OH271223   3.996   4.530  16.422  0.6266  0.4827  0.0043
16603TIP3    H171224   3.952   4.494  16.345  3.0309  0.7270 -1.6155
16603TIP3    H271225   4.035   4.454  16.465 -1.2161  0.2715  1.4038
16604TIP3   OH271226   0.164   0.727   3.621  0.4322 -0.1477 -0.3088
16604TIP3    H171227   0.217   0.650   3.603 -0.4755 -0.3481 -2.3869
16604TIP3    H271228   0.193   0.756   3.708  2.3937 -1.4709 -0.4516
16605TIP3   OH271229   2.563   2.243   1.737  0.0965 -0.1858 -0.1405
16605TIP3    H171230   2.528   2.299   1.806  0.9274 -0.4783  0.5474
16605TIP3    H271231   2.650   2.280   1.719 -0.1099 -0.1151 -1.0414
16606TIP3   OH271232   3.585   3.872   3.334  0.3467 -0.0663  0.1442
16606TIP3    H171233   3.604   3.964   3.311 -1.4085  0.4082  0.4404
16606TIP3    H271234   3.552   3.834   3.252 -2.4437  0.6231  0.8740
16607TIP3   OH271235   1.238   5.598  14.649  0.2964  0.1925  0.5182
16607TIP3    H171236   1.155   5.627  14.686  0.3104 -0.4256  1.0619
16607TIP3    H271237   1.259   5.518  14.698  0.3666 -0.6029 -0.7415
16608TIP3   OH271238   2.778   6.490   6.283  0.2851  0.4418  0.0287
16608TIP3    H171239   2.812   6.464   6.197  0.3835  0.8186 -0.0497
16608TIP3    H271240   2.731   6.413   6.314  2.4913 -0.6865  0.8316
16609TIP3   OH271241   6.122   6.665   3.854 -0.5548 -0.0805  0.1839
16609TIP3    H171242   6.172   6.616   3.790 -0.5879 -0.1766  0.2303
16609TIP3    H271243   6.175   6.661   3.934 -0.8614 -0.6004  0.3693
16610TIP3   OH271244   2.934   5.599  17.081  0.2506  0.8309 -0.2265
16610TIP3    H171245   2.999   5.556  17.137 -2.0636 -1.1165  1.1542
16610TIP3    H271246   2.920   5.538  17.009 -1.7791 -0.0410  0.8200
16611TIP3   OH271247   6.243   1.626  15.197 -0.0451  0.1447  0.0751
16611TIP3    H171248   6.175   1.673  15.149 -0.9067 -1.1203  0.0254
16611TIP3    H271249   6.227   1.648  15.289 -0.6192 -0.2587  0.0756
16612TIP3   OH271250   0.297   3.359   0.048  0.2382  0.3478  0.2841
16612TIP3    H171251   0.245   3.429   0.087  1.7662  1.4678  0.4161
16612TIP3    H271252   0.236   3.314  -0.011 -1.6716 -0.3357  2.6113
16613TIP3   OH271253   3.364   5.101   5.090  0.1238 -0.2313  0.5903
16613TIP3    H171254   3.439   5.044   5.105 -0.7297 -1.2972  0.8755
16613TIP3    H271255   3.401   5.179   5.047  1.3865 -0.7154  0.7775
16614TIP3   OH271256   0.888   0.650  13.198  1.0251  0.4891  0.1177
16614TIP3    H171257   0.932   0.683  13.277 -2.3941  1.4489  1.8532
16614TIP3    H271258   0.862   0.730  13.151  1.2870 -0.0513 -0.9734
16615TIP3   OH271259   1.889   1.995  16.245  0.1404  0.1569 -0.0425
16615TIP3    H171260   1.946   1.976  16.171 -0.5768 -1.6397 -0.1910
16615TIP3    H271261   1.822   2.054  16.210  0.8435  0.7860 -0.3413
16616TIP3   OH271262   2.734   1.175   5.410 -0.5589  0.0937  0.1324
16616TIP3    H171263   2.785   1.097   5.392  1.1220  1.4020 -1.1185
16616TIP3    H271264   2.761   1.202   5.498 -0.8613 -0.4963  0.4121
16617TIP3   OH271265   0.859   6.651  14.863  0.5956 -0.8315 -0.2590
16617TIP3    H171266   0.913   6.572  14.863  0.3775 -0.9838 -0.6283
16617TIP3    H271267   0.779   6.624  14.909  0.0278 -1.1806 -1.3982
16618TIP3   OH271268   2.597   1.943  15.163 -0.1998 -0.0956  0.2026
16618TIP3    H171269   2.675   1.953  15.217 -0.0285 -0.7690  0.0935
16618TIP3    H271270   2.623   1.978  15.077 -0.1524  0.0625  0.2815
16619TIP3   OH271271   2.870   5.767  16.059 -0.3919  0.4931 -0.0498
16619TIP3    H171272   2.797   5.766  15.999 -1.2940 -0.2957  1.0202
16619TIP3    H271273   2.860   5.687  16.111  1.0981  0.4828  0.2732
16620TIP3   OH271274   1.774   6.744  14.771  0.0420 -0.2621 -0.2347
16620TIP3    H171275   1.784   6.726  14.865  0.1450 -0.5499 -0.3037
16620TIP3    H271276   1.812   6.669  14.727 -1.0363 -0.6685 -0.5063
16621TIP3   OH271277   4.374   6.271  10.702 -0.3690  0.1856  0.1630
16621TIP3    H171278   4.450   6.239  10.654 -1.1933  1.0091 -1.7999
16621TIP3    H271279   4.332   6.192  10.737 -0.6784 -0.6685 -1.9687
16622TIP3   OH271280   2.806   4.877  14.927 -0.2341  0.0302 -0.3538
16622TIP3    H171281   2.736   4.861  14.990 -0.5785 -0.1310 -0.7669
16622TIP3    H271282   2.797   4.806  14.863 -0.2885  0.5304 -0.9196
16623TIP3   OH271283   3.252   4.401   5.557 -0.1799  0.3786 -0.6046
16623TIP3    H171284   3.199   4.327   5.526  2.1786  0.0344 -4.4852
16623TIP3    H271285   3.325   4.361   5.603  1.3390  0.0898 -3.0958
16624TIP3   OH271286   0.672   2.624   0.905  0.7852  0.4271 -0.2443
16624TIP3    H171287   0.685   2.578   0.823  0.3972 -0.9778  0.4467
16624TIP3    H271288   0.700   2.562   0.972  1.2075  1.5866  0.6835
16625TIP3   OH271289   2.182   1.501   0.455 -0.5141 -0.1987 -0.0307
16625TIP3    H171290   2.123   1.427   0.470 -1.2251  0.2281 -0.6820
16625TIP3    H271291   2.158   1.565   0.523 -0.2784 -0.3324  0.1808
16626TIP3   OH271292   5.604   1.247   4.336  0.2299 -0.7757  0.1713
16626TIP3    H171293   5.572   1.230   4.247  1.1473 -1.5885 -0.0149
16626TIP3    H271294   5.673   1.313   4.323 -0.7689  0.3628  0.4811
16627TIP3   OH271295   3.779   6.045  13.402 -0.0990 -0.7074  0.2117
16627TIP3    H171296   3.768   6.040  13.497  0.0709  0.4764  0.3019
16627TIP3    H271297   3.720   5.977  13.369  0.1814 -1.4558  1.1709
16628TIP3   OH271298   5.138   5.846   4.234 -0.4660  0.5903  0.2887
16628TIP3    H171299   5.206   5.841   4.301  0.5036 -0.2611 -0.7241
16628TIP3    H271300   5.172   5.793   4.162 -1.2673  1.8674 -1.0658
16629TIP3   OH271301   6.428   3.786   5.441 -0.1011  0.1013 -0.0142
16629TIP3    H171302   6.422   3.691   5.451  0.1583  0.0457 -0.3739
16629TIP3    H271303   6.375   3.821   5.513  0.9717 -0.2973  1.0014
16630TIP3   OH271304   4.824   0.925  16.711  0.4498  0.2625  0.4741
16630TIP3    H171305   4.776   0.936  16.794  0.6148  2.6629  0.3363
16630TIP3    H271306   4.756   0.926  16.644  0.4404  0.1472  0.4823
16631TIP3   OH271307   3.751   5.888   3.032  0.5177  0.6535  0.9178
16631TIP3    H171308   3.807   5.851   3.101  1.4545  0.5884  0.1511
16631TIP3    H271309   3.797   5.968   3.005 -0.3853  1.2491  1.0749
16632TIP3   OH271310   3.808   5.992  13.117  0.2367 -0.2826  0.1534
16632TIP3    H171311   3.880   6.043  13.153  0.5676 -0.8264  0.2800
16632TIP3    H271312   3.829   5.983  13.024 -0.2835  0.5698 -0.0513
16633TIP3   OH271313   4.255   0.005   0.784 -0.1983 -0.1014  0.1805
16633TIP3    H171314   4.203   0.042   0.712 -0.7889 -0.7510  0.2714
16633TIP3    H271315   4.198  -0.058   0.826  0.2622  0.0263  1.0262
16634TIP3   OH271316   1.943   2.492  12.141  0.2263  0.1507  0.1328
16634TIP3    H171317   2.037   2.480  12.130  0.1320  0.2661 -0.9940
16634TIP3    H271318   1.904   2.409  12.114 -0.1029  0.9075 -2.0283
16635TIP3   OH271319   1.261   3.291  15.743  0.1849  0.3881 -0.0220
16635TIP3    H171320   1.339   3.300  15.688 -0.2925  1.7771 -0.5017
16635TIP3    H271321   1.188   3.311  15.685 -0.6964 -2.3380  0.0372
16636TIP3   OH271322   0.313   6.766  15.916 -0.1171  0.6288 -0.1016
16636TIP3    H171323   0.308   6.850  15.870  0.4837  0.2366 -0.8962
16636TIP3    H271324   0.406   6.744  15.917 -0.0832  0.7563  1.5592
16637TIP3   OH271325   1.378   6.750   5.773 -0.2178  0.5447 -0.0908
16637TIP3    H171326   1.317   6.819   5.748  0.2471  1.3423  0.9322
16637TIP3    H271327   1.347   6.720   5.858  0.0661  0.0507 -0.1565
16638TIP3   OH271328   0.245   0.141   1.011  0.0317  0.1258 -0.1376
16638TIP3    H171329   0.175   0.120   0.949  1.4302  0.5049 -1.9631
16638TIP3    H271330   0.203   0.144   1.096 -1.7127 -2.0017 -0.8354
16639TIP3   OH271331   4.667   1.051  14.245  0.2008 -0.2134  0.3021
16639TIP3    H171332   4.613   1.105  14.187  0.4294 -0.4054 -0.0878
16639TIP3    H271333   4.726   1.114  14.287  0.2405 -0.1143  0.0983
16640TIP3   OH271334   2.005   2.635  14.793  0.1765 -0.2366  0.4229
16640TIP3    H171335   2.063   2.567  14.759 -2.3041 -1.8377 -0.9099
16640TIP3    H271336   2.063   2.710  14.809  2.3311 -1.0806 -2.5073
16641TIP3   OH271337   1.633   3.275  16.497  0.0898  0.2991  0.4199
16641TIP3    H171338   1.555   3.266  16.552 -0.0701 -0.3278  0.1112
16641TIP3    H271339   1.643   3.188  16.457 -0.3785  0.9890 -1.2878
16642TIP3   OH271340   4.281   0.700   3.853 -1.1010 -0.3818  0.3481
16642TIP3    H171341   4.314   0.727   3.938 -0.2246  0.3020 -0.1880
16642TIP3    H271342   4.195   0.663   3.871 -0.4507 -1.3038  1.6595
16643TIP3   OH271343   1.912   4.379  12.997 -0.1875  0.0458  0.4767
16643TIP3    H171344   2.000   4.370  13.034  0.4166 -1.3874 -1.1118
16643TIP3    H271345   1.921   4.448  12.931 -0.1951 -0.2140  0.2001
16644TIP3   OH271346   5.431   5.893  13.538  0.3046  0.0044  0.5186
16644TIP3    H171347   5.419   5.961  13.471  0.8746 -0.0038  0.4067
16644TIP3    H271348   5.405   5.935  13.620 -0.5166 -0.0210  0.2842
16645TIP3   OH271349   6.583   3.562  11.073  0.3939  0.8916  0.1480
16645TIP3    H171350   6.608   3.503  11.002 -1.3556  2.1503 -1.6079
16645TIP3    H271351   6.527   3.627  11.032 -0.6303  1.7458  2.6926
16646TIP3   OH271352   6.295   1.465  14.462  0.0315  0.3937  0.1518
16646TIP3    H171353   6.292   1.439  14.554 -0.1571 -0.6442 -0.1337
16646TIP3    H271354   6.306   1.383  14.415 -0.0764  0.8976 -0.7645
16647TIP3   OH271355   4.371   0.496   2.979  0.1033  0.1623 -0.4466
16647TIP3    H171356   4.442   0.482   2.917 -0.9003 -0.6943 -1.4374
16647TIP3    H271357   4.401   0.452   3.059  1.6733  1.8061 -0.0480
16648TIP3   OH271358   3.437   6.629  11.472 -0.7306  0.1756 -0.2208
16648TIP3    H171359   3.460   6.558  11.412 -0.8494  0.6534 -0.8374
16648TIP3    H271360   3.356   6.666  11.436 -1.1971  0.0058  0.6335
16649TIP3   OH271361   4.186   5.414  11.587  0.0406 -0.4828  0.8474
16649TIP3    H171362   4.259   5.355  11.567  0.3089  0.0105  0.3368
16649TIP3    H271363   4.127   5.405  11.511 -0.3308 -0.7219  1.1598
16650TIP3   OH271364   2.924   0.877  13.739  0.0152 -0.1286  0.0185
16650TIP3    H171365   2.967   0.832  13.667  0.0132 -1.2016  0.6809
16650TIP3    H271366   2.992   0.933  13.777  0.6436 -1.2222  0.5610
16651TIP3   OH271367   0.782   2.503   2.857  0.0033 -0.0902 -0.1248
16651TIP3    H171368   0.878   2.499   2.853  0.0497 -3.7013  0.6359
16651TIP3    H271369   0.763   2.500   2.951 -0.9027  1.4724 -0.2335
16652TIP3   OH271370   2.877   2.949  14.875 -0.1430 -0.0875  0.3011
16652TIP3    H171371   2.941   2.948  14.946  0.7146  0.7442 -0.4344
16652TIP3    H271372   2.835   3.035  14.881  0.2685  0.1749 -0.4794
16653TIP3   OH271373   1.654   6.575  13.082  0.6683  0.9656 -0.0869
16653TIP3    H171374   1.744   6.546  13.069  0.1477 -0.5512 -0.5726
16653TIP3    H271375   1.606   6.540  13.007 -0.4611  1.0576  0.5591
16654TIP3   OH271376   5.757   1.449   1.882  0.4844 -0.0898 -0.3533
16654TIP3    H171377   5.741   1.487   1.968 -0.9640  2.8662 -1.7764
16654TIP3    H271378   5.779   1.524   1.826  1.2752 -1.8676 -2.6044
16655TIP3   OH271379   4.958   4.215   2.255 -0.8001  0.1461  0.2861
16655TIP3    H171380   5.048   4.228   2.225 -0.0761  2.6216  3.0998
16655TIP3    H271381   4.905   4.266   2.193  0.1553  1.6064  0.6218
16656TIP3   OH271382   3.675   2.655  16.791  0.1454 -0.0165  0.1058
16656TIP3    H171383   3.672   2.593  16.864  0.8566 -1.0511 -0.7186
16656TIP3    H271384   3.584   2.676  16.774 -0.1968 -1.6564 -0.2585
16657TIP3   OH271385   4.765   0.437  17.172 -0.1498  0.1323  0.3929
16657TIP3    H171386   4.808   0.354  17.154 -2.1310 -0.7635 -0.5107
16657TIP3    H271387   4.729   0.465  17.088 -3.1341 -0.2930  1.4003
16658TIP3   OH271388   2.535   4.999   1.749  0.3508 -0.3498  0.1950
16658TIP3    H171389   2.630   5.005   1.760  0.4304 -0.1429 -0.5452
16658TIP3    H271390   2.522   4.925   1.690  0.1846  0.7430 -1.1891
16659TIP3   OH271391   2.843   6.340  14.633  0.2070 -0.1008 -0.9731
16659TIP3    H171392   2.817   6.258  14.675  2.0419  0.5661  1.7004
16659TIP3    H271393   2.760   6.386  14.618 -0.6221 -0.6678  1.4222
16660TIP3   OH271394   5.276   0.414   1.836  0.1239 -0.2641  0.2420
16660TIP3    H171395   5.327   0.379   1.762  0.5875  0.5297  0.1807
16660TIP3    H271396   5.263   0.339   1.893  0.7988 -0.6210 -0.0622
16661TIP3   OH271397   3.937   5.335   4.121  0.3618 -0.1486  0.0093
16661TIP3    H171398   4.017   5.339   4.174 -0.3850  0.6179  1.1208
16661TIP3    H271399   3.871   5.382   4.173 -0.1353  1.6488 -2.0871
16662TIP3   OH271400   1.547   1.307  16.010 -0.3729 -0.0917  0.2806
16662TIP3    H171401   1.602   1.294  16.087  1.3243 -1.6016 -1.1090
16662TIP3    H271402   1.529   1.401  16.009  0.2699  0.0806  2.0393
16663TIP3   OH271403   3.172   4.505  16.888 -0.2633  0.3317 -0.0902
16663TIP3    H171404   3.132   4.455  16.959 -0.8261  0.0780 -0.5739
16663TIP3    H271405   3.230   4.442  16.845  1.5414  0.9800  1.2633
16664TIP3   OH271406   5.905   2.927   4.512  0.0042 -0.0757  0.0884
16664TIP3    H171407   5.891   2.833   4.523  1.7953 -0.5284 -1.0976
16664TIP3    H271408   5.834   2.955   4.454 -0.8137 -0.5879  0.8182
16665TIP3   OH271409   5.177   3.116  12.560 -0.5121 -0.7372  0.0350
16665TIP3    H171410   5.104   3.076  12.513 -0.1774 -2.4174  0.8462
16665TIP3    H271411   5.152   3.112  12.652 -0.5815  1.2716  0.1330
16666TIP3   OH271412   3.161   5.748   6.350  0.3779 -0.5887  0.0239
16666TIP3    H171413   3.148   5.660   6.384  0.5022 -0.7240 -0.2767
16666TIP3    H271414   3.079   5.770   6.307 -0.1724  0.0002  1.3173
16667TIP3   OH271415   1.025   4.101   0.413  0.1845 -0.2106 -0.3236
16667TIP3    H171416   1.074   4.171   0.457 -1.0118  0.9353 -0.7293
16667TIP3    H271417   1.000   4.041   0.482  0.9829 -0.0773  0.0851
16668TIP3   OH271418   3.166   4.621   0.966 -0.0091  0.3332 -0.2482
16668TIP3    H171419   3.217   4.630   1.046 -1.6707 -2.7522  1.3622
16668TIP3    H271420   3.195   4.538   0.929 -0.0358  1.1921 -2.2938
16669TIP3   OH271421   0.244   3.820  16.786 -0.0353 -0.0974 -0.2175
16669TIP3    H171422   0.312   3.782  16.730  1.3315  2.1724 -0.2132
16669TIP3    H271423   0.281   3.818  16.874  0.2507  1.5442 -0.2784
16670TIP3   OH271424   6.105   0.849   5.260 -0.1073 -0.6620 -0.1322
16670TIP3    H171425   6.187   0.800   5.261  0.6128  0.4863  0.5191
16670TIP3    H271426   6.061   0.824   5.342  0.5373  0.1912  0.4920
16671TIP3   OH271427   1.874   5.715  11.929 -0.5657  0.1517  0.3887
16671TIP3    H171428   1.896   5.654  11.999  3.3664 -0.8839 -1.4751
16671TIP3    H271429   1.819   5.665  11.869  1.3587 -1.1293 -0.3629
16672TIP3   OH271430   4.103   5.493   5.687  0.5639  0.2644  0.0781
16672TIP3    H171431   4.185   5.517   5.729  0.7160  0.6967 -0.4529
16672TIP3    H271432   4.081   5.568   5.632  0.7074 -0.5311 -1.1023
16673TIP3   OH271433   3.725   1.925   5.576  0.3129 -0.2146  0.1991
16673TIP3    H171434   3.798   1.936   5.515  0.3762 -0.7910  0.1671
16673TIP3    H271435   3.765   1.931   5.662  0.1432  1.1536  0.2032
16674TIP3   OH271436   5.300   2.492  12.247  0.1051  0.2788 -0.2730
16674TIP3    H171437   5.322   2.496  12.340 -1.1250 -0.9712  0.1195
16674TIP3    H271438   5.255   2.574  12.230 -2.0183 -0.5361  0.9647
16675TIP3   OH271439   3.884   1.499  16.823  0.3322  0.0370 -0.1145
16675TIP3    H171440   3.966   1.501  16.872 -0.6918 -0.4879  1.6839
16675TIP3    H271441   3.834   1.572  16.858 -0.2353 -0.0347 -0.7578
16676TIP3   OH271442   6.014   5.944  11.853  0.3056  0.3640  0.7339
16676TIP3    H171443   6.007   6.002  11.777 -0.1798 -1.1057 -0.3858
16676TIP3    H271444   6.010   6.003  11.928 -0.6093  1.7443 -0.3460
16677TIP3   OH271445   3.166   0.048   3.992 -0.1334  0.4187  0.2635
16677TIP3    H171446   3.196   0.124   3.943  1.2170  0.2971  0.8454
16677TIP3    H271447   3.132   0.083   4.074 -1.6449  0.5536 -0.3822
16678TIP3   OH271448   4.559   2.608   6.333 -0.7906  0.1916  0.3117
16678TIP3    H171449   4.632   2.662   6.304 -1.1744  1.0584  0.9160
16678TIP3    H271450   4.553   2.539   6.267 -0.5331  1.1092 -0.7056
16679TIP3   OH271451   4.289   5.183   0.967 -0.2667  0.4678  0.7259
16679TIP3    H171452   4.335   5.249   1.017 -2.0630  1.5004  1.1237
16679TIP3    H271453   4.255   5.122   1.033 -0.5325  0.4303  0.5573
16680TIP3   OH271454   1.637   1.544  13.420  0.0916  0.4861 -0.6091
16680TIP3    H171455   1.569   1.501  13.369 -0.2416  1.0459 -0.6376
16680TIP3    H271456   1.663   1.620  13.368 -1.7268  2.2976  0.9549
16681TIP3   OH271457   1.066   3.163  13.247 -0.3929 -0.0084 -0.2793
16681TIP3    H171458   0.981   3.191  13.281  0.4683 -0.1657  2.2137
16681TIP3    H271459   1.049   3.139  13.156 -2.5735  1.9086 -0.4736
16682TIP3   OH271460   6.006   5.007  15.241  0.3258 -0.1524 -0.3501
16682TIP3    H171461   6.039   4.918  15.252  2.2135  0.3433 -1.5833
16682TIP3    H271462   6.044   5.055  15.314 -0.3973 -0.2545  0.1064
16683TIP3   OH271463   2.840   1.550  14.747 -0.2613  0.3687 -0.6873
16683TIP3    H171464   2.763   1.538  14.801 -0.3116 -1.8433 -1.1694
16683TIP3    H271465   2.912   1.512  14.798  0.1886  0.7900 -0.9958
16684TIP3   OH271466   0.406   2.443   1.027 -0.4174  0.2943  0.3037
16684TIP3    H171467   0.389   2.447   0.933 -0.7455  0.3609  0.3661
16684TIP3    H271468   0.342   2.503   1.065 -1.1713 -0.7292  0.6855
16685TIP3   OH271469   6.085   5.591   4.269  0.0406 -0.8298 -0.4504
16685TIP3    H171470   5.992   5.571   4.279  0.0127 -0.1575  0.8725
16685TIP3    H271471   6.118   5.597   4.358  1.0250  0.3904 -0.8582
16686TIP3   OH271472   6.252   1.899  15.868  0.3611  0.5021 -0.3718
16686TIP3    H171473   6.256   1.993  15.852 -0.5413  0.4679 -0.8837
16686TIP3    H271474   6.332   1.864  15.827  0.9334  1.0915  0.2275
16687TIP3   OH271475   4.067   2.994  12.898 -0.2264  0.2102 -0.3843
16687TIP3    H171476   4.070   3.038  12.813 -0.4286 -1.8876 -1.5549
16687TIP3    H271477   4.057   2.901  12.876  0.7969 -0.5107  1.9192
16688TIP3   OH271478   5.273   0.357  14.368  0.3092 -0.6623 -0.3574
16688TIP3    H171479   5.342   0.376  14.305 -0.8943 -0.4029 -1.6458
16688TIP3    H271480   5.298   0.405  14.446  0.5240  1.1691 -1.4955
16689TIP3   OH271481   0.243   1.104  11.260  0.0348  0.2142  0.0843
16689TIP3    H171482   0.321   1.153  11.287 -0.1869  1.2558 -1.1019
16689TIP3    H271483   0.170   1.158  11.288 -0.2131  1.4759 -2.6835
16690TIP3   OH271484   3.540   6.086  16.696  0.6051  0.3587 -0.0509
16690TIP3    H171485   3.459   6.119  16.735 -0.4743 -1.2983 -0.7887
16690TIP3    H271486   3.518   6.069  16.604  1.7737 -0.1395 -0.2654
16691TIP3   OH271487   4.891   3.795   0.611  0.5744  0.4013 -0.1185
16691TIP3    H171488   4.882   3.704   0.582 -1.6386  0.1329  1.1935
16691TIP3    H271489   4.869   3.847   0.534  0.5430 -0.1829 -0.5149
16692TIP3   OH271490   3.659   4.909  16.691  0.0072 -0.2288 -0.1401
16692TIP3    H171491   3.694   4.856  16.619  1.0660 -0.1656  0.3155
16692TIP3    H271492   3.583   4.859  16.722 -0.1807 -0.4876 -0.9995
16693TIP3   OH271493   6.155   2.710   3.777 -0.5527 -0.1830  0.5883
16693TIP3    H171494   6.093   2.779   3.800 -0.0238  0.7786 -0.7400
16693TIP3    H271495   6.103   2.629   3.780 -1.5324  0.4382  0.7988
16694TIP3   OH271496   1.889   3.910  15.341 -0.5521  0.1253 -0.2200
16694TIP3    H171497   1.838   3.942  15.415 -2.7055  0.4550 -1.7724
16694TIP3    H271498   1.852   3.824  15.321 -0.3496  0.2581 -1.2247
16695TIP3   OH271499   5.741   5.917   1.422 -0.4296  0.4748  0.6382
16695TIP3    H171500   5.771   5.832   1.391 -1.5148  0.2610  0.1307
16695TIP3    H271501   5.721   5.904   1.515  1.9266  0.8782  1.2722
16696TIP3   OH271502   4.203   2.647  14.555 -0.3356 -0.1928 -0.0514
16696TIP3    H171503   4.136   2.581  14.540  1.0051 -1.1997 -2.0147
16696TIP3    H271504   4.281   2.596  14.581  0.3550  0.7276 -0.2697
16697TIP3   OH271505   0.775   2.278   2.587 -0.3723  0.4882 -0.1730
16697TIP3    H171506   0.832   2.319   2.653  1.7653  0.4726 -1.8887
16697TIP3    H271507   0.718   2.349   2.557 -0.2405  0.9006  0.5222
16698TIP3   OH271508   0.350   0.276  16.842 -0.2335 -0.0138  0.2631
16698TIP3    H171509   0.367   0.320  16.758 -0.2668  0.6881  0.6184
16698TIP3    H271510   0.363   0.183  16.823 -2.0955 -0.0616 -0.9771
16699TIP3   OH271511   3.049   1.837   4.647 -0.4844  0.0454  0.2477
16699TIP3    H171512   3.019   1.774   4.711  0.3757 -1.7635 -1.0463
16699TIP3    H271513   3.142   1.848   4.666  0.0799 -1.4585 -1.3565
16700TIP3   OH271514   1.128   4.048  13.770 -0.2935 -0.0409 -0.2999
16700TIP3    H171515   1.223   4.052  13.762 -0.3007  2.2456 -0.0081
16700TIP3    H271516   1.099   4.003  13.691  1.0107 -0.6984 -0.4325
16701TIP3   OH271517   2.447   6.376  11.239  0.1465  0.2895 -0.2588
16701TIP3    H171518   2.518   6.359  11.301 -0.0222  1.0406  0.1559
16701TIP3    H271519   2.430   6.470  11.248  0.1514  0.4220 -1.4812
16702TIP3   OH271520   4.114   1.819   1.217 -0.0898 -0.6226 -0.2516
16702TIP3    H171521   4.044   1.754   1.228 -0.5497 -0.3193 -1.3009
16702TIP3    H271522   4.098   1.857   1.131  2.1342 -1.4576 -1.0868
16703TIP3   OH271523   6.419   4.379   0.599 -0.3577  0.9394  0.2058
16703TIP3    H171524   6.387   4.404   0.513 -0.3499  2.0359  0.5061
16703TIP3    H271525   6.340   4.368   0.652 -0.6010 -3.0861 -0.7366
16704TIP3   OH271526   4.086   0.938  14.261  0.4343  0.1107 -0.0694
16704TIP3    H171527   4.179   0.962  14.260  0.5455 -0.3063 -1.2632
16704TIP3    H271528   4.083   0.854  14.307  0.6972 -0.0827 -0.4099
16705TIP3   OH271529   1.788   3.475   4.490  0.4034 -0.1979 -0.3873
16705TIP3    H171530   1.698   3.456   4.517  0.8394 -0.6004  0.8792
16705TIP3    H271531   1.801   3.420   4.413  0.5360 -2.6984  1.2583
16706TIP3   OH271532   1.139   4.995  12.412 -0.2895 -0.2732  0.5726
16706TIP3    H171533   1.132   5.091  12.417  0.2739 -0.2528  1.1552
16706TIP3    H271534   1.091   4.972  12.333 -0.4915  0.4891  0.4596
16707TIP3   OH271535   2.071   4.752   3.110  0.2155  0.2573 -0.0382
16707TIP3    H171536   2.055   4.658   3.111  0.2237  0.2105 -1.4941
16707TIP3    H271537   2.166   4.761   3.118  0.1174  0.2174  1.3825
16708TIP3   OH271538   3.673   5.456  12.677  0.3611  0.6079 -0.3368
16708TIP3    H171539   3.667   5.362  12.695 -1.3843  0.6958 -0.3618
16708TIP3    H271540   3.676   5.462  12.581  1.0618  0.5685 -0.3256
16709TIP3   OH271541   2.944   5.857  15.141  0.1273 -0.2778 -0.1587
16709TIP3    H171542   2.860   5.822  15.114 -0.2074 -1.8930  2.5196
16709TIP3    H271543   2.924   5.942  15.180  0.2211  0.7321 -2.2300
16710TIP3   OH271544   5.445   3.366  13.732  0.1169 -0.2871 -0.2523
16710TIP3    H171545   5.500   3.288  13.738  1.1014  0.1282 -2.5836
16710TIP3    H271546   5.476   3.423  13.801 -0.1101 -1.6234  1.0050
16711TIP3   OH271547   1.370   1.938  11.786 -0.0608  0.4252  0.0312
16711TIP3    H171548   1.307   1.977  11.726  0.4956 -0.1736 -0.9557
16711TIP3    H271549   1.453   1.941  11.740 -0.0711 -2.3867 -0.3569
16712TIP3   OH271550   1.627   4.872   2.760  0.3641 -0.4819 -0.5328
16712TIP3    H171551   1.555   4.936   2.761  0.6959 -0.1056  0.1305
16712TIP3    H271552   1.693   4.913   2.704  0.0110 -0.8984 -1.2698
16713TIP3   OH271553   2.638   6.143   3.029 -0.2359  0.1938 -0.4819
16713TIP3    H171554   2.610   6.230   3.054  0.7148  0.8535 -1.6071
16713TIP3    H271555   2.689   6.112   3.104 -0.2221  0.7728 -0.2461
16714TIP3   OH271556   2.190   2.576   0.870  0.4076 -0.3811 -0.5158
16714TIP3    H171557   2.096   2.561   0.860  0.4216  0.0623 -1.4584
16714TIP3    H271558   2.196   2.666   0.904  0.4414 -1.1067  1.5080
16715TIP3   OH271559   5.320   3.689  15.926  0.1004  0.0905  0.3341
16715TIP3    H171560   5.260   3.763  15.920 -0.4350 -0.2077  1.6908
16715TIP3    H271561   5.382   3.703  15.854  0.4896  2.2708  1.0080
16716TIP3   OH271562   4.782   6.727  16.890  0.0831 -0.2238 -0.1400
16716TIP3    H171563   4.797   6.654  16.831  1.2439  0.3120 -0.5331
16716TIP3    H271564   4.687   6.742  16.887 -0.2397 -1.9879  0.3190
16717TIP3   OH271565   5.408   4.841  14.932 -0.0651  0.1848  0.1390
16717TIP3    H171566   5.466   4.902  14.978  0.3310  0.3003 -0.4941
16717TIP3    H271567   5.336   4.825  14.993  2.1003 -2.3642  2.2658
16718TIP3   OH271568   5.956   0.251  15.238 -0.1078  0.5414 -0.1351
16718TIP3    H171569   5.964   0.158  15.215 -1.0137  0.4115  0.0585
16718TIP3    H271570   6.017   0.295  15.180 -0.5833 -0.0403 -1.0940
16719TIP3   OH271571   1.695   3.695   0.615  0.4344  0.1020  0.3509
16719TIP3    H171572   1.625   3.630   0.609 -0.6423  1.2264  0.3714
16719TIP3    H271573   1.764   3.651   0.665 -0.4875 -0.8475  0.8383
16720TIP3   OH271574   2.120   0.870   1.061  0.6074 -0.2173 -0.3024
16720TIP3    H171575   2.121   0.932   1.134  1.5965 -0.8651  0.2547
16720TIP3    H271576   2.061   0.910   0.997  1.8723  1.7096 -0.3304
16721TIP3   OH271577   1.639   1.332  13.845  0.2227  0.4960 -0.3603
16721TIP3    H171578   1.629   1.415  13.798 -0.2676  0.4907 -0.2648
16721TIP3    H271579   1.706   1.350  13.911 -0.7227  1.1538  0.4417
16722TIP3   OH271580   3.609   3.686  12.964 -0.1585 -0.5584 -0.2500
16722TIP3    H171581   3.649   3.662  12.881 -2.4000 -0.3976 -1.4609
16722TIP3    H271582   3.599   3.781  12.959 -0.1649 -0.5253  0.2864
16723TIP3   OH271583   1.287   3.753   2.935  0.3725 -0.2458  0.3665
16723TIP3    H171584   1.322   3.693   3.001 -0.3566 -0.4617  0.5653
16723TIP3    H271585   1.194   3.759   2.955  0.1949 -0.0831 -0.4677
16724TIP3   OH271586   4.766   6.108   1.291 -0.3548 -0.0237 -0.4576
16724TIP3    H171587   4.770   6.202   1.273 -0.2098 -0.2246 -1.5632
16724TIP3    H271588   4.771   6.101   1.386  0.1742  1.0662 -0.3938
16725TIP3   OH271589   1.530   4.798   1.626 -0.2470  0.6851  0.4912
16725TIP3    H171590   1.576   4.735   1.681  1.4569 -0.4283 -2.0090
16725TIP3    H271591   1.589   4.873   1.621  1.7954 -0.8891 -3.0209
16726TIP3   OH271592   4.548   0.729  13.940 -0.7372 -0.1118  0.0849
16726TIP3    H171593   4.622   0.681  13.902 -1.2296 -0.1845 -0.8200
16726TIP3    H271594   4.578   0.820  13.944 -0.3554 -0.2464  0.3663
16727TIP3   OH271595   4.688   6.668   4.558  0.1685 -0.0061  0.8146
16727TIP3    H171596   4.630   6.727   4.511  0.3309 -0.7375 -0.3284
16727TIP3    H271597   4.742   6.627   4.491  0.3360 -1.1615  1.6116
16728TIP3   OH271598   1.160   4.414  13.680 -0.3778 -0.3876  0.5122
16728TIP3    H171599   1.206   4.364  13.612  0.4921 -0.0836  0.8673
16728TIP3    H271600   1.119   4.347  13.735 -3.2675 -0.6402 -1.7127
16729TIP3   OH271601   4.754   4.058   1.944  0.5811  0.0911 -0.8451
16729TIP3    H171602   4.791   3.977   1.911  0.1123  0.1007 -1.4126
16729TIP3    H271603   4.660   4.051   1.927  0.2194 -0.1827  1.1054
16730TIP3   OH271604   4.484   0.108  12.386  0.2579  0.1798 -0.6434
16730TIP3    H171605   4.509   0.039  12.448  0.1955  1.3303  0.7210
16730TIP3    H271606   4.456   0.181  12.442 -0.2038  1.1203 -2.0507
16731TIP3   OH271607   4.419   4.123  17.010  0.1661 -0.6124 -0.3583
16731TIP3    H171608   4.432   4.153  16.920 -2.1062 -1.6788 -1.1244
16731TIP3    H271609   4.334   4.159  17.035 -0.1656 -1.9849  0.6120
16732TIP3   OH271610   5.756   6.178  15.156  0.2997  0.0678 -0.8853
16732TIP3    H171611   5.834   6.168  15.212  0.1588  0.5131 -0.6007
16732TIP3    H271612   5.687   6.206  15.217  0.0656  0.2509 -1.2346
16733TIP3   OH271613   6.723   4.519  15.589  0.1511  0.0311  0.1898
16733TIP3    H171614   6.685   4.485  15.507  0.0457  0.6615 -0.0243
16733TIP3    H271615   6.795   4.576  15.560  1.3323 -1.1939  0.5900
16734TIP3   OH271616   2.858   4.238   1.357 -0.0373  0.3258  0.2706
16734TIP3    H171617   2.911   4.158   1.361 -0.4105  0.1040  0.8341
16734TIP3    H271618   2.923   4.309   1.361  0.2733  0.0567  0.1055
16735TIP3   OH271619   5.792   1.024  15.951 -0.0612  0.4302 -0.0121
16735TIP3    H171620   5.718   1.028  15.890 -0.3490  0.5642  0.3466
16735TIP3    H271621   5.792   1.109  15.995 -1.1235 -0.3773  1.6499
16736TIP3   OH271622   1.772   6.682   5.381  0.7824 -0.1662  0.6538
16736TIP3    H171623   1.817   6.603   5.409  1.7136  0.8473  2.2354
16736TIP3    H271624   1.686   6.676   5.422  0.5254 -0.7638  0.0341
16737TIP3   OH271625   0.079   2.773  16.090  0.5433 -0.1976  0.3458
16737TIP3    H171626   0.025   2.708  16.137 -0.1249 -0.9077 -1.3284
16737TIP3    H271627   0.121   2.823  16.160  0.3328 -1.8040  1.7086
16738TIP3   OH271628   0.235   5.699   0.459  0.1787  0.0155  0.3931
16738TIP3    H171629   0.214   5.609   0.433  0.1498 -0.1280  0.8996
16738TIP3    H271630   0.323   5.713   0.424 -0.1364  0.0848 -0.4030
16739TIP3   OH271631   0.999   0.421   6.107  0.2485 -0.0291 -0.5124
16739TIP3    H171632   0.977   0.454   6.195 -1.9886  1.6878 -1.6210
16739TIP3    H271633   0.933   0.354   6.090 -0.1917  0.6023 -1.3698
16740TIP3   OH271634   6.689   4.905  11.701  0.7709  0.7576 -0.2719
16740TIP3    H171635   6.651   4.966  11.764 -0.7909 -0.8967  0.4620
16740TIP3    H271636   6.613   4.860  11.663  1.8790 -1.0896 -0.4081
16741TIP3   OH271637   0.490   4.773  16.005 -0.9182 -0.0646  0.5539
16741TIP3    H171638   0.579   4.794  16.035 -1.2522 -0.9813  2.3890
16741TIP3    H271639   0.495   4.777  15.910  1.2462 -0.6164  0.5850
16742TIP3   OH271640   3.162   1.491  14.263 -0.7158 -0.4632  0.0514
16742TIP3    H171641   3.252   1.511  14.238 -0.0347 -2.7340  0.5239
16742TIP3    H271642   3.154   1.521  14.354 -0.5962  0.1557 -0.1393
16743TIP3   OH271643   5.892   0.926   3.941  0.3263 -0.0399 -0.0444
16743TIP3    H171644   5.863   0.892   3.856 -2.2851  1.6475  0.0415
16743TIP3    H271645   5.987   0.925   3.936  0.2713 -1.6702 -2.2831
16744TIP3   OH271646   1.442   3.340  13.889 -0.1637 -0.2194  0.0032
16744TIP3    H171647   1.467   3.340  13.982  2.1920 -0.2407 -0.5600
16744TIP3    H271648   1.401   3.425  13.875 -1.0169 -0.4169  1.1634
16745TIP3   OH271649   6.051   0.409  10.994 -0.4815 -0.0267 -0.1297
16745TIP3    H171650   6.007   0.326  10.977 -1.9463  0.7969 -0.4986
16745TIP3    H271651   5.981   0.469  11.018  0.3055  1.5683 -1.5763
16746TIP3   OH271652   3.475   1.588  12.406 -0.7393 -0.3382  0.5067
16746TIP3    H171653   3.428   1.658  12.360 -0.7393 -0.4234  0.3796
16746TIP3    H271654   3.478   1.515  12.345 -0.3784 -0.3105  0.4871
16747TIP3   OH271655   2.897   2.804   1.849  0.3886 -0.1722  0.0763
16747TIP3    H171656   2.955   2.832   1.777  0.6527 -1.0866 -0.0772
16747TIP3    H271657   2.924   2.714   1.868  0.0455 -0.0770  1.0542
16748TIP3   OH271658   5.286   0.464  16.928  0.0054 -0.0864  0.1935
16748TIP3    H171659   5.368   0.486  16.972 -0.8443 -0.2934  1.9521
16748TIP3    H271660   5.279   0.528  16.857  0.5820  1.3842  1.4181
16749TIP3   OH271661   5.455   1.469  12.119  0.3680  0.4557 -0.4541
16749TIP3    H171662   5.443   1.394  12.060  2.1417 -0.5612  0.4152
16749TIP3    H271663   5.515   1.437  12.186 -0.8657  1.8796  1.4057
16750TIP3   OH271664   3.194   4.769  11.714 -0.2197 -0.6558  0.2256
16750TIP3    H171665   3.237   4.690  11.748 -1.6725 -1.0528  1.2673
16750TIP3    H271666   3.120   4.736  11.664 -0.3001  0.0382 -0.1204
16751TIP3   OH271667   1.015   1.017  16.251 -0.0180  0.5657  0.0303
16751TIP3    H171668   1.092   1.062  16.217  1.1889 -1.0549  0.5645
16751TIP3    H271669   0.943   1.078  16.232  1.4361  2.4112  0.1127
16752TIP3   OH271670   4.527   3.779   4.253  0.2020  0.0558 -0.0880
16752TIP3    H171671   4.575   3.861   4.259  1.7517 -0.8936  2.4543
16752TIP3    H271672   4.594   3.713   4.234 -0.5057 -0.9536  0.7677
16753TIP3   OH271673   6.290   4.633   4.262  0.1046  0.4120 -0.1696
16753TIP3    H171674   6.365   4.690   4.246 -0.2981  1.2218  0.7924
16753TIP3    H271675   6.216   4.692   4.272 -0.8175 -0.3949 -1.7108
16754TIP3   OH271676   4.249   3.512   3.687  0.3193 -0.1120 -0.1641
16754TIP3    H171677   4.312   3.574   3.721  1.1833  0.4923 -2.6400
16754TIP3    H271678   4.295   3.467   3.616 -0.9510 -2.1213  0.1889
16755TIP3   OH271679   2.351   2.482   5.662 -0.4637  0.0034 -0.6001
16755TIP3    H171680   2.265   2.524   5.669 -0.7700 -0.3619 -1.9596
16755TIP3    H271681   2.342   2.401   5.712 -1.4306 -0.8020 -2.0279
16756TIP3   OH271682   3.855   6.558  15.178  0.6893 -0.4180 -0.2493
16756TIP3    H171683   3.874   6.559  15.272 -1.2382 -1.8358  0.2162
16756TIP3    H271684   3.862   6.465  15.153  0.6666 -0.1261 -1.3967
16757TIP3   OH271685   1.871   2.774   5.283  0.2107 -0.2527  0.2664
16757TIP3    H171686   1.823   2.789   5.365 -1.5334  0.1227 -0.7781
16757TIP3    H271687   1.893   2.681   5.285 -0.5185 -0.4243  0.8073
16758TIP3   OH271688   6.722   6.202  16.531  0.0112  0.0316 -0.0341
16758TIP3    H171689   6.684   6.135  16.588  1.6010  0.8420  2.1373
16758TIP3    H271690   6.797   6.235  16.581  1.2513  1.1043 -2.4746
16759TIP3   OH271691   2.659   4.770   4.152  0.0062 -0.1274 -0.1284
16759TIP3    H171692   2.709   4.725   4.085 -2.7356 -3.0427 -0.4449
16759TIP3    H271693   2.673   4.719   4.232 -1.3621 -0.2579  0.0655
16760TIP3   OH271694   3.786   0.332  13.931 -0.1062 -0.0817 -0.2947
16760TIP3    H171695   3.822   0.392  13.996 -0.4254  0.3423 -0.5019
16760TIP3    H271696   3.691   0.346  13.936 -0.1331 -0.0652 -0.8375
16761TIP3   OH271697   5.293   1.204  13.078 -0.1239  0.4661 -0.1609
16761TIP3    H171698   5.311   1.147  13.153 -0.9600 -0.4213 -0.6091
16761TIP3    H271699   5.269   1.144  13.008  0.0325  1.3230 -0.9685
16762TIP3   OH271700   1.075   6.667   5.561 -0.8834  0.4400 -0.2802
16762TIP3    H171701   1.025   6.627   5.632 -2.3869  1.6875 -0.5788
16762TIP3    H271702   1.013   6.673   5.488  0.7589 -1.2784 -1.9415
16763TIP3   OH271703   6.095   2.444   3.472 -0.4822 -0.4447  0.2261
16763TIP3    H171704   6.087   2.388   3.395 -1.3836 -0.3063  0.2172
16763TIP3    H271705   6.010   2.487   3.480 -0.9297 -1.5515  2.1301
16764TIP3   OH271706   6.026   2.887  17.199  0.4235 -0.8442 -0.4349
16764TIP3    H171707   5.979   2.810  17.232  0.6509 -1.1187 -0.7396
16764TIP3    H271708   5.970   2.920  17.128  2.0014 -2.8817 -2.7977
16765TIP3   OH271709   1.857   2.952  14.523 -0.3531  0.4459 -0.5538
16765TIP3    H171710   1.917   3.014  14.482  0.8368  0.5315  1.1896
16765TIP3    H271711   1.887   2.947  14.614 -1.5358 -1.3337 -0.2181
16766TIP3   OH271712   4.058   4.250  14.089 -0.1086 -0.0789  0.2326
16766TIP3    H171713   4.034   4.329  14.137 -0.2731  1.0909 -1.6647
16766TIP3    H271714   4.152   4.240  14.104 -0.2310 -0.0130  1.1238
16767TIP3   OH271715   4.333   3.244   4.867  0.3713 -0.0218  1.0378
16767TIP3    H171716   4.421   3.272   4.890  0.6625 -1.5562  1.9148
16767TIP3    H271717   4.316   3.285   4.783  3.7860 -3.3542 -1.6127
16768TIP3   OH271718   2.884   3.962  11.257 -0.0869 -0.7848 -0.1871
16768TIP3    H171719   2.911   4.024  11.190 -0.6327  0.3798  0.6226
16768TIP3    H271720   2.966   3.926  11.292  0.2144 -0.8954 -0.9946
16769TIP3   OH271721   0.221   1.510  14.269  0.4934  0.4786 -0.2156
16769TIP3    H171722   0.268   1.427  14.273 -1.8575 -1.0299 -1.7075
16769TIP3    H271723   0.284   1.575  14.301  3.1544 -1.5354 -1.0513
16770TIP3   OH271724   2.118   5.667   3.613 -0.2828  0.0085 -0.1543
16770TIP3    H171725   2.036   5.658   3.563 -0.1990  0.4677 -0.3841
16770TIP3    H271726   2.092   5.717   3.691 -0.4797 -0.9912  0.4393
16771TIP3   OH271727   2.032   0.043  12.482 -0.2456 -0.5488 -0.1191
16771TIP3    H171728   2.045   0.053  12.388 -0.9320 -1.3396 -0.3131
16771TIP3    H271729   1.938   0.031  12.492 -0.1214 -0.9628  0.6134
16772TIP3   OH271730   6.269   3.081   5.652 -0.3924  0.0645  0.6935
16772TIP3    H171731   6.219   3.002   5.631  0.0216 -0.3136  1.0927
16772TIP3    H271732   6.203   3.147   5.670 -0.7757  0.4458 -1.8477
16773TIP3   OH271733   6.370   4.263  11.093 -0.0355 -0.3321 -0.2652
16773TIP3    H171734   6.444   4.205  11.080  1.9975  2.3458 -1.4529
16773TIP3    H271735   6.391   4.342  11.043 -3.1245  1.0590  0.3642
16774TIP3   OH271736   2.918   0.380  14.045 -0.4764 -0.1031  0.0836
16774TIP3    H171737   2.966   0.444  14.097 -1.6529  1.7768 -1.0197
16774TIP3    H271738   2.877   0.322  14.109  1.6695 -0.5931  1.0763
16775TIP3   OH271739   4.162   3.446   1.145 -0.0378 -0.2777  0.3681
16775TIP3    H171740   4.204   3.384   1.205  0.8873 -0.5050 -0.4903
16775TIP3    H271741   4.128   3.392   1.074  0.6404  0.1683 -0.3116
16776TIP3   OH271742   3.276   2.769   1.152 -0.2417 -0.3349  0.4066
16776TIP3    H171743   3.365   2.797   1.175  0.3000 -0.5145 -1.3189
16776TIP3    H271744   3.226   2.850   1.146 -0.1127 -0.2037  1.0564
16777TIP3   OH271745   1.027   4.568  11.025 -0.0764 -0.3064 -0.0340
16777TIP3    H171746   1.020   4.488  10.973  0.9151 -0.5582  0.1966
16777TIP3    H271747   1.073   4.630  10.969 -0.4118 -0.0575 -0.0351
16778TIP3   OH271748   3.724   4.425   2.525  0.1326 -0.2854  0.0146
16778TIP3    H171749   3.794   4.478   2.489  0.9343 -1.6382 -0.4971
16778TIP3    H271750   3.767   4.368   2.588 -0.6269 -0.6337  0.2274
16779TIP3   OH271751   1.572   6.269   0.298 -0.0448 -0.0322 -0.2206
16779TIP3    H171752   1.538   6.292   0.212 -1.0730  0.2040  0.2327
16779TIP3    H271753   1.500   6.224   0.341 -0.0378  1.1012  1.0302
16780TIP3   OH271754   3.863   0.117  12.267  0.3646 -0.4932 -0.4676
16780TIP3    H171755   3.914   0.196  12.287  0.5723 -0.1547 -2.1400
16780TIP3    H271756   3.924   0.045  12.281  0.8541 -0.1922 -0.9693
16781TIP3   OH271757   6.227   3.056  10.711  0.3116 -0.5233  0.4382
16781TIP3    H171758   6.281   2.998  10.657  0.8519 -0.6486  1.1021
16781TIP3    H271759   6.258   3.041  10.800  0.6500  0.9885  0.5991
16782TIP3   OH271760   4.836   1.403   5.677 -0.0605  0.6895 -0.7140
16782TIP3    H171761   4.908   1.370   5.732 -0.5232  2.1865  0.9005
16782TIP3    H271762   4.851   1.364   5.592  0.8986 -1.4942  0.3787
16783TIP3   OH271763   4.076   1.204  13.707 -0.1044  0.0098 -0.0709
16783TIP3    H171764   4.079   1.108  13.709 -1.0956 -0.1854 -3.1877
16783TIP3    H271765   4.141   1.229  13.641 -2.3360  1.1612 -1.9832
16784TIP3   OH271766   3.116   5.606   5.334 -0.3106  0.3928  0.1034
16784TIP3    H171767   3.118   5.591   5.240  0.8091 -2.2133  0.4266
16784TIP3    H271768   3.195   5.657   5.352  2.2720 -3.1241 -0.0159
16785TIP3   OH271769   2.850   5.694  14.527 -0.2643 -0.3691 -0.2418
16785TIP3    H171770   2.895   5.663  14.605  0.4400 -0.1272 -0.5438
16785TIP3    H271771   2.768   5.732  14.560 -0.5095 -1.3009  0.2594
16786TIP3   OH271772   6.460   3.497   5.217  0.3616  0.5804  0.9663
16786TIP3    H171773   6.459   3.473   5.310  0.3406 -0.1913  0.7788
16786TIP3    H271774   6.549   3.478   5.188  0.0010 -0.4976  0.5147
16787TIP3   OH271775   4.375   5.577  11.718  0.0450 -0.1583 -0.1277
16787TIP3    H171776   4.299   5.635  11.714  1.4282  1.6689 -1.7864
16787TIP3    H271777   4.367   5.522  11.640 -0.1106 -0.7064  0.2686
16788TIP3   OH271778   0.702   3.617   1.845  0.1851  0.6578 -0.2577
16788TIP3    H171779   0.657   3.571   1.915  1.3405  0.5332  0.4347
16788TIP3    H271780   0.716   3.551   1.777 -0.9303  0.7767 -0.6271
16789TIP3   OH271781   3.716   6.454   3.405  0.1884  0.1687  0.4442
16789TIP3    H171782   3.758   6.371   3.382  4.9412  1.2251  3.7158
16789TIP3    H271783   3.759   6.519   3.350  2.2047  1.1379  2.9485
16790TIP3   OH271784   5.647   1.812   5.164 -0.5336  1.1624  0.4256
16790TIP3    H171785   5.711   1.883   5.177  0.6139  0.5305 -1.3274
16790TIP3    H271786   5.565   1.857   5.146 -0.5047  2.0023  2.1774
16791TIP3   OH271787   0.929   1.277  17.130 -0.5373 -0.1862  0.2266
16791TIP3    H171788   1.009   1.309  17.173  0.6265 -0.8012 -1.3671
16791TIP3    H271789   0.859   1.329  17.168  1.1617  4.3471 -2.1111
16792TIP3   OH271790   4.217   2.811  15.466  0.6410  0.2808 -0.4785
16792TIP3    H171791   4.131   2.773  15.448  0.6611  0.4781 -0.9959
16792TIP3    H271792   4.198   2.893  15.513  0.4662  1.1133 -1.9425
16793TIP3   OH271793   2.299   0.425  15.528  0.7642  0.1399 -0.2749
16793TIP3    H171794   2.356   0.485  15.482  1.0652 -1.0765 -1.5523
16793TIP3    H271795   2.231   0.481  15.566  1.6484  1.3840 -0.4602
16794TIP3   OH271796   4.437   5.609   4.768  0.2254 -0.4468 -0.3518
16794TIP3    H171797   4.487   5.655   4.701 -0.5169 -0.4555 -0.9347
16794TIP3    H271798   4.436   5.518   4.738  1.0333 -0.7001  0.3859
16795TIP3   OH271799   1.824   1.854   6.453 -0.2974 -0.1568  0.4104
16795TIP3    H171800   1.842   1.931   6.399 -1.2836  0.3328  0.7531
16795TIP3    H271801   1.899   1.797   6.440 -0.5217 -0.0790 -1.5303
16796TIP3   OH271802   1.647   4.964   3.924  0.5006 -0.3968  0.1415
16796TIP3    H171803   1.736   4.932   3.938  0.9150 -0.3590 -2.0841
16796TIP3    H271804   1.591   4.891   3.951  1.3512 -1.9362 -1.9602
16797TIP3   OH271805   3.246   6.753  13.729 -1.0071  0.1791 -0.0776
16797TIP3    H171806   3.327   6.713  13.759 -1.0746  0.0139 -0.1137
16797TIP3    H271807   3.265   6.780  13.639 -0.8042  0.6786  0.1107
16798TIP3   OH271808   3.553   2.848  15.832  0.1587 -0.3397  0.0417
16798TIP3    H171809   3.515   2.834  15.919  1.0606  0.6004  0.6176
16798TIP3    H271810   3.478   2.858  15.774 -0.4975  1.1313  1.0712
16799TIP3   OH271811   4.911   2.201  12.824 -0.5019 -0.2150 -0.1219
16799TIP3    H171812   4.833   2.252  12.803  0.1752 -0.0651 -2.6001
16799TIP3    H271813   4.953   2.187  12.739  2.1507 -0.3048  1.1208
16800TIP3   OH271814   4.183   5.319   1.663  0.4177  0.3034 -0.1467
16800TIP3    H171815   4.186   5.400   1.713 -2.3775  0.2903  0.2240
16800TIP3    H271816   4.104   5.328   1.609  0.8759 -1.5602 -1.1979
16801TIP3   OH271817   5.243   5.531   1.663 -0.2782  0.4773  0.1846
16801TIP3    H171818   5.310   5.589   1.627 -0.2931 -0.7658 -1.9943
16801TIP3    H271819   5.178   5.522   1.593 -0.6626 -1.5345  0.7306
16802TIP3   OH271820   0.073   5.577  10.725 -0.1150 -0.4759 -0.7563
16802TIP3    H171821   0.024   5.655  10.749 -1.0065 -1.2028 -0.1451
16802TIP3    H271822   0.138   5.608  10.661 -1.0611  0.5843 -1.2358
16803TIP3   OH271823   3.426   3.790  15.204 -0.1693 -0.0650  0.0635
16803TIP3    H171824   3.333   3.766  15.204 -0.5259  1.1197 -2.2727
16803TIP3    H271825   3.463   3.741  15.131  0.8761  0.1840  0.4124
16804TIP3   OH271826   3.191   5.014   2.954 -0.2646  0.3141 -0.0818
16804TIP3    H171827   3.140   4.944   2.915 -2.0297  0.5292  1.6774
16804TIP3    H271828   3.147   5.033   3.037  1.4479  2.0018  0.5293
16805TIP3   OH271829   3.024   0.415  11.574  0.2882 -0.0762 -0.1313
16805TIP3    H171830   2.933   0.397  11.597  0.6278 -1.5886  0.1386
16805TIP3    H271831   3.071   0.411  11.658  0.5038  1.6026 -0.1296
16806TIP3   OH271832   0.989   4.257   5.193 -0.8578  0.3093  0.1346
16806TIP3    H171833   1.083   4.244   5.210 -0.7848  0.3178 -0.2509
16806TIP3    H271834   0.945   4.209   5.263 -0.5635  0.3974  0.3813
16807TIP3   OH271835   0.428   0.669   0.330 -0.1113 -0.4511 -0.1933
16807TIP3    H171836   0.415   0.596   0.389  0.4732  0.0004  0.5074
16807TIP3    H271837   0.445   0.744   0.387  0.2876  0.0288 -0.9244
16808TIP3   OH271838   1.505   6.692   3.332  0.0365 -0.7823 -0.3234
16808TIP3    H171839   1.542   6.776   3.357 -1.0209 -0.1850 -0.7196
16808TIP3    H271840   1.447   6.668   3.404  0.2644 -1.1298 -0.2528
16809TIP3   OH271841   5.107   1.406  14.763 -0.1162 -1.0173  0.2981
16809TIP3    H171842   5.113   1.498  14.735 -0.1157 -1.5285 -1.5404
16809TIP3    H271843   5.046   1.367  14.701  1.4175 -2.6996 -0.2214
16810TIP3   OH271844   3.187   0.945   3.750 -0.4363 -0.4220  0.0951
16810TIP3    H171845   3.154   0.862   3.716 -0.6181  0.2593 -1.4997
16810TIP3    H271846   3.218   0.992   3.672  2.0021 -0.0072  1.2302
16811TIP3   OH271847   3.902   3.134   3.171 -0.3436 -0.0940 -0.4596
16811TIP3    H171848   3.943   3.168   3.251 -0.7159  1.6447 -0.9760
16811TIP3    H271849   3.968   3.077   3.132 -0.1542 -0.9855  1.0662
16812TIP3   OH271850   4.523   5.145   5.043 -0.1703  0.0138  0.1658
16812TIP3    H171851   4.465   5.115   4.973  0.5108  0.9142 -0.8400
16812TIP3    H271852   4.602   5.092   5.032 -1.1362 -1.9667  2.2119
16813TIP3   OH271853   2.729   3.754  11.366 -0.2172 -0.4669  0.0297
16813TIP3    H171854   2.756   3.667  11.336 -0.2031 -0.0714 -1.1206
16813TIP3    H271855   2.788   3.815  11.322 -0.3911  0.1522  0.6347
16814TIP3   OH271856   3.145   1.445  11.689 -0.5270  0.2107  0.7606
16814TIP3    H171857   3.237   1.464  11.671 -0.7663 -1.0023 -2.4375
16814TIP3    H271858   3.143   1.351  11.707 -1.2608 -0.1066 -0.8135
16815TIP3   OH271859   5.933   3.863   2.407 -0.5437 -0.4782 -0.3423
16815TIP3    H171860   5.905   3.918   2.334  0.5221  0.9612  0.2840
16815TIP3    H271861   5.851   3.839   2.451 -1.0577  0.4033 -0.7850
16816TIP3   OH271862   3.102   4.588  11.282  0.3491  0.0321  0.6191
16816TIP3    H171863   3.060   4.612  11.365 -2.9680 -1.3326 -0.4837
16816TIP3    H271864   3.061   4.645  11.217  0.9417 -0.7215 -0.4380
16817TIP3   OH271865   5.992   3.774  12.176  0.6254  0.7097  1.0878
16817TIP3    H171866   5.932   3.764  12.103 -0.0836 -0.6882  1.8218
16817TIP3    H271867   6.079   3.764  12.137  0.2020 -2.3710  0.7050
16818TIP3   OH271868   1.045   1.651  15.047  0.1225 -0.4915  0.3941
16818TIP3    H171869   1.070   1.732  15.091  1.3000 -0.9392  0.5852
16818TIP3    H271870   0.991   1.604  15.110 -0.3710  0.0357  0.3680
16819TIP3   OH271871   2.162   2.873   2.648 -0.0973  0.2544  0.2498
16819TIP3    H171872   2.238   2.902   2.697  0.4884  1.1335 -1.1120
16819TIP3    H271873   2.105   2.950   2.643 -1.3069 -0.5084  1.6209
16820TIP3   OH271874   0.884   3.951  11.689  0.3385  0.1348  0.3665
16820TIP3    H171875   0.919   3.896  11.758  1.1982  0.4246  0.1758
16820TIP3    H271876   0.917   4.039  11.709  0.5546  0.2300 -0.3631
16821TIP3   OH271877   2.431   2.457   5.008 -0.3358 -0.5737 -0.1660
16821TIP3    H171878   2.510   2.422   4.968  0.4618  0.7551  0.1840
16821TIP3    H271879   2.359   2.415   4.961  0.5591 -2.2768 -0.0683
16822TIP3   OH271880   3.504   2.937   2.652 -0.0778 -0.0440 -0.4142
16822TIP3    H171881   3.593   2.974   2.653 -0.3065  0.5332  1.4340
16822TIP3    H271882   3.516   2.843   2.664  0.3064 -0.0972 -1.1261
16823TIP3   OH271883   6.751   2.416  14.692  0.3254 -0.5310 -0.2232
16823TIP3    H171884   6.781   2.435  14.603  1.1095 -0.7893 -0.0216
16823TIP3    H271885   6.779   2.326  14.707  0.9011 -0.2264  0.5703
16824TIP3   OH271886   1.420   5.956   4.275  0.0128 -0.1467 -0.0455
16824TIP3    H171887   1.406   5.870   4.237 -0.1437 -0.7025  1.1939
16824TIP3    H271888   1.333   5.983   4.305  0.2204 -0.0071  0.4492
16825TIP3   OH271889   3.800   5.545   3.670 -0.2260  0.2559  0.1469
16825TIP3    H171890   3.800   5.632   3.708 -1.4871  0.6883 -0.7959
16825TIP3    H271891   3.712   5.511   3.686 -0.1772 -0.2979 -0.6826
16826TIP3   OH271892   3.600   3.114   1.448  0.1788 -0.2473  0.4767
16826TIP3    H171893   3.601   3.045   1.514  2.7273  2.2249  3.3061
16826TIP3    H271894   3.521   3.165   1.469 -0.5677 -1.0478 -0.2940
16827TIP3   OH271895   3.299   5.869  15.551  0.0650  0.1640  0.3062
16827TIP3    H171896   3.302   5.891  15.457  0.3829  0.5035  0.3897
16827TIP3    H271897   3.225   5.809  15.559 -0.0634  0.2531 -0.1392
16828TIP3   OH271898   1.903   5.556  11.193 -0.2009 -0.2970  0.3602
16828TIP3    H171899   1.865   5.601  11.118  0.6185  1.4690  0.9543
16828TIP3    H271900   1.885   5.614  11.268  0.5315 -1.1484  1.2267
16829TIP3   OH271901   0.884   0.710  11.235  0.2171 -0.2253 -0.2173
16829TIP3    H171902   0.943   0.768  11.187  0.5326 -0.8221 -0.5632
16829TIP3    H271903   0.930   0.627  11.238 -0.0619 -0.3563  0.6148
16830TIP3   OH271904   6.494   0.888   0.180 -0.2918  0.8595 -0.0996
16830TIP3    H171905   6.570   0.888   0.121 -1.7144 -0.5663 -2.0750
16830TIP3    H271906   6.488   0.797   0.210 -0.8645  1.0964  0.5140
16831TIP3   OH271907   3.352   2.178  15.901 -0.5934 -0.1126 -0.3577
16831TIP3    H171908   3.423   2.199  15.840  1.0343  1.2082  1.8430
16831TIP3    H271909   3.357   2.083  15.910  2.0039  0.0498  0.8728
16832TIP3   OH271910   3.918   5.930   2.528 -0.3670  0.4799 -0.0687
16832TIP3    H171911   3.886   5.847   2.491 -0.2403  1.6615 -3.1802
16832TIP3    H271912   4.012   5.927   2.512 -0.0544  0.4559  1.6176
16833TIP3   OH271913   5.292   6.431  15.821 -0.0046 -0.2135 -1.1286
16833TIP3    H171914   5.223   6.365  15.824 -0.3734  0.1719 -0.9121
16833TIP3    H271915   5.356   6.403  15.887 -2.1074  1.7153  2.0186
16834TIP3   OH271916   4.293   2.373   3.965  0.1398  0.7231 -0.4371
16834TIP3    H171917   4.341   2.330   3.894  0.4393 -0.1006  0.2423
16834TIP3    H271918   4.319   2.465   3.959  0.5629  0.5694 -1.0717
16835TIP3   OH271919   6.675   0.569  15.990  0.0678  0.5018 -0.1038
16835TIP3    H171920   6.726   0.489  15.977 -0.0602  0.4005  0.0059
16835TIP3    H271921   6.731   0.625  16.043  0.1809  0.5085 -0.2276
16836TIP3   OH271922   3.108   4.769   5.801  0.5176 -0.6905 -0.2943
16836TIP3    H171923   3.031   4.797   5.752 -0.1583 -1.1408  0.4962
16836TIP3    H271924   3.081   4.688   5.844  1.4374 -0.8566 -0.0064
16837TIP3   OH271925   2.699   4.096  16.717 -0.5175 -0.7600 -0.3356
16837TIP3    H171926   2.633   4.154  16.678 -1.0859 -0.2354  1.3188
16837TIP3    H271927   2.771   4.098  16.655 -0.5378  1.7165 -0.4020
16838TIP3   OH271928   6.099   6.462  14.872  1.0051 -0.0456 -0.1339
16838TIP3    H171929   6.014   6.506  14.865  0.8902 -0.4466 -5.4706
16838TIP3    H271930   6.159   6.529  14.904 -0.4738  1.8301 -1.0869
16839TIP3   OH271931   2.561   1.165   2.717  0.3224  0.4534  0.0423
16839TIP3    H171932   2.501   1.230   2.754  0.7255  0.3771  0.8719
16839TIP3    H271933   2.634   1.217   2.683 -0.2938  0.5582 -1.1404
16840TIP3   OH271934   2.744   0.313  14.266 -0.9875 -0.6487  0.3790
16840TIP3    H171935   2.709   0.402  14.260 -1.5685 -0.9425 -0.8665
16840TIP3    H271936   2.684   0.268  14.326 -1.1587 -0.4061  0.3922
16841TIP3   OH271937   3.675   0.209  16.445 -0.1594  0.5446  0.1685
16841TIP3    H171938   3.723   0.243  16.521 -0.7958 -1.2703  1.4598
16841TIP3    H271939   3.743   0.177  16.386  0.3266  1.5242  0.1721
16842TIP3   OH271940   3.081   6.725   4.586 -0.3300  0.4625  0.1948
16842TIP3    H171941   3.166   6.682   4.585  0.5490  2.1674  0.1118
16842TIP3    H271942   3.059   6.736   4.493 -2.0664 -2.5734  0.1029
16843TIP3   OH271943   3.385   1.890  13.027  0.2877 -0.8798  0.5008
16843TIP3    H171944   3.410   1.815  12.973  0.3168  0.6649 -1.7797
16843TIP3    H271945   3.326   1.940  12.971 -0.6768  0.2079  2.4078
16844TIP3   OH271946   5.828   3.995  11.681  0.0467  0.1099 -0.0189
16844TIP3    H171947   5.785   4.047  11.613  0.6782 -0.2940 -0.7465
16844TIP3    H271948   5.759   3.939  11.715 -0.4613  0.8819  0.2442
16845TIP3   OH271949   0.634   5.565   0.108 -0.4664 -0.0061  0.3203
16845TIP3    H171950   0.700   5.570   0.038 -2.0603  1.2122 -1.1992
16845TIP3    H271951   0.683   5.581   0.188  1.3718 -0.9522 -0.5415
16846TIP3   OH271952   2.194   0.705   2.939 -0.0399  0.1730 -0.5800
16846TIP3    H171953   2.256   0.678   3.007 -2.6753  1.4199  2.6230
16846TIP3    H271954   2.153   0.624   2.910 -0.9945 -0.2215  1.6694
16847TIP3   OH271955   5.179   1.176   0.644 -0.3565 -0.0468  0.4279
16847TIP3    H171956   5.120   1.109   0.680 -0.3604  0.7583  1.9999
16847TIP3    H271957   5.122   1.252   0.629 -0.2205 -0.1523 -0.6852
16848TIP3   OH271958   1.319   4.873   1.444 -0.6594  0.7087 -0.3890
16848TIP3    H171959   1.394   4.856   1.501 -0.1542  2.7041 -0.3830
16848TIP3    H271960   1.246   4.889   1.503 -0.6820  0.4981 -0.3590
16849TIP3   OH271961   4.067   1.271  12.942  0.4490  0.3112 -0.1018
16849TIP3    H171962   4.162   1.273  12.956  0.5889 -2.0143 -0.4206
16849TIP3    H271963   4.057   1.295  12.850  0.7470  0.1737 -0.1721
16850TIP3   OH271964   1.695   0.827   1.121  0.7991 -0.5290 -0.1537
16850TIP3    H171965   1.721   0.904   1.172  0.6125 -0.1243 -0.6614
16850TIP3    H271966   1.620   0.792   1.169  0.1315  0.3042 -0.5593
16851TIP3   OH271967   3.059   4.496   5.896 -0.9191  0.3040  0.6446
16851TIP3    H171968   2.981   4.503   5.841  0.1689  1.2990 -0.8750
16851TIP3    H271969   3.026   4.502   5.985 -2.6256  0.1580  0.0618
16852TIP3   OH271970   3.678   1.698   4.770 -0.4854 -0.3693  1.1362
16852TIP3    H171971   3.703   1.784   4.735  1.2202 -1.0199  0.6476
16852TIP3    H271972   3.603   1.671   4.717  0.7178 -0.3907 -0.6406
16853TIP3   OH271973   5.055   2.283  16.204  0.7880 -0.2791  0.5019
16853TIP3    H171974   5.141   2.324  16.200 -0.8791  3.5756 -1.1006
16853TIP3    H271975   5.012   2.325  16.279 -0.0017 -1.4241  0.7111
16854TIP3   OH271976   1.945   1.947   3.472  0.0033 -0.5969  0.1218
16854TIP3    H171977   1.951   2.025   3.417  1.6524 -0.7883  0.0081
16854TIP3    H271978   1.956   1.980   3.561  2.4770 -0.8443 -0.0295
16855TIP3   OH271979   2.410   5.616  12.217 -0.0245  0.2023 -0.3201
16855TIP3    H171980   2.449   5.531  12.199 -1.0634 -0.0637 -1.4190
16855TIP3    H271981   2.324   5.613  12.174 -1.0914  0.9298  1.6200
16856TIP3   OH271982   3.365   3.789   4.383  0.0135 -0.7143 -0.0192
16856TIP3    H171983   3.390   3.823   4.297  1.0156  2.0236  1.2507
16856TIP3    H271984   3.275   3.819   4.396 -0.8046 -2.6920 -0.7997
16857TIP3   OH271985   5.503   3.414   5.987 -0.4759  0.5211  0.3591
16857TIP3    H171986   5.550   3.342   5.945 -1.6839 -0.2341  0.2605
16857TIP3    H271987   5.507   3.486   5.924 -0.3991  0.1120 -0.1060
16858TIP3   OH271988   6.652   1.916   1.708 -0.5026  0.5518  0.0543
16858TIP3    H171989   6.644   1.823   1.728  1.0411  0.0298 -1.5648
16858TIP3    H271990   6.671   1.957   1.792 -2.9822 -0.2785  1.1371
16859TIP3   OH271991   3.646   0.324  13.351  0.2776  0.0283 -0.3139
16859TIP3    H171992   3.575   0.290  13.406  1.8074 -0.1771  1.6392
16859TIP3    H271993   3.613   0.315  13.261 -2.0111 -0.3714  0.5004
16860TIP3   OH271994   1.228   3.036   5.334 -0.0689 -0.6414  0.0030
16860TIP3    H171995   1.231   2.970   5.266  2.3440 -0.9464  0.3072
16860TIP3    H271996   1.309   3.023   5.384  1.0451  3.1018 -0.5240
16861TIP3   OH271997   5.788   0.497   0.867 -0.2928  0.0621 -0.3172
16861TIP3    H171998   5.796   0.554   0.791 -0.9793  1.0906  0.3591
16861TIP3    H271999   5.694   0.489   0.882 -0.1959 -0.8202 -0.0725
16862TIP3   OH272000   4.638   0.726  11.924  0.4146  0.4583 -0.6637
16862TIP3    H172001   4.649   0.762  12.012 -1.7534 -2.2002  0.8533
16862TIP3    H272002   4.712   0.665  11.914  0.2937  0.2721 -0.4144
16863TIP3   OH272003   6.114   5.385  11.941 -0.0441  0.4276 -0.0100
16863TIP3    H172004   6.174   5.419  11.876  0.7328 -0.1461  0.3875
16863TIP3    H272005   6.036   5.360  11.891  0.4686  0.1584 -0.6962
16864TIP3   OH272006   5.812   6.152   0.264 -0.3090  0.1184  0.0804
16864TIP3    H172007   5.816   6.064   0.302 -0.5320  0.7654  1.6946
16864TIP3    H272008   5.861   6.206   0.326 -3.6807  1.8952  1.4822
16865TIP3   OH272009   4.890   1.564  10.534  0.3429 -0.4099  0.2211
16865TIP3    H172010   4.967   1.616  10.558  0.3607  0.1472 -0.9593
16865TIP3    H272011   4.926   1.480  10.507  0.4860 -0.3845  0.3296
16866TIP3   OH272012   3.027   0.618  17.162 -0.1122  0.4935 -0.0612
16866TIP3    H172013   3.078   0.666  17.097  0.3170 -0.0772 -0.1496
16866TIP3    H272014   3.072   0.534  17.172  0.8085  1.1845  2.2084
16867TIP3   OH272015   3.863   2.835   3.437  0.6519  0.0438  0.0090
16867TIP3    H172016   3.950   2.827   3.399  0.8619 -1.5826  0.7617
16867TIP3    H272017   3.808   2.780   3.381  0.3999 -0.0829  0.3790
16868TIP3   OH272018   6.224   4.164   0.154 -0.1861  0.2982  0.2153
16868TIP3    H172019   6.168   4.091   0.126 -0.1053 -0.0848  1.0048
16868TIP3    H272020   6.187   4.190   0.239  0.6073  0.2783  0.5761
16869TIP3   OH272021   0.175   0.811  13.193  0.0176 -0.4218  0.1336
16869TIP3    H172022   0.193   0.717  13.181  0.2499 -0.5359  1.2468
16869TIP3    H272023   0.259   0.849  13.215  0.8086  0.8115 -4.0823
16870TIP3   OH272024   6.376   3.159   5.918  0.1272 -0.4711  0.0962
16870TIP3    H172025   6.374   3.133   5.826  0.5431  1.3408 -0.4592
16870TIP3    H272026   6.394   3.253   5.916  0.2717 -0.4224  2.0385
16871TIP3   OH272027   1.000   1.342  16.362  0.3813 -0.3780  0.0280
16871TIP3    H172028   0.974   1.252  16.342  1.6531 -0.7388 -0.0612
16871TIP3    H272029   0.917   1.389  16.371 -0.3216 -0.9755 -2.4440
16872TIP3   OH272030   6.687   0.936   6.060 -0.1934  0.6602  0.5891
16872TIP3    H172031   6.664   0.966   6.147 -1.5415  1.2434  0.0608
16872TIP3    H272032   6.778   0.907   6.067 -0.5565 -0.1502  2.3862
16873TIP3   OH272033   5.338   5.563  16.548  0.0643 -0.1794 -0.1201
16873TIP3    H172034   5.274   5.574  16.477 -0.6201  0.0607  0.5117
16873TIP3    H272035   5.409   5.622  16.526  0.1441 -0.5615 -0.9200
16874TIP3   OH272036   0.614   2.867   2.549 -0.1983  0.7907 -0.0242
16874TIP3    H172037   0.612   2.772   2.564 -0.7034  0.7915 -0.0379
16874TIP3    H272038   0.701   2.884   2.513 -0.3621  0.2182 -0.7242
16875TIP3   OH272039   4.540   0.174  14.514 -0.0215 -0.1059 -0.4043
16875TIP3    H172040   4.490   0.253  14.495  0.0572 -0.2112 -1.0666
16875TIP3    H272041   4.632   0.201  14.510  0.0011  0.1392  1.0381
16876TIP3   OH272042   2.472   6.706  12.581  0.1156 -0.0976 -0.7743
16876TIP3    H172043   2.523   6.786  12.577 -0.6453  0.3669 -1.5819
16876TIP3    H272044   2.447   6.698  12.673 -0.7134  1.2026 -0.8558
16877TIP3   OH272045   5.204   4.293  13.325  0.4066  0.4911 -0.0270
16877TIP3    H172046   5.170   4.247  13.248 -0.5379  0.6926  0.2479
16877TIP3    H272047   5.189   4.232  13.398 -0.4417  1.0393  0.2707
16878TIP3   OH272048   1.042   5.473   5.387  0.0035  0.1105 -0.1775
16878TIP3    H172049   1.127   5.429   5.392  0.1001  0.1019 -1.6159
16878TIP3    H272050   1.064   5.566   5.380 -0.1080  0.1161 -0.4486
16879TIP3   OH272051   1.601   4.725   2.322  0.3417 -0.1626  0.9105
16879TIP3    H172052   1.688   4.729   2.363  0.0132  0.3617  1.5855
16879TIP3    H272053   1.559   4.807   2.348 -0.3095 -0.3496  0.4738
16880TIP3   OH272054   3.170   2.712   0.426 -0.0278 -0.5273  0.2953
16880TIP3    H172055   3.256   2.749   0.407  0.2242 -1.9351 -1.6162
16880TIP3    H272056   3.180   2.673   0.513  0.8279  0.5203  0.6908
16881TIP3   OH272057   5.292   6.158   6.037 -0.1406 -0.3614 -0.5043
16881TIP3    H172058   5.218   6.197   5.990 -0.8272  0.0921  0.8998
16881TIP3    H272059   5.253   6.086   6.087  1.2171 -3.8781 -3.8818
16882TIP3   OH272060   4.375   4.772  12.594 -0.2876  0.1025 -0.3517
16882TIP3    H172061   4.458   4.742  12.631 -0.8850  0.2982  1.2106
16882TIP3    H272062   4.349   4.846  12.649 -0.2577  1.7226 -2.3866
16883TIP3   OH272063   3.095   1.842   6.113  0.7327 -0.4742  0.0586
16883TIP3    H172064   3.032   1.908   6.140 -0.4140 -1.6354  0.3216
16883TIP3    H272065   3.088   1.840   6.017 -0.1984 -1.0960  0.1201
16884TIP3   OH272066   5.878   4.768   3.449 -0.3791 -0.3391 -0.1198
16884TIP3    H172067   5.883   4.863   3.448 -1.8316 -0.2372  0.6551
16884TIP3    H272068   5.818   4.745   3.378  0.5571 -0.7404 -0.8051
16885TIP3   OH272069   5.953   6.481  13.546 -0.3661 -0.2909  0.1037
16885TIP3    H172070   6.031   6.528  13.576 -0.5892 -0.1876  0.5238
16885TIP3    H272071   5.923   6.433  13.623 -0.3926 -0.7768 -0.2085
16886TIP3   OH272072   4.986   4.570   1.498 -0.0674 -0.2855  0.6973
16886TIP3    H172073   5.049   4.643   1.500 -0.8903  0.4324  0.9342
16886TIP3    H272074   4.924   4.593   1.429 -0.3934 -0.7105  0.8438
16887TIP3   OH272075   2.493   4.811  15.959 -0.2724 -0.2462 -0.3160
16887TIP3    H172076   2.472   4.885  16.017  1.0430  0.0169 -0.1499
16887TIP3    H272077   2.410   4.792  15.915 -0.8359  0.8054  0.2284
16888TIP3   OH272078   4.143   4.973   2.411  0.0226  0.4754 -0.6234
16888TIP3    H172079   4.124   5.035   2.340 -1.2325  0.9063  0.0524
16888TIP3    H272080   4.090   5.005   2.484  1.6074  0.2762  0.6461
16889TIP3   OH272081   2.521   5.317  16.462  0.0318  0.1173  0.3601
16889TIP3    H172082   2.490   5.362  16.383  0.2149 -0.7658 -0.2223
16889TIP3    H272083   2.469   5.237  16.467  0.2620 -0.0024  0.9426
16890TIP3   OH272084   0.437   0.263   6.414 -0.2921 -0.0342 -0.4159
16890TIP3    H172085   0.530   0.285   6.420 -0.4362  0.8697 -1.2151
16890TIP3    H272086   0.392   0.344   6.442 -0.8537 -0.9659  1.5598
16891TIP3   OH272087   5.254   0.210  14.896 -0.1954 -0.0128 -0.5656
16891TIP3    H172088   5.210   0.282  14.941 -0.5804 -0.5426 -0.0769
16891TIP3    H272089   5.299   0.163  14.966 -0.4704 -0.6162 -0.7906
16892TIP3   OH272090   5.938   6.317  15.599 -0.6778  0.5464  0.0603
16892TIP3    H172091   5.881   6.300  15.675 -1.5060  0.7328 -0.5040
16892TIP3    H272092   6.024   6.333  15.637 -0.6042 -1.4657  0.8395
16893TIP3   OH272093   1.697   3.563  16.049 -0.0916 -0.1636 -0.2579
16893TIP3    H172094   1.685   3.469  16.065  0.5612  0.0208  1.5973
16893TIP3    H272095   1.686   3.573  15.955  0.3276 -2.1819 -0.5720
16894TIP3   OH272096   4.533   4.293  15.675 -0.0307  0.2605  0.3867
16894TIP3    H172097   4.518   4.294  15.581  0.8617  0.3479  0.2400
16894TIP3    H272098   4.562   4.382  15.696  2.7511 -0.5112  0.2145
16895TIP3   OH272099   5.309   0.217  11.885  0.0324 -0.2069 -0.0742
16895TIP3    H172100   5.264   0.219  11.970 -1.8060 -0.9416 -0.9885
16895TIP3    H272101   5.264   0.148  11.836 -0.8106  2.0034 -2.6371
16896TIP3   OH272102   2.549   5.847  12.283 -1.0475 -0.1651 -0.2570
16896TIP3    H172103   2.598   5.805  12.354 -1.6849 -0.4764 -0.0012
16896TIP3    H272104   2.498   5.776  12.244 -1.1242  0.1159 -0.6741
16897TIP3   OH272105   6.746   5.065  13.821 -0.0730 -0.5082 -0.2860
16897TIP3    H172106   6.745   5.127  13.893  0.2019 -1.1845  0.3178
16897TIP3    H272107   6.656   5.062  13.789  0.0371  0.6861 -0.7684
16898TIP3   OH272108   0.130   4.658  12.726 -0.7068  0.0496  0.1383
16898TIP3    H172109   0.074   4.722  12.683  0.3591  1.2386  0.4676
16898TIP3    H272110   0.209   4.707  12.750 -0.1124 -1.2435  0.9358
16899TIP3   OH272111   6.006   2.904   2.233  0.3371  0.0959 -0.5801
16899TIP3    H172112   6.022   2.942   2.147 -1.7611 -0.5485 -1.3173
16899TIP3    H272113   6.069   2.948   2.291  2.2242  0.1229 -2.5019
16900TIP3   OH272114   2.390   2.921  14.692 -0.1022  0.1609  0.2014
16900TIP3    H172115   2.461   2.873  14.650  0.4344  0.1021  1.1553
16900TIP3    H272116   2.434   2.977  14.756 -0.6732  2.1968 -1.1065
16901TIP3   OH272117   5.869   2.646   2.811  0.4996 -0.0272  0.7116
16901TIP3    H172118   5.859   2.740   2.797 -1.0454 -0.1076  1.0970
16901TIP3    H272119   5.852   2.633   2.904  1.6543 -0.6004  0.8690
16902TIP3   OH272120   0.620   3.930   5.117  0.3154 -0.2727  0.1132
16902TIP3    H172121   0.569   4.004   5.152 -0.3496  0.1889 -1.6736
16902TIP3    H272122   0.693   3.971   5.071  0.0189 -0.7009 -0.7751
16903TIP3   OH272123   4.878   5.859   0.362  0.2425  0.3326  0.2429
16903TIP3    H172124   4.904   5.767   0.359  1.1958  0.6323 -0.9629
16903TIP3    H272125   4.933   5.897   0.431 -0.6297 -0.1144  1.2257
16904TIP3   OH272126   6.437   2.135   2.871  0.1929  0.0619 -0.1969
16904TIP3    H172127   6.361   2.099   2.917 -0.4812 -0.2253 -1.4643
16904TIP3    H272128   6.463   2.212   2.922  0.8053 -1.3909  1.8195
16905TIP3   OH272129   2.823   0.981   1.118  0.0759  0.2669  0.2111
16905TIP3    H172130   2.843   0.894   1.082  0.3894  0.6079 -0.4513
16905TIP3    H272131   2.905   1.009   1.158 -0.0980  0.1564  0.6573
16906TIP3   OH272132   1.464   4.391   4.799 -0.1119  0.0056  0.1447
16906TIP3    H172133   1.453   4.486   4.802 -0.5399 -0.0631  1.0552
16906TIP3    H272134   1.556   4.376   4.821 -0.3506  0.1557  1.3093
16907TIP3   OH272135   6.431   2.826   2.875 -0.0625 -0.5206 -0.2475
16907TIP3    H172136   6.489   2.788   2.941 -2.4467 -2.4929  0.8825
16907TIP3    H272137   6.393   2.902   2.917  0.7044  0.0180 -0.5127
16908TIP3   OH272138   6.626   6.086   4.570 -0.2235  0.2554  0.4861
16908TIP3    H172139   6.535   6.110   4.587 -0.5602  0.1800 -1.0664
16908TIP3    H272140   6.636   6.096   4.475  1.2154 -0.3224  0.5563
16909TIP3   OH272141   0.156   3.936  16.567 -0.1860  0.2293  0.0665
16909TIP3    H172142   0.190   3.903  16.651  2.1980  0.8468 -0.5795
16909TIP3    H272143   0.182   4.028  16.565 -0.4837  0.3047 -1.2132
16910TIP3   OH272144   4.461   4.863   5.364  0.4796  0.0443  0.4330
16910TIP3    H172145   4.373   4.881   5.398 -0.2893 -2.8242  0.1900
16910TIP3    H272146   4.495   4.795   5.422  1.7524 -0.2788 -0.6621
16911TIP3   OH272147   4.151   0.971  14.709 -0.2627 -0.1677  0.7216
16911TIP3    H172148   4.089   0.916  14.758 -0.3439 -0.2405  0.5391
16911TIP3    H272149   4.193   0.911  14.648 -1.1747  0.1761 -0.2770
16912TIP3   OH272150   0.998   5.928  15.579  0.0868  0.3155 -0.2985
16912TIP3    H172151   0.949   5.883  15.510  0.9181 -1.4826  0.2251
16912TIP3    H272152   1.076   5.962  15.534 -0.0015  0.2639 -0.4947
16913TIP3   OH272153   0.722   1.513   0.010 -0.1016  0.2088  0.2397
16913TIP3    H172154   0.810   1.539  -0.016 -0.1859 -0.3657 -0.6745
16913TIP3    H272155   0.664   1.559  -0.050 -0.1727 -4.2475 -3.6905
16914TIP3   OH272156   3.812   0.399   5.441  0.0259 -0.6240  0.2260
16914TIP3    H172157   3.748   0.448   5.493  1.0318  0.6463  0.3147
16914TIP3    H272158   3.897   0.436   5.466  0.5160  0.5790 -2.7643
16915TIP3   OH272159   3.898   2.025  16.825  0.2888 -0.0877  0.6249
16915TIP3    H172160   3.879   2.093  16.760 -0.1375 -0.5877  0.2226
16915TIP3    H272161   3.852   2.054  16.904 -2.9200 -1.6428 -0.5203
16916TIP3   OH272162   3.134   3.613   2.953  0.3699 -0.2868 -0.5920
16916TIP3    H172163   3.167   3.703   2.962 -1.5075  0.2567  2.7366
16916TIP3    H272164   3.213   3.559   2.950  1.5466  1.3308 -0.3208
16917TIP3   OH272165   4.032   1.106  15.959  0.0404  0.4853 -0.3440
16917TIP3    H172166   4.019   1.196  15.929  0.7739  0.3633 -1.0527
16917TIP3    H272167   4.116   1.108  16.006 -0.4648  0.3947  0.5861
16918TIP3   OH272168   3.512   3.475  17.011 -0.2194  0.3189  0.7877
16918TIP3    H172169   3.586   3.528  17.040  0.6666 -0.2960 -0.2481
16918TIP3    H272170   3.504   3.495  16.918  0.2417 -1.4483  0.3309
16919TIP3   OH272171   5.528   1.120  16.866  0.1945 -0.2940 -0.2054
16919TIP3    H172172   5.512   1.104  16.959  0.6396 -1.2784 -0.2781
16919TIP3    H272173   5.498   1.040  16.823  0.3333  0.0057 -0.8628
16920TIP3   OH272174   0.551   4.407  12.119 -0.0015  0.1552  0.4544
16920TIP3    H172175   0.458   4.406  12.100  0.4304 -0.1532 -2.0238
16920TIP3    H272176   0.565   4.332  12.177 -1.2160 -0.0599  0.4908
16921TIP3   OH272177   4.377   1.410   4.578  0.0273 -0.0399  0.4407
16921TIP3    H172178   4.425   1.405   4.495  0.0863 -0.9998  0.5203
16921TIP3    H272179   4.294   1.453   4.555 -0.2613 -0.9404 -0.2699
16922TIP3   OH272180   0.765   1.388  11.317 -0.0477  0.1281 -0.6388
16922TIP3    H172181   0.814   1.310  11.344  1.6533  0.8681 -1.4162
16922TIP3    H272182   0.777   1.391  11.222  0.6845  1.7909 -0.5283
16923TIP3   OH272183   2.989   0.797   3.360 -0.0254 -0.3230 -0.0816
16923TIP3    H172184   2.972   0.867   3.422 -1.2491 -0.1099 -0.6199
16923TIP3    H272185   3.043   0.838   3.292  1.6754 -0.6640  0.9928
16924TIP3   OH272186   2.519   1.193   6.544 -0.2936  0.0942 -0.7697
16924TIP3    H172187   2.482   1.269   6.501  0.5544  0.7500 -0.3850
16924TIP3    H272188   2.455   1.169   6.611 -0.9123 -0.0047 -1.3934
16925TIP3   OH272189   0.184   6.247   0.219 -0.4481 -0.1176 -0.4901
16925TIP3    H172190   0.143   6.216   0.299  0.5501  0.3010  0.1984
16925TIP3    H272191   0.263   6.194   0.210  0.4487  1.1187 -0.1464
16926TIP3   OH272192   3.670   0.686   0.119  0.5673 -0.4713 -0.0611
16926TIP3    H172193   3.641   0.683   0.028 -2.4557  0.5824  0.7425
16926TIP3    H272194   3.662   0.596   0.150  0.1289 -0.5626 -0.4358
16927TIP3   OH272195   5.660   1.862   5.844 -0.1165 -0.1496 -0.3627
16927TIP3    H172196   5.687   1.953   5.848  2.0722 -0.7651  0.2544
16927TIP3    H272197   5.683   1.834   5.755  0.4757 -0.4514 -0.1170
16928TIP3   OH272198   2.274   5.800   0.746  0.0487 -0.4121  0.2008
16928TIP3    H172199   2.215   5.812   0.672 -0.6178 -0.2044  0.7605
16928TIP3    H272200   2.359   5.782   0.706 -0.1964  0.2042 -0.6159
16929TIP3   OH272201   4.739   6.048   4.420 -0.1475 -0.5444  0.3473
16929TIP3    H172202   4.668   6.096   4.463  1.1047  0.0908  1.8057
16929TIP3    H272203   4.704   6.026   4.333 -1.8648  0.3172  0.7700
16930TIP3   OH272204   5.037   2.457   0.773 -0.2463 -0.0005 -0.3410
16930TIP3    H172205   5.074   2.468   0.686  0.1436  0.8070 -0.0820
16930TIP3    H272206   5.079   2.525   0.826  0.2469 -1.0831  0.7156
16931TIP3   OH272207   5.589   1.434   5.788 -0.1234  0.0283 -0.4732
16931TIP3    H172208   5.589   1.363   5.725 -1.6222  0.1366 -0.6271
16931TIP3    H272209   5.659   1.412   5.850  0.3469 -0.8498 -1.2975
16932TIP3   OH272210   0.491   3.539   5.292  0.4237 -0.6011 -0.0243
16932TIP3    H172211   0.509   3.533   5.386 -0.8558  2.7506  0.6089
16932TIP3    H272212   0.396   3.547   5.287  0.5683  0.8506 -1.3974
16933TIP3   OH272213   5.787   1.400  13.932 -0.3052 -0.4390 -0.3845
16933TIP3    H172214   5.718   1.345  13.969 -0.6462 -1.0197 -1.8464
16933TIP3    H272215   5.845   1.339  13.886  0.9238  0.0986  0.3796
16934TIP3   OH272216   1.836   3.345   4.267 -0.3936 -0.3436 -0.6934
16934TIP3    H172217   1.789   3.391   4.198  0.7731  1.1210 -0.5676
16934TIP3    H272218   1.921   3.324   4.229 -0.2577 -0.8192 -0.1558
16935TIP3   OH272219   4.286   4.574  11.530 -0.3209 -0.7759  0.5004
16935TIP3    H172220   4.265   4.553  11.622 -0.6386 -0.3381  0.5271
16935TIP3    H272221   4.207   4.614  11.496 -0.4761 -1.6445 -0.2005
16936TIP3   OH272222   4.703   5.065   0.678 -0.3118  0.6857 -0.0730
16936TIP3    H172223   4.724   5.082   0.770 -0.7231 -0.5632  0.2808
16936TIP3    H272224   4.779   5.017   0.644 -0.6002  0.2230 -0.0798
16937TIP3   OH272225   4.594   0.810  16.495  0.0153  0.0964 -0.1703
16937TIP3    H172226   4.650   0.873  16.451 -1.0239 -0.2092 -2.0188
16937TIP3    H272227   4.506   0.829  16.462 -0.5077 -1.4600  0.2402
16938TIP3   OH272228   3.275   4.342   4.935 -0.3871  0.1433 -0.4336
16938TIP3    H172229   3.232   4.393   5.003 -0.5132  0.0597 -0.4520
16938TIP3    H272230   3.337   4.286   4.982 -0.8989 -0.3470 -0.3338
16939TIP3   OH272231   3.432   0.930   0.898 -0.1924  0.5318  0.0541
16939TIP3    H172232   3.418   0.849   0.850  0.6533 -0.5079  1.4774
16939TIP3    H272233   3.345   0.968   0.908 -0.4078  0.7720 -2.1819
16940TIP3   OH272234   1.084   3.568  14.544 -0.4974 -0.6026  0.1833
16940TIP3    H172235   1.074   3.473  14.549 -0.4629 -0.6898 -1.0051
16940TIP3    H272236   1.003   3.603  14.582 -2.3072 -1.1985 -2.7572
16941TIP3   OH272237   1.225   4.391   5.732  0.1354 -0.0431 -0.1675
16941TIP3    H172238   1.298   4.448   5.755 -1.0908  1.0852  1.0994
16941TIP3    H272239   1.167   4.446   5.679  0.8489 -1.3642 -2.4986
16942TIP3   OH272240   4.734   4.704   0.439  0.5367 -0.5768  0.0517
16942TIP3    H172241   4.694   4.623   0.469  1.1210 -0.9283 -0.1027
16942TIP3    H272242   4.668   4.746   0.384 -0.0558 -0.5673  0.7571
16943TIP3   OH272243   3.582   6.426   5.276 -0.2624  0.2891 -0.0905
16943TIP3    H172244   3.601   6.490   5.345 -0.7110 -1.0124  1.3200
16943TIP3    H272245   3.489   6.437   5.257 -1.0796 -1.6608  2.1666
16944TIP3   OH272246   4.559   3.643  17.160  0.7458 -0.0327  0.0447
16944TIP3    H172247   4.518   3.618  17.077  1.4454 -0.0097 -0.3149
16944TIP3    H272248   4.577   3.737  17.150 -1.8499  0.7070  1.3808
16945TIP3   OH272249   1.062   6.618  11.140  0.1979  0.3013  0.2960
16945TIP3    H172250   1.007   6.691  11.110  0.5758  0.2227 -0.6030
16945TIP3    H272251   1.000   6.556  11.179 -0.3661  0.1625 -0.8075
16946TIP3   OH272252   1.850   0.411  16.030  0.1450  0.2958  0.1989
16946TIP3    H172253   1.856   0.444  15.940 -0.3756 -3.0386 -1.1998
16946TIP3    H272254   1.936   0.370  16.046  0.3734  1.1965  1.4037
16947TIP3   OH272255   2.230   5.073  16.892 -0.3940  0.5382 -0.4678
16947TIP3    H172256   2.320   5.053  16.864  0.0836  0.2196  1.1997
16947TIP3    H272257   2.228   5.049  16.985 -2.2353  0.4755 -0.4941
16948TIP3   OH272258   4.240   2.210   1.803  0.0631  0.0500  0.1782
16948TIP3    H172259   4.214   2.239   1.715 -0.6245 -0.0336  0.3510
16948TIP3    H272260   4.309   2.272   1.828  0.2588  0.0832 -0.4131
16949TIP3   OH272261   3.625   5.456  16.536 -0.0321 -0.2669 -0.3066
16949TIP3    H172262   3.649   5.367  16.561 -1.7708 -0.6667  0.0661
16949TIP3    H272263   3.639   5.459  16.441  1.3612 -0.4699 -0.1305
16950TIP3   OH272264   2.124   0.852   0.622 -0.4788 -0.8126 -0.1797
16950TIP3    H172265   2.100   0.822   0.710  1.6624  1.5436  1.3288
16950TIP3    H272266   2.071   0.930   0.609 -0.0673 -0.5993 -0.5779
16951TIP3   OH272267   3.433   4.715  16.770  0.1964 -0.2742 -0.5077
16951TIP3    H172268   3.469   4.733  16.857  0.9417 -1.2320 -0.6086
16951TIP3    H272269   3.339   4.701  16.786  0.2554 -0.0465  0.0778
16952TIP3   OH272270   2.972   4.723  11.565 -0.2310 -0.6590  0.3599
16952TIP3    H172271   2.910   4.696  11.498 -0.0236  2.8396 -1.4667
16952TIP3    H272272   2.921   4.780  11.623  0.9203  1.4817 -0.6156
16953TIP3   OH272273   2.203   4.884   4.670 -0.3471  0.5503 -0.2425
16953TIP3    H172274   2.159   4.963   4.703 -1.6545  0.5788 -1.9052
16953TIP3    H272275   2.157   4.864   4.588  0.2542 -1.6858 -0.0897
16954TIP3   OH272276   5.918   1.655  12.066 -0.2973  0.0551 -0.2652
16954TIP3    H172277   6.005   1.695  12.066 -0.3934  0.2932  0.8546
16954TIP3    H272278   5.871   1.700  12.136 -1.0510 -0.6681 -0.2940
16955TIP3   OH272279   4.468   2.516  16.977  0.0389 -0.3771  0.2054
16955TIP3    H172280   4.540   2.453  16.975 -0.5562 -1.0730 -0.7045
16955TIP3    H272281   4.391   2.464  17.002 -0.3317  0.1359  0.1537
16956TIP3   OH272282   5.503   2.690   4.039  0.1092  0.6579  0.1550
16956TIP3    H172283   5.433   2.753   4.058  0.0781  1.0586 -1.1428
16956TIP3    H272284   5.475   2.609   4.081 -1.0732  0.8611 -0.1968
16957TIP3   OH272285   4.856   5.383   1.078  0.0646  0.4527 -0.5796
16957TIP3    H172286   4.906   5.465   1.077  0.7872  0.0193 -0.9137
16957TIP3    H272287   4.808   5.385   1.161  0.8956  0.7355 -0.0886
16958TIP3   OH272288   5.775   5.946  13.795 -0.1587 -0.0276  0.1261
16958TIP3    H172289   5.794   5.865  13.748 -0.8980 -1.4658  2.1702
16958TIP3    H272290   5.682   5.962  13.779 -0.4406 -0.5861  1.1318
16959TIP3   OH272291   1.872   0.470   1.031  0.5684 -0.3154 -0.1942
16959TIP3    H172292   1.928   0.544   1.056 -0.7160  0.5869  0.1401
16959TIP3    H272293   1.786   0.492   1.067 -0.0971 -1.4846 -0.9942
16960TIP3   OH272294   1.514   1.215   2.143  0.3799  0.2794  0.9832
16960TIP3    H172295   1.449   1.260   2.089  0.8932  0.4811  0.5228
16960TIP3    H272296   1.598   1.232   2.099  0.5550 -1.3555  0.6433
16961TIP3   OH272297   3.230   1.087   0.979 -0.1811 -0.2233  0.3830
16961TIP3    H172298   3.143   1.104   0.942  0.9078  2.1754 -1.4011
16961TIP3    H272299   3.239   1.151   1.049  0.4963  0.3131 -0.1697
16962TIP3   OH272300   1.252   6.074  11.827  0.4258  0.0574  0.0115
16962TIP3    H172301   1.204   6.107  11.751 -0.1582 -1.3688 -0.2758
16962TIP3    H272302   1.232   6.136  11.897 -0.0456  0.6923 -0.6729
16963TIP3   OH272303   5.088   3.721  12.577 -0.1690 -0.4075 -0.1858
16963TIP3    H172304   5.159   3.704  12.515 -0.3442 -2.3631  0.0661
16963TIP3    H272305   5.131   3.757  12.654  0.3423 -0.1638 -0.5784
16964TIP3   OH272306   1.976   0.692   2.089  0.0489 -0.3673 -0.3131
16964TIP3    H172307   1.992   0.654   2.176 -0.3229 -0.4511 -0.2791
16964TIP3    H272308   1.988   0.786   2.102  1.0495 -0.4613 -0.4130
16965TIP3   OH272309   6.389   1.465   5.509 -0.2244 -0.2046 -0.5525
16965TIP3    H172310   6.336   1.417   5.445 -1.7848  0.9877 -0.2095
16965TIP3    H272311   6.427   1.397   5.565 -0.5849 -1.1416 -1.4205
16966TIP3   OH272312   5.688   1.595   2.305 -0.0283 -0.2092 -0.1338
16966TIP3    H172313   5.702   1.643   2.387  0.6607 -0.1119 -0.3031
16966TIP3    H272314   5.738   1.645   2.239  0.6742 -1.1278 -0.3237
16967TIP3   OH272315   6.313   4.497  10.545 -0.2325  0.8803  0.1348
16967TIP3    H172316   6.275   4.415  10.513  0.1369  1.5770 -2.3327
16967TIP3    H272317   6.392   4.509  10.492  1.2241  1.5152  2.3256
16968TIP3   OH272318   4.199   2.298  13.228  0.4582  0.5100 -0.3240
16968TIP3    H172319   4.136   2.363  13.258  0.2872  0.5916 -0.8490
16968TIP3    H272320   4.239   2.264  13.309  0.4129  1.1206 -0.0386
16969TIP3   OH272321   5.259   1.647   2.790  0.2746 -0.0084 -0.9298
16969TIP3    H172322   5.268   1.581   2.859  0.7636  0.7356 -0.2662
16969TIP3    H272323   5.168   1.676   2.796  0.5715  0.7635  0.0772
16970TIP3   OH272324   0.080   1.068   1.574 -0.4498 -0.2151 -0.0219
16970TIP3    H172325   0.125   1.000   1.623 -0.2654 -0.4231 -0.4755
16970TIP3    H272326   0.008   1.096   1.631  0.3890  0.2931  0.8198
16971TIP3   OH272327   3.504   0.868   2.447  0.5572 -0.3119  0.2590
16971TIP3    H172328   3.540   0.941   2.397  0.0420  0.1734  0.5973
16971TIP3    H272329   3.547   0.791   2.410  0.7261  0.1120 -0.4369
16972TIP3   OH272330   2.298   0.630  13.117 -0.1715  0.4152 -0.1581
16972TIP3    H172331   2.246   0.568  13.168 -0.3075 -0.5670 -1.4541
16972TIP3    H272332   2.383   0.630  13.161 -0.2596 -0.4655  0.0400
16973TIP3   OH272333   5.262   5.999  13.724  0.1950 -0.2601 -0.0138
16973TIP3    H172334   5.195   5.957  13.779 -0.2716 -1.3240 -1.3450
16973TIP3    H272335   5.216   6.020  13.643  1.9157 -3.1259 -1.9118
16974TIP3   OH272336   2.262   3.427  11.950 -0.1763  0.3304 -0.0012
16974TIP3    H172337   2.345   3.448  11.906 -0.2240 -1.5319 -1.1100
16974TIP3    H272338   2.285   3.357  12.011 -0.8176  0.2303  0.1248
16975TIP3   OH272339   3.872   3.864  15.608  0.2438  0.3704 -0.0056
16975TIP3    H172340   3.920   3.893  15.686 -2.4677  0.0317  1.9308
16975TIP3    H272341   3.871   3.769  15.614  0.2622  0.3283 -0.6223
16976TIP3   OH272342   1.572   2.791  11.179 -0.0521  0.0554 -0.1027
16976TIP3    H172343   1.597   2.790  11.087  0.7279  0.6800  0.0958
16976TIP3    H272344   1.568   2.884  11.202  0.5512 -0.1066  0.7024
16977TIP3   OH272345   4.534   1.879   5.650 -0.0028  0.1793 -0.1364
16977TIP3    H172346   4.474   1.823   5.700  0.4045 -0.7053 -0.6179
16977TIP3    H272347   4.582   1.819   5.594  2.1891  0.6955  1.0495
16978TIP3   OH272348   4.903   2.787  12.108  0.8165  0.4483 -0.2685
16978TIP3    H172349   4.818   2.829  12.099  0.1268 -0.6496  0.8839
16978TIP3    H272350   4.915   2.738  12.027 -0.2116 -0.3599  0.0517
16979TIP3   OH272351   4.740   3.666  12.508  0.0051 -0.3816  0.4195
16979TIP3    H172352   4.645   3.670  12.524 -0.1803 -0.6317 -0.5582
16979TIP3    H272353   4.773   3.751  12.537 -0.9810  0.9147 -2.0151
16980TIP3   OH272354   6.529   5.580  15.598  0.3223 -0.3234  0.0022
16980TIP3    H172355   6.601   5.523  15.570  2.5719  1.2072  2.2465
16980TIP3    H272356   6.546   5.664  15.555 -2.3428 -0.8502 -2.3893
16981TIP3   OH272357   5.602   0.863   3.616 -0.3113  0.4116 -0.4995
16981TIP3    H172358   5.614   0.954   3.586  0.9186  0.7192  0.8075
16981TIP3    H272359   5.690   0.827   3.615 -0.7101 -0.5767 -0.3562
16982TIP3   OH272360   4.025   5.506  14.346 -0.1673 -0.3735  0.7348
16982TIP3    H172361   3.950   5.559  14.370 -0.6161 -1.0217  0.7802
16982TIP3    H272362   3.992   5.446  14.279  0.8357  0.8031 -0.8864
16983TIP3   OH272363   4.254   3.290  14.191  0.0219  0.7526 -0.0898
16983TIP3    H172364   4.323   3.233  14.225  1.3669  1.9755 -0.6335
16983TIP3    H272365   4.260   3.279  14.096 -0.3754  1.0538 -0.1492
16984TIP3   OH272366   2.985   2.065   5.539 -0.0755  0.4275 -0.0469
16984TIP3    H172367   3.035   2.078   5.619 -0.2006 -1.8163  0.4564
16984TIP3    H272368   3.049   2.077   5.469  0.8854 -1.0140  0.5420
16985TIP3   OH272369   6.612   3.061  16.736  0.2830 -0.1052  0.6318
16985TIP3    H172370   6.704   3.042  16.756  1.0429  3.2769  1.0151
16985TIP3    H272371   6.572   3.080  16.821  0.1739  1.7443  0.2182
16986TIP3   OH272372   1.104   6.481   1.770  0.2652  0.1821 -0.1499
16986TIP3    H172373   1.014   6.461   1.744  0.4824 -1.4827  0.2670
16986TIP3    H272374   1.143   6.522   1.693 -0.8964  1.1187 -0.2670
16987TIP3   OH272375   5.408   2.441  14.955 -0.3503 -0.1565  0.8125
16987TIP3    H172376   5.389   2.384  15.030  0.6340 -0.7138  0.6558
16987TIP3    H272377   5.426   2.381  14.883  1.3900  0.3126  0.8179
16988TIP3   OH272378   3.922   5.543   1.403 -0.1555 -0.2962 -0.7700
16988TIP3    H172379   3.979   5.481   1.358 -2.5316 -1.1518 -2.8063
16988TIP3    H272380   3.957   5.629   1.378  1.5979 -0.7307 -0.0197
16989TIP3   OH272381   4.361   0.903  14.314 -0.2634  0.3535  0.1393
16989TIP3    H172382   4.416   0.873  14.242  1.6465  2.4052  0.6449
16989TIP3    H272383   4.421   0.915  14.387 -2.1751 -1.8417  2.2429
16990TIP3   OH272384   5.240   5.416  16.756  0.7046  0.1716  0.4000
16990TIP3    H172385   5.280   5.468  16.687  0.5643  0.5150  0.5774
16990TIP3    H272386   5.171   5.366  16.712  1.7947 -0.9938 -0.0543
16991TIP3   OH272387   6.650   6.139  10.800 -0.9247 -0.2921  0.4654
16991TIP3    H172388   6.589   6.083  10.848  0.5989 -2.6218 -0.1215
16991TIP3    H272389   6.689   6.081  10.734  0.2916  1.6660 -0.6504
16992TIP3   OH272390   3.374   3.251  12.093  0.4462  0.2853 -0.0747
16992TIP3    H172391   3.290   3.276  12.130  0.5065  2.2891 -1.1716
16992TIP3    H272392   3.352   3.189  12.024 -0.0714  0.2881  0.0808
16993TIP3   OH272393   6.680   1.881  15.787  0.2891  0.0163 -0.1301
16993TIP3    H172394   6.758   1.925  15.752 -0.4388  1.7016  0.3055
16993TIP3    H272395   6.698   1.872  15.881  0.0527  0.2058 -0.0662
16994TIP3   OH272396   2.717   1.190   2.380  0.1999 -0.3200  0.2276
16994TIP3    H172397   2.785   1.167   2.317 -0.1761  0.0801 -0.3374
16994TIP3    H272398   2.691   1.279   2.356 -1.6872 -1.0386 -0.6682
16995TIP3   OH272399   5.000   3.375  13.703 -0.3118 -0.1969  0.1462
16995TIP3    H172400   5.061   3.339  13.768  1.5487  1.5772 -0.5136
16995TIP3    H272401   4.996   3.308  13.635 -0.2845 -0.9768  0.8885
16996TIP3   OH272402   5.501   5.439   3.505  0.6449 -0.3604  0.3277
16996TIP3    H172403   5.504   5.534   3.520 -0.5134 -0.2722  0.1052
16996TIP3    H272404   5.499   5.401   3.593  0.9963 -0.1815  0.4170
16997TIP3   OH272405   1.015   0.251   0.463  0.3042  0.3094 -0.3957
16997TIP3    H172406   1.090   0.210   0.507  0.3044 -0.7249 -1.3135
16997TIP3    H272407   1.020   0.343   0.488 -0.5002 -0.4123  2.8740
16998TIP3   OH272408   4.875   2.747  17.189  0.1122 -0.4856 -0.2161
16998TIP3    H172409   4.948   2.796  17.226  0.0530  0.4696 -1.3172
16998TIP3    H272410   4.857   2.678  17.253  1.0472  0.1360  0.7360
16999TIP3   OH272411   0.473   0.560  16.085  0.3812  0.2048 -0.3963
16999TIP3    H172412   0.427   0.535  16.005 -3.4827  2.6668  0.7776
16999TIP3    H272413   0.449   0.492  16.148  1.0943 -0.2254 -0.5765
17000TIP3   OH272414   6.019   5.317  14.079  0.8157  0.7923 -0.6618
17000TIP3    H172415   5.930   5.324  14.114 -0.4050 -1.7539 -2.8638
17000TIP3    H272416   6.073   5.292  14.154 -0.9159 -0.5260  0.2099
17001TIP3   OH272417   4.937   5.673   5.833 -0.8882  0.3011  0.2992
17001TIP3    H172418   4.873   5.655   5.764  0.8364 -1.4191 -0.9787
17001TIP3    H272419   4.972   5.586   5.856  1.7398  1.2341  0.1459
17002TIP3   OH272420   6.234   2.102  14.794 -0.6608 -0.0373 -0.2352
17002TIP3    H172421   6.244   2.041  14.722  1.2516 -0.2463  0.1720
17002TIP3    H272422   6.276   2.182  14.765 -0.2960  0.0333  0.4577
17003TIP3   OH272423   2.322   5.382   2.267  0.9402  0.1407  0.0159
17003TIP3    H172424   2.229   5.374   2.290  1.1981 -2.5957  0.5416
17003TIP3    H272425   2.323   5.373   2.172  0.6373  0.7606 -0.0508
17004TIP3   OH272426   4.463   4.914  15.023  0.2946 -0.3720 -0.3050
17004TIP3    H172427   4.374   4.884  15.007  0.8540 -1.0933 -2.2726
17004TIP3    H272428   4.516   4.835  15.029  1.0245  0.0850 -0.5043
17005TIP3   OH272429   3.604   0.098   1.182  0.1257 -0.2212 -0.5829
17005TIP3    H172430   3.694   0.069   1.195 -0.1435 -0.4758  0.8115
17005TIP3    H272431   3.597   0.109   1.087  1.2898 -1.2883 -0.8321
17006TIP3   OH272432   6.263   2.814   0.721 -0.6145  0.4982 -0.0219
17006TIP3    H172433   6.235   2.854   0.638 -0.0447 -0.7267 -0.8300
17006TIP3    H272434   6.354   2.842   0.732 -0.5903  0.3956  0.0350
17007TIP3   OH272435   5.186   0.038  14.656  0.3461  0.2168 -0.0285
17007TIP3    H172436   5.148  -0.045  14.685 -4.0716  2.6148  2.1561
17007TIP3    H272437   5.201   0.087  14.737 -0.1559  2.6107 -1.2889
17008TIP3   OH272438   6.495   2.122  17.179  0.0299  0.8159  0.7905
17008TIP3    H172439   6.503   2.200  17.124  1.8547  0.1255  0.0216
17008TIP3    H272440   6.560   2.135  17.248  0.2574  0.0429  0.7312
17009TIP3   OH272441   4.179   3.321  11.256  0.2450  0.8729 -0.6493
17009TIP3    H172442   4.200   3.414  11.265  0.9455  0.7039 -0.5424
17009TIP3    H272443   4.243   3.276  11.310 -0.1715  0.3276 -0.5971
17010TIP3   OH272444   1.485   3.210  14.902 -0.2280 -0.3219  0.2027
17010TIP3    H172445   1.408   3.266  14.900 -0.9466 -1.3143 -0.8349
17010TIP3    H272446   1.552   3.263  14.947 -1.4374  0.6150  0.9598
17011TIP3   OH272447   0.738   3.436  14.810  0.3720  0.1528 -0.1532
17011TIP3    H172448   0.703   3.360  14.858 -1.2286  0.5206 -0.6858
17011TIP3    H272449   0.689   3.511  14.845 -2.0779  0.2652 -3.3874
17012TIP3   OH272450   6.529   1.637  14.730  0.3492  0.4958 -0.1228
17012TIP3    H172451   6.562   1.595  14.650  1.7690  0.2363  0.5684
17012TIP3    H272452   6.606   1.677  14.770 -0.4715  1.2538  0.7534
17013TIP3   OH272453   5.587   2.077  11.154 -0.2759  0.6760 -0.0173
17013TIP3    H172454   5.498   2.097  11.185 -0.8175 -0.6438 -0.6662
17013TIP3    H272455   5.586   2.102  11.062 -0.5581 -1.0376 -0.5006
17014TIP3   OH272456   0.850   1.494  12.296 -0.5928 -0.7849  0.4034
17014TIP3    H172457   0.934   1.455  12.321 -0.8109 -0.4226  1.7524
17014TIP3    H272458   0.786   1.451  12.353 -1.4077 -1.3257 -0.8544
17015TIP3   OH272459   4.200   2.552  15.347 -0.0449 -0.0318 -0.0294
17015TIP3    H172460   4.183   2.495  15.422  1.8918 -1.5112 -0.6217
17015TIP3    H272461   4.246   2.627  15.384 -1.2456  0.4319  0.5584
17016TIP3   OH272462   0.669   6.210   3.754 -0.1144 -0.5820  0.4758
17016TIP3    H172463   0.686   6.117   3.740  0.5102 -0.1509 -2.1350
17016TIP3    H272464   0.587   6.227   3.708  0.2178  0.2970  0.1793
17017TIP3   OH272465   2.811   5.202  15.079 -0.3666  0.4963  0.4206
17017TIP3    H172466   2.838   5.284  15.039 -1.6464  0.3445 -0.8463
17017TIP3    H272467   2.717   5.194  15.058 -0.2209 -1.4012  0.2293
17018TIP3   OH272468   2.457   0.706   2.545 -0.6321  0.5711 -0.1273
17018TIP3    H172469   2.506   0.676   2.469 -1.2347  0.3046 -0.4099
17018TIP3    H272470   2.521   0.702   2.617 -0.3129 -0.0474 -0.4335
17019TIP3   OH272471   4.956   4.816   2.252  0.9463 -0.5561 -0.2354
17019TIP3    H172472   4.949   4.858   2.166 -0.4788  2.8041  1.3206
17019TIP3    H272473   5.046   4.831   2.279  0.4040  2.0353  0.3963
17020TIP3   OH272474   4.199   1.412   0.195 -0.1384 -0.0252  0.2212
17020TIP3    H172475   4.285   1.373   0.181  1.0601  1.5660  2.5132
17020TIP3    H272476   4.143   1.372   0.128  2.7138  0.0672 -2.4132
17021TIP3   OH272477   4.861   5.635   2.636 -0.7307 -0.2652 -0.2094
17021TIP3    H172478   4.862   5.715   2.688  0.3035 -2.0540  2.7966
17021TIP3    H272479   4.953   5.606   2.637 -1.2243 -1.9138 -0.4375
17022TIP3   OH272480   1.758   1.471   3.682  0.6529 -0.0382  0.1203
17022TIP3    H172481   1.673   1.456   3.722  0.2121  2.0274  0.0577
17022TIP3    H272482   1.766   1.566   3.676  2.4608 -0.2005 -0.9595
17023TIP3   OH272483   2.817   3.762   5.026  0.2102  0.3321 -0.0608
17023TIP3    H172484   2.737   3.753   5.078  0.8489  2.2966  1.4045
17023TIP3    H272485   2.888   3.753   5.090  1.4195 -3.8035 -1.6337
17024TIP3   OH272486   3.448   5.686  12.128  0.2747 -0.3311 -0.2430
17024TIP3    H172487   3.363   5.730  12.134 -0.3615 -0.9981 -3.0479
17024TIP3    H272488   3.511   5.753  12.155 -0.8308  1.6637 -2.2035
17025TIP3   OH272489   4.861   1.777   0.951 -0.6633 -0.2266 -0.2064
17025TIP3    H172490   4.853   1.683   0.969 -0.6644 -0.2631 -0.3911
17025TIP3    H272491   4.925   1.782   0.879 -2.8337 -0.3271 -2.2829
17026TIP3   OH272492   6.363   2.457  12.535  0.1865  0.8686 -0.3600
17026TIP3    H172493   6.282   2.508  12.539 -1.2829 -1.1839 -1.7965
17026TIP3    H272494   6.396   2.470  12.446 -0.3796 -0.8412 -0.8520
17027TIP3   OH272495   6.477   6.682  14.394 -0.1714 -0.8041 -0.0522
17027TIP3    H172496   6.387   6.674  14.425 -1.0103  0.9252 -1.8422
17027TIP3    H272497   6.482   6.770  14.358  2.3544 -0.7551  0.2933
17028TIP3   OH272498   1.074   4.790  17.041 -0.5193  0.3709  0.0862
17028TIP3    H172499   1.103   4.836  17.120 -0.1101 -0.7073  0.5784
17028TIP3    H272500   0.997   4.840  17.011  1.6511  3.2873 -1.2213
17029TIP3   OH272501   1.784   0.676  13.463  0.2600 -0.7016  0.5158
17029TIP3    H172502   1.730   0.754  13.474  0.5278 -0.7731  2.8322
17029TIP3    H272503   1.722   0.607  13.442 -0.3127 -0.3639  1.0495
17030TIP3   OH272504   4.554   2.744   4.934  0.1408 -0.0727 -0.1677
17030TIP3    H172505   4.505   2.766   4.854  1.4106  0.7303 -0.7513
17030TIP3    H272506   4.557   2.649   4.934 -1.5485 -0.1700 -0.0113
17031TIP3   OH272507   5.173   6.055  12.421  0.4951 -0.4717  0.0690
17031TIP3    H172508   5.079   6.051  12.406 -0.1123  1.6839  2.6208
17031TIP3    H272509   5.201   6.138  12.382  1.1775 -0.6821  0.0895
17032TIP3   OH272510   5.096   0.900  15.267  0.4366  0.2850  0.6321
17032TIP3    H172511   5.086   0.944  15.183 -1.2429 -1.6110 -0.2491
17032TIP3    H272512   5.145   0.820  15.246 -0.2254 -0.3358  1.3877
17033TIP3   OH272513   3.489   6.584   4.966 -1.1251 -0.3790  0.6365
17033TIP3    H172514   3.471   6.538   5.048  0.8087 -1.0536  0.7280
17033TIP3    H272515   3.572   6.628   4.981 -0.7676 -0.4510 -0.9453
17034TIP3   OH272516   4.165   1.566   0.818  0.1228  0.1959 -0.2539
17034TIP3    H172517   4.125   1.608   0.742 -1.5767  0.9238  0.9802
17034TIP3    H272518   4.130   1.477   0.818 -0.8660  0.5655  0.3257
17035TIP3   OH272519   6.492   5.809   1.401  0.0830 -0.5203  0.2663
17035TIP3    H172520   6.513   5.734   1.456  0.9866 -0.7527 -0.3751
17035TIP3    H272521   6.454   5.771   1.322 -0.7916 -0.2150  0.5346
17036TIP3   OH272522   3.005   5.808  14.206 -0.3769 -0.7037 -0.0538
17036TIP3    H172523   3.002   5.901  14.188 -1.1178 -0.1820  2.4177
17036TIP3    H272524   2.913   5.780  14.206 -0.3286 -0.9338  1.3416
17037TIP3   OH272525   6.003   3.033  13.240  1.1834  0.5641 -0.3155
17037TIP3    H172526   6.049   3.114  13.217  2.0699  0.2363  0.2551
17037TIP3    H272527   5.969   3.049  13.328  0.2856  0.7621 -0.6900
17038TIP3   OH272528   4.360   0.635  13.754  0.5358 -0.1575  0.0160
17038TIP3    H172529   4.267   0.628  13.778  0.1195 -1.1262 -1.7108
17038TIP3    H272530   4.399   0.686  13.824 -1.6497  1.8359 -0.1096
17039TIP3   OH272531   2.610   4.243  11.649 -0.0733 -0.7838  0.4087
17039TIP3    H172532   2.629   4.211  11.561 -1.0861 -2.1148  0.6319
17039TIP3    H272533   2.696   4.254  11.690  0.3684 -1.8372 -0.1863
17040TIP3   OH272534   6.367   4.769   5.493 -0.0105 -0.9614 -0.1290
17040TIP3    H172535   6.344   4.685   5.532  1.5213 -1.6111 -0.5596
17040TIP3    H272536   6.462   4.767   5.487 -0.0140  0.4489 -0.9544
17041TIP3   OH272537   4.020   0.962   5.074 -0.0560  0.0306 -0.0378
17041TIP3    H172538   3.943   0.912   5.045  0.4060 -0.3607 -0.6172
17041TIP3    H272539   3.986   1.048   5.096 -1.0244 -0.7602  1.8078
17042TIP3   OH272540   2.469   6.426   0.603 -0.0968 -0.4717 -0.5000
17042TIP3    H172541   2.541   6.367   0.625  1.0132  1.3475  1.0519
17042TIP3    H272542   2.511   6.510   0.584 -1.7194  0.2356 -1.1556
17043TIP3   OH272543   3.641   2.196   5.859 -0.8069  0.1424 -0.4754
17043TIP3    H172544   3.720   2.232   5.898 -0.7401  0.2777 -0.7361
17043TIP3    H272545   3.653   2.207   5.764 -0.3084 -1.5663 -0.6312
17044TIP3   OH272546   0.254   6.336  13.358 -0.1319 -0.6882  0.0494
17044TIP3    H172547   0.330   6.380  13.396 -2.2650  2.3304  1.1332
17044TIP3    H272548   0.285   6.247  13.342  2.6305 -0.6284  3.6411
17045TIP3   OH272549   6.358   4.828  12.674  0.1206  0.5663  0.0969
17045TIP3    H172550   6.398   4.758  12.623 -1.3642 -0.2981  0.0576
17045TIP3    H272551   6.303   4.783  12.739 -2.2237  1.6183 -1.0118
17046TIP3   OH272552   4.745   0.788  14.222  0.0093 -0.1574  0.4558
17046TIP3    H172553   4.796   0.810  14.144 -0.0830 -1.5004 -0.0239
17046TIP3    H272554   4.690   0.864  14.238  1.1801  0.7770  0.1734
17047TIP3   OH272555   5.437   4.397   4.852  0.0418 -0.2114 -0.5180
17047TIP3    H172556   5.393   4.383   4.936  0.5346 -1.4906 -0.4502
17047TIP3    H272557   5.530   4.385   4.872  0.2736  0.6663 -1.0182
17048TIP3   OH272558   2.177   3.600  12.932  0.0446 -0.2238  0.9788
17048TIP3    H172559   2.195   3.693  12.946  0.4510 -0.3679  1.4623
17048TIP3    H272560   2.213   3.557  13.010 -0.3192 -0.7649  0.8530
17049TIP3   OH272561   5.631   0.358  15.563  0.0958 -0.5757 -0.1960
17049TIP3    H172562   5.658   0.358  15.471 -0.5412  1.0301 -0.4098
17049TIP3    H272563   5.547   0.404  15.563 -0.1352 -0.9690  1.1362
17050TIP3   OH272564   0.761   5.826  16.980  0.2521  0.1589 -0.1915
17050TIP3    H172565   0.703   5.838  16.904  0.8140  0.0090 -0.6479
17050TIP3    H272566   0.835   5.883  16.963 -0.2404  1.1570  0.9063
17051TIP3   OH272567   3.944   0.025  14.795 -0.2173 -0.2815  0.4342
17051TIP3    H172568   3.910  -0.025  14.869  0.6359 -3.6316 -1.1969
17051TIP3    H272569   3.866   0.065  14.755 -1.0923 -0.9604  1.4111
17052TIP3   OH272570   3.068   5.239  17.145  0.1098 -1.1281  0.9204
17052TIP3    H172571   3.113   5.266  17.065 -1.2138 -0.1997  0.4622
17052TIP3    H272572   3.132   5.255  17.215 -0.0890  2.0305  0.5281
17053TIP3   OH272573   0.152   1.163  15.321  0.4926 -0.2572 -0.5628
17053TIP3    H172574   0.083   1.153  15.387 -0.2603 -0.7738 -1.3865
17053TIP3    H272575   0.150   1.255  15.297 -0.1386 -0.3227 -0.7925
17054TIP3   OH272576   4.482   5.465  14.353  0.6909 -0.1871  0.2156
17054TIP3    H172577   4.528   5.410  14.290 -0.0437 -1.7481  0.9782
17054TIP3    H272578   4.404   5.495  14.305  1.0241  0.0953 -0.1610
17055TIP3   OH272579   0.212   3.800   4.518  0.5296 -0.2011  0.2166
17055TIP3    H172580   0.206   3.887   4.557 -0.2218 -0.1848  0.0842
17055TIP3    H272581   0.305   3.777   4.525  0.9895  1.1376 -0.8965
17056TIP3   OH272582   0.004   3.257   6.416  0.1101 -0.5391  0.6392
17056TIP3    H172583  -0.069   3.242   6.477 -0.2285 -0.1714  0.3308
17056TIP3    H272584   0.075   3.288   6.472  0.2334 -1.4812  1.0278
17057TIP3   OH272585   6.567   5.673   0.293  0.1326  0.4226 -0.0917
17057TIP3    H172586   6.593   5.638   0.208 -1.6056 -0.2729 -0.3793
17057TIP3    H272587   6.612   5.757   0.300  2.2318 -0.6096 -0.6028
17058TIP3   OH272588   1.565   6.616   3.081  0.3354  0.3993 -0.1901
17058TIP3    H172589   1.643   6.582   3.126  0.8551  2.5196  0.6307
17058TIP3    H272590   1.504   6.638   3.152 -0.2666  0.4863 -0.7268
17059TIP3   OH272591   0.861   3.023   2.649  0.0873  0.0556  0.4541
17059TIP3    H172592   0.788   3.077   2.621 -0.3444 -0.2889  0.8926
17059TIP3    H272593   0.886   2.973   2.572  0.7194  1.1236 -0.0540
17060TIP3   OH272594   5.283   3.290   2.546 -0.5224  0.1976  0.4556
17060TIP3    H172595   5.283   3.361   2.611  0.5251 -0.7239  1.5097
17060TIP3    H272596   5.191   3.264   2.540 -0.6594  0.3553  1.5417
17061TIP3   OH272597   2.965   5.415   3.430  0.9200 -0.1205  0.7785
17061TIP3    H172598   3.057   5.439   3.423  0.6978  0.7194  0.5737
17061TIP3    H272599   2.964   5.335   3.483  1.6959  0.3948  1.5972
17062TIP3   OH272600   2.855   3.955   4.237  0.5060  0.3899 -0.1252
17062TIP3    H172601   2.921   3.893   4.208  0.7377  0.4459  0.2896
17062TIP3    H272602   2.819   3.918   4.318 -3.1996 -2.0243 -2.5282
17063TIP3   OH272603   1.646   2.923  14.155 -0.1754 -0.5120  0.0698
17063TIP3    H172604   1.643   2.960  14.243  0.5660 -0.0077 -0.1151
17063TIP3    H272605   1.737   2.899  14.142 -0.0493  0.4505 -0.9800
17064TIP3   OH272606   5.382   5.684  14.007  0.2421  0.2055  0.0797
17064TIP3    H172607   5.301   5.704  14.054  1.6726 -0.3484  2.9650
17064TIP3    H272608   5.406   5.766  13.964 -0.5617  1.0969  1.2698
17065TIP3   OH272609   3.190   5.507   1.857 -0.4374  0.3664 -0.2712
17065TIP3    H172610   3.246   5.460   1.918 -0.5558  0.1524 -0.3271
17065TIP3    H272611   3.193   5.455   1.776 -0.3383  0.6096 -0.4252
17066TIP3   OH272612   1.872   4.184   0.300 -0.0860 -0.1001  0.0481
17066TIP3    H172613   1.911   4.144   0.222 -0.3348  0.4931 -0.3868
17066TIP3    H272614   1.784   4.147   0.306 -0.8452  1.3864 -1.1661
17067TIP3   OH272615   4.825   1.122   5.522  0.6662 -0.1152  0.1911
17067TIP3    H172616   4.818   1.099   5.615  2.3951  0.5120  0.5233
17067TIP3    H272617   4.746   1.086   5.482  0.1253 -0.8336  1.8181
17068TIP3   OH272618   5.437   6.479   1.268 -0.3207 -0.2175  0.3308
17068TIP3    H172619   5.504   6.502   1.204 -2.7943  0.7994 -2.1404
17068TIP3    H272620   5.434   6.553   1.328  1.2642 -0.6512  0.9713
17069TIP3   OH272621   1.076   5.546  16.096 -0.4270 -0.0890  0.6532
17069TIP3    H172622   1.092   5.452  16.103  0.3605 -0.0836 -0.7597
17069TIP3    H272623   0.986   5.553  16.063 -0.3358 -0.3555  0.3489
17070TIP3   OH272624   2.311   6.722   5.603 -0.1950 -0.1801 -0.3149
17070TIP3    H172625   2.389   6.779   5.604 -0.0873 -0.3270  0.5656
17070TIP3    H272626   2.299   6.698   5.695  0.2010 -2.1778 -0.7462
17071TIP3   OH272627   3.907   5.136  13.741 -0.0448 -0.1448 -0.3135
17071TIP3    H172628   3.861   5.212  13.706 -1.2405 -1.0776 -0.8472
17071TIP3    H272629   3.981   5.172  13.790 -0.5785  1.3400 -0.5730
17072TIP3   OH272630   4.781   0.443  16.056 -0.0397 -0.1415  0.2392
17072TIP3    H172631   4.853   0.398  16.099 -0.4613 -1.0758 -0.0209
17072TIP3    H272632   4.734   0.375  16.008 -0.8240  0.5306  0.0213
17073TIP3   OH272633   0.027   3.123  13.588 -0.0068  0.3114  0.2967
17073TIP3    H172634  -0.066   3.115  13.606 -0.1340  0.7164 -0.1636
17073TIP3    H272635   0.070   3.094  13.668 -0.5085 -0.8211  0.1791
17074TIP3   OH272636   1.265   6.316   0.744  0.3976  0.2835 -0.0700
17074TIP3    H172637   1.253   6.290   0.835  2.3287 -2.7501 -0.5174
17074TIP3    H272638   1.355   6.290   0.723 -1.1690 -3.2664 -3.8727
17075TIP3   OH272639   4.058   3.330  16.768 -0.3327 -0.5620 -0.2059
17075TIP3    H172640   4.036   3.386  16.694 -0.7754  0.2007  0.4738
17075TIP3    H272641   3.977   3.282  16.787  0.0696 -1.5019 -0.8348
17076TIP3   OH272642   4.892   3.213  15.310  0.2574 -0.4608  0.1113
17076TIP3    H172643   4.871   3.129  15.272 -1.6370 -0.0392  0.1261
17076TIP3    H272644   4.808   3.247  15.341  1.0434  1.2202  0.5244
17077TIP3   OH272645   4.055   3.253  14.354  0.2859 -0.0256  0.7639
17077TIP3    H172646   4.111   3.269  14.278 -0.2640  0.4767  0.4578
17077TIP3    H272647   3.967   3.240  14.317 -0.4471  2.4959  1.4293
17078TIP3   OH272648   3.742   5.447   4.648  0.2458 -0.2095  0.1793
17078TIP3    H172649   3.821   5.415   4.693 -0.8643 -0.5601  1.9742
17078TIP3    H272650   3.739   5.541   4.668  0.6311 -0.0140 -0.6101
17079TIP3   OH272651   5.740   2.636   3.915 -0.1542  0.3253  0.2112
17079TIP3    H172652   5.755   2.551   3.956  1.3536 -0.0175 -0.9627
17079TIP3    H272653   5.662   2.670   3.959  1.2634 -0.0498  3.2621
17080TIP3   OH272654   1.047   3.748  12.595 -0.5066 -0.2815  0.6282
17080TIP3    H172655   1.008   3.809  12.657 -0.9781  2.6684 -2.3069
17080TIP3    H272656   0.995   3.668  12.602 -1.6529  0.5951  2.6850
17081TIP3   OH272657   4.992   4.173   0.907  0.4507  0.4280  0.7620
17081TIP3    H172658   4.996   4.230   0.830 -0.0629 -0.5754 -0.0265
17081TIP3    H272659   4.941   4.097   0.878  1.3858 -0.5827  1.6861
17082TIP3   OH272660   0.157   1.931  14.157  0.3212 -0.4632 -0.0207
17082TIP3    H172661   0.242   1.968  14.133  0.9047 -1.8505 -0.2335
17082TIP3    H272662   0.103   1.942  14.079  0.7509 -0.7724 -0.3707
17083TIP3   OH272663   2.644   2.635   4.883  0.2072  0.2563  0.3826
17083TIP3    H172664   2.664   2.700   4.816  0.9524  0.5398  0.8703
17083TIP3    H272665   2.722   2.631   4.938  0.2893 -1.2851  0.1911
17084TIP3   OH272666   4.914   4.868  11.161 -0.2288 -0.2894  0.0312
17084TIP3    H172667   4.983   4.919  11.119  0.9549 -0.5686  1.5338
17084TIP3    H272668   4.854   4.933  11.198  0.0091 -0.0158 -0.0655
17085TIP3   OH272669   2.785   6.081   0.227  0.5281  0.3852  0.1071
17085TIP3    H172670   2.794   6.173   0.248 -0.2413  0.4491  0.2002
17085TIP3    H272671   2.826   6.072   0.141  0.7107  0.7859  0.1504
17086TIP3   OH272672   6.343   3.978   2.003  0.1635 -0.3499 -0.0634
17086TIP3    H172673   6.281   3.920   1.960 -0.5666  0.6817 -0.4587
17086TIP3    H272674   6.393   4.017   1.931 -1.4473  1.8182 -0.1099
17087TIP3   OH272675   3.176   5.786  15.314 -0.2626  0.4642 -0.0823
17087TIP3    H172676   3.110   5.786  15.244 -0.7299  0.3112  0.3527
17087TIP3    H272677   3.144   5.721  15.377  3.0414 -3.8763 -2.3958
17088TIP3   OH272678   0.474   5.657   1.062 -0.2834  0.0060  0.0925
17088TIP3    H172679   0.385   5.684   1.086 -0.0313  0.0025  1.0671
17088TIP3    H272680   0.528   5.687   1.135  0.4269 -0.5605 -0.1964
17089TIP3   OH272681   5.039   0.748   2.080 -0.3435 -0.5723  0.0505
17089TIP3    H172682   5.096   0.705   2.143 -0.8365 -0.1808  0.7773
17089TIP3    H272683   5.072   0.720   1.994  2.1469  1.1077  0.3563
17090TIP3   OH272684   0.119   3.720  15.011 -0.2251 -0.5851 -0.6766
17090TIP3    H172685   0.099   3.743  14.921  0.7458  0.0148 -0.7518
17090TIP3    H272686   0.093   3.797  15.062  2.5090  0.5707 -0.8668
17091TIP3   OH272687   3.745   5.468   0.929  0.2534 -0.2078  0.0104
17091TIP3    H172688   3.708   5.403   0.869 -0.4575  0.3821 -0.2014
17091TIP3    H272689   3.820   5.503   0.882 -0.7073  0.7487 -0.8526
17092TIP3   OH272690   0.712   0.155   3.149  0.2027  0.8473  0.0532
17092TIP3    H172691   0.617   0.153   3.138  0.2449 -0.7828 -0.1807
17092TIP3    H272692   0.724   0.175   3.242 -0.3997  0.0116  0.3253
17093TIP3   OH272693   3.096   6.733  13.013  1.0369 -0.3140  0.1677
17093TIP3    H172694   3.036   6.664  12.983 -2.0414  2.9694 -2.0723
17093TIP3    H272695   3.063   6.758  13.099  1.6464 -1.0127  0.6189
17094TIP3   OH272696   3.949   0.549   6.165  0.3851 -0.0403  0.5912
17094TIP3    H172697   3.870   0.579   6.120 -0.3346 -0.0827  1.7674
17094TIP3    H272698   4.020   0.601   6.128 -0.3030  0.4807 -0.0076
17095TIP3   OH272699   1.459   4.981   0.207  0.0035  0.3964  0.4193
17095TIP3    H172700   1.463   5.057   0.265 -2.0458  1.0898 -0.2862
17095TIP3    H272701   1.408   4.916   0.256  0.1438  0.1721  0.2693
17096TIP3   OH272702   0.009   2.596  11.245  0.0945 -0.1809 -0.3491
17096TIP3    H172703  -0.061   2.533  11.231  0.6270 -0.6846 -0.7771
17096TIP3    H272704  -0.003   2.626  11.335 -0.8527 -0.0285 -0.5102
17097TIP3   OH272705   2.745   0.701   3.102  0.3040 -0.0849  0.1702
17097TIP3    H172706   2.733   0.616   3.144  0.5481 -1.2565 -1.9763
17097TIP3    H272707   2.665   0.750   3.123 -0.6285 -1.5002  0.0144
17098TIP3   OH272708   6.214   6.056   4.361  0.1590 -0.0724  0.3567
17098TIP3    H172709   6.177   6.006   4.289 -0.6654 -0.5176  1.0627
17098TIP3    H272710   6.237   5.989   4.426 -0.8066  0.4211  1.2443
17099TIP3   OH272711   2.744   4.242  12.031  0.2607  0.0363  0.8218
17099TIP3    H172712   2.769   4.177  12.097  0.6551  0.3578  0.9864
17099TIP3    H272713   2.824   4.291  12.012  0.0424  0.2625  0.4524
17100TIP3   OH272714   6.299   5.695   4.102  0.5246  0.3896  0.5312
17100TIP3    H172715   6.296   5.665   4.011 -0.2934 -1.4373  1.1120
17100TIP3    H272716   6.237   5.638   4.148  0.9682  1.2331  2.2481
17101TIP3   OH272717   3.554   4.671   5.783  0.5059 -0.5680 -0.6154
17101TIP3    H172718   3.554   4.723   5.863  1.0613  0.3582 -1.1999
17101TIP3    H272719   3.492   4.599   5.801  0.3147 -0.1492  0.4802
17102TIP3   OH272720   1.179   2.819   5.196 -0.7359  0.1770  0.1461
17102TIP3    H172721   1.190   2.780   5.109  1.0160  2.2544 -0.6480
17102TIP3    H272722   1.152   2.746   5.252  1.5522 -2.0027 -1.4161
17103TIP3   OH272723   5.646   0.287  16.192  0.3433 -0.7500  0.0355
17103TIP3    H172724   5.637   0.226  16.118 -0.2542 -0.3120 -0.2592
17103TIP3    H272725   5.587   0.253  16.258  0.3029 -0.7119  0.0185
17104TIP3   OH272726   3.641   1.822   0.982 -0.3519 -0.4749  0.3552
17104TIP3    H172727   3.721   1.803   1.031  0.5787 -0.3261 -1.0418
17104TIP3    H272728   3.672   1.847   0.894 -1.8704  0.7001  0.1031
17105TIP3   OH272729   3.079   1.401  14.891  0.4386 -0.3180  0.4840
17105TIP3    H172730   3.149   1.465  14.897 -0.3297  0.5422  0.5679
17105TIP3    H272731   3.118   1.319  14.923  1.0888  0.3908  1.5671
17106TIP3   OH272732   1.705   0.531   5.801 -0.1825  0.1651  0.6909
17106TIP3    H172733   1.684   0.439   5.783 -0.4739  0.1935  0.8860
17106TIP3    H272734   1.799   0.530   5.822 -0.6596 -0.4378  3.0623
17107TIP3   OH272735   0.775   0.987   4.082  0.3733  0.3307  0.6843
17107TIP3    H172736   0.850   1.042   4.058 -1.1529  1.4345 -2.0134
17107TIP3    H272737   0.798   0.900   4.049  1.0381  0.3316  1.1288
17108TIP3   OH272738   4.917   6.195   4.161 -0.0973  0.3343  0.1291
17108TIP3    H172739   4.856   6.192   4.087 -0.0673  0.9712  0.0726
17108TIP3    H272740   4.932   6.104   4.183 -1.9767  0.1801  0.9038
17109TIP3   OH272741   0.541   5.945  11.439 -0.0914 -0.2974  0.1768
17109TIP3    H172742   0.533   5.933  11.345  1.2387 -0.9644  0.1383
17109TIP3    H272743   0.535   5.856  11.475  3.5678 -0.5936  0.3611
17110TIP3   OH272744   5.214   3.222  12.220 -0.0689 -0.1417 -0.3111
17110TIP3    H172745   5.170   3.139  12.200  0.2630 -0.1998 -0.8043
17110TIP3    H272746   5.266   3.241  12.142  0.2747  0.2578  0.0153
17111TIP3   OH272747   1.286   4.961  16.535  0.5583 -0.3161  0.0108
17111TIP3    H172748   1.335   4.941  16.615  0.4434  0.6979  0.3551
17111TIP3    H272749   1.313   5.051  16.513 -0.5311 -0.0422 -0.2431
17112TIP3   OH272750   2.134   2.761  15.391 -0.2113  0.1161 -0.2163
17112TIP3    H172751   2.086   2.800  15.318 -1.0850 -1.9244 -0.8005
17112TIP3    H272752   2.131   2.667  15.374  0.0573 -0.3772  2.1650
17113TIP3   OH272753   6.246   2.843   1.754 -0.2456  0.3000  0.2710
17113TIP3    H172754   6.172   2.812   1.806 -1.2468  1.1243 -0.6120
17113TIP3    H272755   6.226   2.815   1.665  0.1512  1.1583 -0.1005
17114TIP3   OH272756   1.032   6.114   0.715  0.0032 -0.0806  0.6567
17114TIP3    H172757   1.097   6.158   0.769 -0.2323  0.6497  0.3522
17114TIP3    H272758   0.950   6.119   0.765  0.0600 -0.5393  0.8040
17115TIP3   OH272759   6.382   4.407  13.627 -0.0109  0.7412 -0.1061
17115TIP3    H172760   6.375   4.384  13.534  0.2397 -1.3576  0.3474
17115TIP3    H272761   6.293   4.429  13.653 -0.6358 -1.4435 -0.2164
17116TIP3   OH272762   4.781   1.967  13.933  0.1980  0.4004 -0.4663
17116TIP3    H172763   4.741   2.054  13.945 -0.5412  0.2861 -1.9124
17116TIP3    H272764   4.710   1.913  13.897  0.7512 -0.7195  0.0850
17117TIP3   OH272765   5.290   5.409   0.039 -0.4780 -0.0366  0.2449
17117TIP3    H172766   5.276   5.502   0.019  0.4023 -0.1749 -1.1641
17117TIP3    H272767   5.272   5.364  -0.043  0.3071 -0.9844  0.5806
17118TIP3   OH272768   5.277   3.202   4.727  0.2446 -0.0284 -0.1454
17118TIP3    H172769   5.211   3.272   4.731  0.0792 -0.2052  0.2223
17118TIP3    H272770   5.246   3.136   4.789  0.3746 -0.4522 -0.5193
17119TIP3   OH272771   3.986   6.749  14.378 -0.3891  0.3749 -0.0587
17119TIP3    H172772   3.966   6.665  14.338  1.3529 -0.1705  0.1469
17119TIP3    H272773   4.027   6.800  14.307 -1.0941  0.9234 -0.0811
17120TIP3   OH272774   4.251   3.580   1.795 -0.0790  0.5305 -1.0852
17120TIP3    H172775   4.338   3.616   1.778 -0.4260  2.7159  1.1674
17120TIP3    H272776   4.191   3.647   1.762 -0.9832 -0.9536 -2.6218
17121TIP3   OH272777   1.420   1.253   2.697  0.2225  0.0599  0.1123
17121TIP3    H172778   1.503   1.240   2.742  1.4518 -1.5416 -2.3772
17121TIP3    H272779   1.444   1.291   2.613 -1.3583 -1.7453 -1.2335
17122TIP3   OH272780   5.314   2.943  11.390  0.6564  0.0608 -0.0120
17122TIP3    H172781   5.241   2.998  11.418  2.1273  1.7552  0.7112
17122TIP3    H272782   5.379   2.952  11.460  0.7284 -3.1880  0.4701
17123TIP3   OH272783   4.215   0.028   4.108  0.1004  0.0318  0.0074
17123TIP3    H172784   4.188   0.005   4.019 -0.0869 -1.9447  0.5265
17123TIP3    H272785   4.307   0.003   4.112  0.1562  0.2889  0.3165
17124TIP3   OH272786   4.437   3.190  11.365 -0.1794  0.1257  0.6676
17124TIP3    H172787   4.513   3.133  11.375  0.7299  1.3384  0.8061
17124TIP3    H272788   4.463   3.253  11.297 -1.3417  0.1101  0.1804
17125TIP3   OH272789   3.991   3.790  14.201  0.2499  0.1638  0.4590
17125TIP3    H172790   4.024   3.718  14.148  0.7379 -0.7531  1.9705
17125TIP3    H272791   3.997   3.759  14.291  0.3249  2.0306  1.1407
17126TIP3   OH272792   6.089   4.048  11.667  0.1796 -0.1210  0.2226
17126TIP3    H172793   5.994   4.036  11.669  0.0032  1.1882  1.0752
17126TIP3    H272794   6.123   3.962  11.641 -1.2012 -0.7922  0.4927
17127TIP3   OH272795   0.018   1.796  11.643  0.5865 -0.0783 -0.5573
17127TIP3    H172796  -0.032   1.790  11.724  0.0344  0.6623 -0.8288
17127TIP3    H272797   0.055   1.709  11.630 -1.0328 -0.7786 -0.6167
17128TIP3   OH272798   3.840   5.472   2.304 -0.3429  0.2031 -0.0387
17128TIP3    H172799   3.824   5.491   2.212 -1.6263  0.5173  0.2280
17128TIP3    H272800   3.799   5.545   2.351  0.3014  0.0494  0.7878
17129TIP3   OH272801   0.852   4.074   5.032  0.0916 -0.3347 -0.1634
17129TIP3    H172802   0.908   4.121   5.094 -1.8108 -0.2167  1.5513
17129TIP3    H272803   0.835   4.138   4.963 -1.5465  1.2250  1.5715
17130TIP3   OH272804   1.787   0.336  14.334  0.0872 -0.1026  0.0004
17130TIP3    H172805   1.725   0.355  14.263  2.4287  0.5616 -1.9904
17130TIP3    H272806   1.871   0.322  14.290  1.9729  1.7099  2.6961
17131TIP3   OH272807   1.802   6.109  11.178 -0.0859  0.3898 -0.2317
17131TIP3    H172808   1.828   6.193  11.139 -0.5880  0.8672  0.4512
17131TIP3    H272809   1.766   6.132  11.263  1.4260 -0.6656  0.7562
17132TIP3   OH272810   5.389   2.818  16.997 -0.4594  0.4105 -0.1917
17132TIP3    H172811   5.319   2.754  17.001 -0.7703  0.8014  0.9025
17132TIP3    H272812   5.355   2.894  17.043  0.3674  0.9197 -0.3933
17133TIP3   OH272813   5.161   4.531   0.451  0.2578  0.3514 -0.6611
17133TIP3    H172814   5.170   4.555   0.544  0.1672 -2.2448  0.0880
17133TIP3    H272815   5.158   4.615   0.405 -0.8555  1.7445  1.7729
17134TIP3   OH272816   2.142   4.860  11.296  0.1194 -0.1582  0.3157
17134TIP3    H172817   2.135   4.840  11.203  0.6234  0.7720  0.0651
17134TIP3    H272818   2.056   4.895  11.321 -0.9473 -2.9075  0.8731
17135TIP3   OH272819   4.509   1.811  14.768 -0.1948 -0.2789  0.1053
17135TIP3    H172820   4.516   1.788  14.861  1.3062  2.2768  0.7344
17135TIP3    H272821   4.555   1.895  14.761 -0.7570 -0.1170 -2.8666
17136TIP3   OH272822   0.534   6.182   4.841 -0.1336  0.1192 -0.3210
17136TIP3    H172823   0.571   6.250   4.898 -0.2155  0.1410 -0.2950
17136TIP3    H272824   0.470   6.136   4.896 -0.5741  0.4616 -0.5481
17137TIP3   OH272825   4.923   3.794  14.514 -0.2540  0.1204 -0.4774
17137TIP3    H172826   4.834   3.806  14.548 -0.4670 -1.5938 -0.3457
17137TIP3    H272827   4.940   3.700  14.524  1.3645  0.3231 -1.0306
17138TIP3   OH272828   3.105   2.197  11.666  0.0821  0.6110 -0.2550
17138TIP3    H172829   3.088   2.107  11.639  0.3697  0.3499  0.4197
17138TIP3    H272830   3.020   2.241  11.657  0.2177  0.5966 -1.7828
17139TIP3   OH272831   6.622   4.882   2.670 -0.1745 -0.2285  0.4996
17139TIP3    H172832   6.696   4.905   2.614 -0.8086  2.1857  0.5298
17139TIP3    H272833   6.617   4.787   2.665  2.4050 -0.4057 -0.1229
17140TIP3   OH272834   0.919   3.643   2.381  0.1256 -0.0632  0.2908
17140TIP3    H172835   1.006   3.659   2.345  1.1644 -1.0221  2.2028
17140TIP3    H272836   0.895   3.557   2.346  0.2669 -0.1140  0.3150
17141TIP3   OH272837   0.707   3.162  11.143 -0.3566 -0.0716 -0.9335
17141TIP3    H172838   0.627   3.164  11.196  0.9715  0.5314  1.1736
17141TIP3    H272839   0.742   3.251  11.150  1.7211 -0.9149  0.2507
17142TIP3   OH272840   5.708   2.665  16.562  0.3730  0.2761 -0.0667
17142TIP3    H172841   5.671   2.702  16.482  0.2193 -1.7956 -1.0184
17142TIP3    H272842   5.632   2.650  16.619 -0.0011 -1.5947 -1.0033
17143TIP3   OH272843   6.193   2.878   1.453 -0.0995 -0.0923 -0.3860
17143TIP3    H172844   6.263   2.865   1.389  1.0490 -0.8986  0.9656
17143TIP3    H272845   6.143   2.952   1.420  2.4840  1.7203 -0.5277
17144TIP3   OH272846   1.085   4.227   2.778  0.1290  0.1843  0.5658
17144TIP3    H172847   1.166   4.176   2.769 -0.1321  0.0754 -1.5251
17144TIP3    H272848   1.089   4.292   2.708 -2.1829 -0.6761 -0.4841
17145TIP3   OH272849   0.885   3.856  10.799  0.0007  0.3136 -0.8564
17145TIP3    H172850   0.953   3.866  10.733  0.9952  0.4602  0.1519
17145TIP3    H272851   0.884   3.940  10.846 -0.0153 -0.1050 -0.0855
17146TIP3   OH272852   5.744   3.652  17.219  0.2130  0.0544  0.9522
17146TIP3    H172853   5.724   3.746  17.214  3.3268  0.8433  1.0118
17146TIP3    H272854   5.787   3.641  17.303  2.1025 -0.8615 -0.0635
17147TIP3   OH272855   0.011   0.040  16.565 -0.3789  0.4430 -0.0198
17147TIP3    H172856  -0.022  -0.050  16.572  0.1759  0.1726 -0.7336
17147TIP3    H272857  -0.062   0.090  16.531  0.1981 -0.3667 -2.6969
17148TIP3   OH272858   4.788   0.103   4.273 -0.0325 -0.1911 -0.0754
17148TIP3    H172859   4.838   0.175   4.312 -0.0517  0.2217 -0.8025
17148TIP3    H272860   4.826   0.024   4.312 -0.7140  0.2315  1.5362
17149TIP3   OH272861   3.722   0.317  12.758  0.0958 -0.2935 -0.3023
17149TIP3    H172862   3.809   0.345  12.729  0.3753 -1.1646 -0.3439
17149TIP3    H272863   3.705   0.237  12.709 -1.7594  1.1027 -2.0747
17150TIP3   OH272864   3.256   2.622  16.160  0.4719  0.2071 -0.2504
17150TIP3    H172865   3.199   2.549  16.136 -0.1703  0.7639 -0.4325
17150TIP3    H272866   3.301   2.592  16.240  0.0590 -0.3011 -0.2044
17151TIP3   OH272867   5.426   4.211  15.717  0.1813  0.1106 -0.9735
17151TIP3    H172868   5.371   4.140  15.684  0.0268  0.2862 -1.0886
17151TIP3    H272869   5.507   4.167  15.744 -0.2704 -0.2505 -0.1559
17152TIP3   OH272870   5.999   0.507  11.340 -0.3768  0.2634 -0.1964
17152TIP3    H172871   5.917   0.523  11.294 -1.5978  0.0413  1.7718
17152TIP3    H272872   6.041   0.437  11.291 -1.5858  0.0482 -0.9708
17153TIP3   OH272873   2.731   5.024  14.034  0.0569 -0.1392 -0.4415
17153TIP3    H172874   2.698   5.097  14.086 -2.0239 -0.8146 -0.7257
17153TIP3    H272875   2.824   5.044  14.021 -0.0457  1.5230  0.9985
17154TIP3   OH272876   2.894   3.272  16.666 -0.5875 -0.5238 -0.1373
17154TIP3    H172877   2.880   3.295  16.574  1.4735 -0.0485 -0.3852
17154TIP3    H272878   2.858   3.184  16.675 -0.9123 -0.5345 -1.3663
17155TIP3   OH272879   6.290   1.908  13.651 -0.5872 -0.4590 -0.1116
17155TIP3    H172880   6.371   1.902  13.601 -1.0631 -0.2597 -0.9366
17155TIP3    H272881   6.312   1.963  13.726  0.1250 -0.7009 -0.1346
17156TIP3   OH272882   4.213   1.234  14.581 -0.0824  0.8161  0.0514
17156TIP3    H172883   4.291   1.248  14.527 -0.1653 -1.3791 -0.7306
17156TIP3    H272884   4.233   1.154  14.631 -1.8930  0.0550 -0.3506
17157TIP3   OH272885   5.216   5.830  15.430  0.4187 -1.3253 -0.0165
17157TIP3    H172886   5.248   5.769  15.362  0.9308 -0.6939 -0.3486
17157TIP3    H272887   5.286   5.894  15.440 -0.3792 -0.4162 -0.1231
17158TIP3   OH272888   0.960   2.237  14.728  0.3151  0.2792  0.9452
17158TIP3    H172889   1.017   2.174  14.771  2.1354  0.6451 -0.7620
17158TIP3    H272890   0.875   2.193  14.721  0.5948 -0.6377  2.7608
17159TIP3   OH272891   4.291   5.014   3.218 -0.2815  0.5287 -0.9317
17159TIP3    H172892   4.315   5.102   3.245  0.4329  0.8819 -2.6420
17159TIP3    H272893   4.374   4.966   3.218 -0.6967 -0.2436  0.2259
17160TIP3   OH272894   1.928   4.020   0.073  0.7452  0.4621  0.1466
17160TIP3    H172895   1.958   3.930   0.086  0.8197  0.4766  0.0762
17160TIP3    H272896   1.840   4.011   0.035  0.1343  0.4126  1.4905
17161TIP3   OH272897   0.162   3.520  11.606  0.6852 -0.3409  0.5958
17161TIP3    H172898   0.249   3.557  11.591  0.6718 -0.3179  0.5763
17161TIP3    H272899   0.111   3.592  11.642  0.4350 -0.1268 -0.1828
17162TIP3   OH272900   5.379   0.251   0.400 -0.2278  1.1089  0.0413
17162TIP3    H172901   5.399   0.319   0.464 -1.0330  1.4467 -0.0488
17162TIP3    H272902   5.462   0.205   0.387  0.3998  2.2496 -0.1110
17163TIP3   OH272903   0.654   3.179   2.541  0.6440 -0.2522 -0.6477
17163TIP3    H172904   0.641   3.274   2.550  0.2499 -0.4445  1.3168
17163TIP3    H272905   0.580   3.150   2.488 -0.0140  0.3603 -0.0908
17164TIP3   OH272906   5.943   3.589   2.413 -0.1341 -0.2622 -0.3542
17164TIP3    H172907   5.993   3.670   2.414 -0.2315 -0.2004  0.4449
17164TIP3    H272908   5.966   3.547   2.331 -0.9176  1.0757 -1.2851
17165TIP3   OH272909   1.431   5.817  10.592  0.5653 -0.4667 -0.2031
17165TIP3    H172910   1.401   5.807  10.682 -2.6426  1.2139 -0.9609
17165TIP3    H272911   1.359   5.860  10.546  1.2392 -2.9360 -4.0740
17166TIP3   OH272912   3.454   3.008  16.733 -0.0011 -0.0759  0.1691
17166TIP3    H172913   3.437   3.066  16.807  0.0821  1.2001 -0.7690
17166TIP3    H272914   3.464   2.921  16.772  1.6052  0.7871  1.8377
17167TIP3   OH272915   6.486   0.840   4.384  0.0526 -0.4173  0.2917
17167TIP3    H172916   6.549   0.794   4.329 -1.4834 -0.4367 -1.5428
17167TIP3    H272917   6.401   0.805   4.359 -0.8128  0.2759  2.0356
17168TIP3   OH272918   3.697   0.532   2.962  0.4217  0.1561  0.6842
17168TIP3    H172919   3.639   0.608   2.957 -2.5959 -2.0079 -2.0539
17168TIP3    H272920   3.673   0.490   3.044  2.0654  1.9545  2.1863
17169TIP3   OH272921   6.133   4.777   3.298 -0.0660 -0.0745 -0.1884
17169TIP3    H172922   6.060   4.771   3.359 -1.3113 -1.2339 -1.7194
17169TIP3    H272923   6.103   4.838   3.230  0.4550 -0.3934 -0.7172
17170TIP3   OH272924   5.587   0.866  11.779  0.5717  0.8585 -0.1794
17170TIP3    H172925   5.625   0.948  11.809  1.3034  0.0067  1.3327
17170TIP3    H272926   5.638   0.798  11.824 -0.6106 -0.3942 -0.6704
17171TIP3   OH272927   3.416   1.860   2.659 -0.1216 -0.9925  0.3675
17171TIP3    H172928   3.367   1.931   2.700 -1.2372 -1.5540  0.0606
17171TIP3    H272929   3.391   1.782   2.709 -0.7688 -1.5358 -0.7577
17172TIP3   OH272930   4.845   5.175  13.954  0.9318 -0.2843 -0.3419
17172TIP3    H172931   4.851   5.228  14.033 -1.8015  1.7404 -1.3254
17172TIP3    H272932   4.870   5.235  13.883 -3.2616  0.2838 -1.5971
17173TIP3   OH272933   0.009   1.442   2.544  0.1196  0.3486  0.2873
17173TIP3    H172934   0.093   1.412   2.580  0.3945  0.0239 -0.5947
17173TIP3    H272935   0.025   1.449   2.450 -0.6241  1.0477  0.2090
17174TIP3   OH272936   6.662   0.286  12.873  0.3724  0.2100  0.2981
17174TIP3    H172937   6.732   0.227  12.902 -0.4726 -0.0656  1.9616
17174TIP3    H272938   6.616   0.308  12.954 -1.2780  0.6156 -0.7090
17175TIP3   OH272939   6.185   0.951  14.530 -0.9765  0.0233  0.0253
17175TIP3    H172940   6.208   0.919  14.617  1.5938  0.4163 -0.4524
17175TIP3    H272941   6.090   0.962  14.534 -1.2882 -2.3801  1.9531
17176TIP3   OH272942   1.940   5.588  14.580  0.3245 -0.6219 -0.4013
17176TIP3    H172943   1.857   5.616  14.619  0.5300  0.3513 -0.6164
17176TIP3    H272944   2.001   5.659  14.601  1.6425 -2.2207  1.4262
17177TIP3   OH272945   1.697   5.082  13.150  0.3359  0.9510 -0.2459
17177TIP3    H172946   1.713   5.166  13.194 -0.2224  0.7801  0.3085
17177TIP3    H272947   1.602   5.070  13.156  0.3550  0.5141 -0.7599
17178TIP3   OH272948   6.003   3.592   4.101 -0.4638  0.1202 -0.0696
17178TIP3    H172949   5.983   3.637   4.183 -0.0677 -1.0790  0.7082
17178TIP3    H272950   6.098   3.603   4.090 -0.3070 -0.7914  0.3047
17179TIP3   OH272951   2.765   2.337   2.823  0.4105 -0.4093 -0.7472
17179TIP3    H172952   2.745   2.302   2.910  0.2184  0.4188 -0.4531
17179TIP3    H272953   2.792   2.427   2.839  0.3246 -0.2358 -1.5519
17180TIP3   OH272954   5.399   3.365   3.171  0.0948  0.3168 -0.1258
17180TIP3    H172955   5.326   3.372   3.108 -1.2235  0.6097  1.3672
17180TIP3    H272956   5.470   3.415   3.131 -0.4548 -0.0896 -1.7012
17181TIP3   OH272957   0.476   4.170   1.989  0.5763  0.0894  0.1969
17181TIP3    H172958   0.516   4.126   2.064 -0.4178 -0.3231  0.4874
17181TIP3    H272959   0.543   4.165   1.920  1.2513 -0.0795  0.8522
17182TIP3   OH272960   0.078   1.229   6.689  0.7229 -0.3141  0.5717
17182TIP3    H172961  -0.003   1.218   6.740 -0.6189 -0.2434 -1.4456
17182TIP3    H272962   0.082   1.322   6.669  0.4418 -0.5485 -0.6533
17183TIP3   OH272963   1.317   0.811   2.509  0.2729 -0.5408 -0.0613
17183TIP3    H172964   1.413   0.818   2.508  0.1657  1.4428  0.1040
17183TIP3    H272965   1.290   0.868   2.581 -1.1080  0.4098 -1.2956
17184TIP3   OH272966   3.556   3.167  15.369 -0.0550  0.3466  0.1991
17184TIP3    H172967   3.587   3.142  15.456 -1.1331  0.0440  0.5033
17184TIP3    H272968   3.627   3.141  15.311 -0.8605 -3.0455  0.5354
17185TIP3   OH272969   1.448   5.255   6.225  0.0353  0.5098 -0.1142
17185TIP3    H172970   1.355   5.279   6.220  0.2133  1.4495  0.7228
17185TIP3    H272971   1.461   5.228   6.316  0.8122  1.4520  0.0742
17186TIP3   OH272972   1.932   6.515  12.589  0.7603 -0.6791  0.4679
17186TIP3    H172973   2.007   6.542  12.536  1.1022 -1.1171  0.7258
17186TIP3    H272974   1.954   6.427  12.619 -0.1618 -1.0890 -0.0238
17187TIP3   OH272975   4.253   2.184  15.735  0.0521 -0.3512 -0.3807
17187TIP3    H172976   4.269   2.111  15.676 -0.4559 -1.2907  0.6056
17187TIP3    H272977   4.164   2.170  15.767 -0.0542  0.7023 -0.1624
17188TIP3   OH272978   4.291   4.151  13.386  0.3852 -0.4751 -0.3031
17188TIP3    H172979   4.324   4.240  13.401  1.3450 -0.5416 -1.7889
17188TIP3    H272980   4.205   4.164  13.348  0.0199 -0.2204  0.5852
17189TIP3   OH272981   3.873   5.460  15.903 -0.6415 -0.5996  0.8242
17189TIP3    H172982   3.847   5.459  15.811 -0.5796  0.5619  0.7765
17189TIP3    H272983   3.832   5.539  15.939  1.1321  0.1986  1.2307
17190TIP3   OH272984   4.695   3.450   5.163 -0.1801 -0.1646 -0.4207
17190TIP3    H172985   4.671   3.540   5.186 -1.0021 -0.4190 -0.2352
17190TIP3    H272986   4.707   3.406   5.248 -0.5344 -0.4173 -0.4985
17191TIP3   OH272987   4.270   3.200   3.561  0.0102 -0.0318 -0.4494
17191TIP3    H172988   4.271   3.108   3.587  0.0731  0.6519  2.3041
17191TIP3    H272989   4.347   3.238   3.603  0.0570  1.2815 -1.6489
17192TIP3   OH272990   0.505   3.398  17.104 -0.4896 -0.3243 -0.6721
17192TIP3    H172991   0.462   3.457  17.042 -1.0691  1.8379  1.6192
17192TIP3    H272992   0.449   3.401  17.182  1.3921 -1.1024  0.7794
17193TIP3   OH272993   6.117   6.002   3.893 -0.0301  0.3180 -0.0422
17193TIP3    H172994   6.115   5.992   3.797  1.5174  1.6290 -0.2452
17193TIP3    H272995   6.130   6.095   3.907  0.1504  0.0879  1.4648
17194TIP3   OH272996   3.687   2.495   6.091 -0.0213 -0.3081 -0.2277
17194TIP3    H172997   3.782   2.486   6.105  0.1124  1.0405 -0.2017
17194TIP3    H272998   3.655   2.405   6.089  1.5529 -0.8954 -2.2498
17195TIP3   OH272999   3.414   5.819  13.951  0.3015 -0.0447 -0.2740
17195TIP3    H173000   3.368   5.893  13.911  0.6144 -0.1954 -0.9244
17195TIP3    H273001   3.417   5.840  14.045 -0.8700  0.0864 -0.2525
17196TIP3   OH273002   0.233   5.162   3.630  0.1545 -0.1155 -0.3990
17196TIP3    H173003   0.259   5.081   3.584  0.3939 -0.3085  0.0630
17196TIP3    H273004   0.283   5.231   3.587 -1.4128  0.0739 -2.0105
17197TIP3   OH273005   3.964   4.405   0.580  0.0145  0.9168  1.0532
17197TIP3    H173006   4.059   4.392   0.581  0.0784  1.3726  2.3181
17197TIP3    H273007   3.949   4.478   0.640 -1.0687  1.4205  0.2042
17198TIP3   OH273008   1.271   6.618   3.900  0.2432  0.1154 -0.1019
17198TIP3    H173009   1.199   6.654   3.953  0.3640  0.3401 -0.0910
17198TIP3    H273010   1.336   6.688   3.898  0.6703 -0.2646  0.2923
17199TIP3   OH273011   1.511   4.405   0.256 -0.4208  0.1439 -1.1422
17199TIP3    H173012   1.497   4.481   0.313  2.0642 -0.0109 -0.2388
17199TIP3    H273013   1.480   4.331   0.308  0.2504  0.1925 -0.6623
17200TIP3   OH273014   5.135   1.800  11.461  0.1064 -0.2328  0.3135
17200TIP3    H173015   5.137   1.896  11.451  0.0067 -0.3662 -1.2755
17200TIP3    H273016   5.181   1.784  11.543 -1.4281  1.2899  1.5595
17201TIP3   OH273017   0.432   4.053   0.063  0.0145  0.5007 -0.6096
17201TIP3    H173018   0.386   4.067   0.145 -1.8302 -1.2678 -1.2645
17201TIP3    H273019   0.505   3.996   0.086 -0.2670  0.3272 -0.1363
17202TIP3   OH273020   6.278   4.708  12.168 -0.2572 -0.1335  0.0255
17202TIP3    H173021   6.233   4.641  12.116 -1.0209  1.1111 -0.9577
17202TIP3    H273022   6.339   4.750  12.107  0.5688 -0.2356  0.7594
17203TIP3   OH273023   5.277   4.713  11.510  0.7995  0.2413 -0.0856
17203TIP3    H173024   5.205   4.759  11.467  0.3965  0.5656  0.9151
17203TIP3    H273025   5.240   4.628  11.534 -0.3806  1.5451  3.3674
17204TIP3   OH273026   0.329   4.079   0.337  0.1487 -0.0972  0.1108
17204TIP3    H173027   0.340   4.141   0.409  1.0671 -0.6860  0.4994
17204TIP3    H273028   0.339   3.993   0.378 -0.8711 -0.5080 -0.4561
17205TIP3   OH273029   4.248   5.089   1.898  0.3922 -0.0036 -0.2864
17205TIP3    H173030   4.226   4.996   1.904  0.5833 -0.0899 -0.8676
17205TIP3    H273031   4.330   5.091   1.849  1.0845  0.3932  0.8438
17206TIP3   OH273032   4.934   4.718   4.291  0.0414 -0.6072 -0.1323
17206TIP3    H173033   4.972   4.683   4.371 -1.3107 -0.5653  0.5518
17206TIP3    H273034   4.856   4.764   4.319  0.0883  0.2823 -1.3751
17207TIP3   OH273035   1.306   0.717  11.950  0.0707 -0.2121 -0.0267
17207TIP3    H173036   1.276   0.653  11.886  1.0551 -1.2544  0.5203
17207TIP3    H273037   1.358   0.780  11.900 -1.5373  0.6380 -0.6934
17208TIP3   OH273038   1.395   2.644   3.372 -0.1588  0.3292 -0.0548
17208TIP3    H173039   1.462   2.637   3.303  0.3708  2.0543  0.2415
17208TIP3    H273040   1.331   2.706   3.337 -2.8276 -2.8001 -1.2119
17209TIP3   OH273041   1.570   5.460   6.118 -0.2605  0.1503  0.4143
17209TIP3    H173042   1.662   5.462   6.143  0.1487  0.9076 -1.0603
17209TIP3    H273043   1.537   5.377   6.153  1.5929 -1.2973 -1.0632
17210TIP3   OH273044   4.117   5.379  12.204  0.2595  0.2213 -0.5023
17210TIP3    H173045   4.032   5.415  12.228 -0.1125 -0.9889  0.0826
17210TIP3    H273046   4.175   5.455  12.199 -0.2867  0.8329  1.5655
17211TIP3   OH273047   2.289   6.419  15.034 -0.0649 -0.2400 -0.2190
17211TIP3    H173048   2.366   6.365  15.015  0.4995  0.6852 -0.6842
17211TIP3    H273049   2.238   6.415  14.953 -0.2302 -0.4213 -0.1044
17212TIP3   OH273050   4.568   2.051  12.611  0.4170 -0.9036  0.2288
17212TIP3    H173051   4.485   2.035  12.566 -0.2038  0.1392  0.9604
17212TIP3    H273052   4.546   2.050  12.704  0.5488  2.5346  0.4035
17213TIP3   OH273053   3.833   0.384  13.653 -0.5129 -0.4653 -0.4467
17213TIP3    H173054   3.815   0.387  13.747 -0.4960 -0.4789 -0.4428
17213TIP3    H273055   3.752   0.350  13.614 -0.9333  0.6390 -0.5499
17214TIP3   OH273056   0.570   4.773   2.295  0.2567  0.3590 -0.5908
17214TIP3    H173057   0.552   4.725   2.376  1.0856  0.1850 -0.5052
17214TIP3    H273058   0.601   4.859   2.324 -1.1235  0.9432 -0.7441
17215TIP3   OH273059   3.956   0.643  13.598  0.6395 -0.1825 -0.7091
17215TIP3    H173060   3.975   0.631  13.691 -1.3013  1.3077 -0.0635
17215TIP3    H273061   3.866   0.612  13.587  0.7685 -0.1437 -2.0554
17216TIP3   OH273062   1.878   3.078   4.791 -0.1010 -0.1917  0.2394
17216TIP3    H173063   1.880   3.028   4.873 -0.9180 -0.8142 -0.0994
17216TIP3    H273064   1.922   3.161   4.811  0.5348 -0.7108  1.0453
17217TIP3   OH273065   2.440   0.879   6.682  0.4823  0.3566  1.0123
17217TIP3    H173066   2.361   0.833   6.709  0.6155  0.1609  1.0714
17217TIP3    H273067   2.495   0.811   6.643 -1.2683  1.1848 -3.4107
17218TIP3   OH273068   1.295   1.448   0.429 -0.2764  0.1589  0.0515
17218TIP3    H173069   1.204   1.468   0.407  0.1822  0.5787 -1.6224
17218TIP3    H273070   1.319   1.375   0.372  1.3360  2.0963 -1.9561
17219TIP3   OH273071   1.904   2.435   1.048 -0.2878  0.5825  0.1805
17219TIP3    H173072   1.996   2.409   1.052  0.1311  1.0554 -3.3538
17219TIP3    H273073   1.857   2.368   1.098  1.6131 -1.8269 -1.1080
17220TIP3   OH273074   0.667   3.007   5.195  0.2719 -0.0012 -0.3815
17220TIP3    H173075   0.729   3.076   5.221  0.5950 -0.6727  0.6791
17220TIP3    H273076   0.679   2.938   5.260  0.6347 -1.4943 -1.9752
17221TIP3   OH273077   1.933   4.238   1.094  0.1958 -0.2814  0.1608
17221TIP3    H173078   1.899   4.267   1.009  1.6239 -1.0468 -0.7128
17221TIP3    H273079   1.999   4.304   1.117  1.8653 -1.5244 -0.7696
17222TIP3   OH273080   0.583   0.859   0.185 -0.1040  0.2013 -0.0356
17222TIP3    H173081   0.509   0.801   0.206 -0.4155  0.4189 -0.4975
17222TIP3    H273082   0.628   0.815   0.113  0.7232 -0.3472  0.8035
17223TIP3   OH273083   2.902   6.081  16.118  1.0239 -0.7915 -0.4483
17223TIP3    H173084   2.977   6.024  16.133  0.4886 -1.2804  0.4393
17223TIP3    H273085   2.935   6.147  16.057  3.4222  1.3346  2.7605
17224TIP3   OH273086   3.519   2.694   0.777  0.8590 -0.4174  0.0105
17224TIP3    H173087   3.480   2.780   0.761 -1.6302 -1.6070 -0.7418
17224TIP3    H273088   3.572   2.707   0.856  0.3182  1.7178  0.0935
17225TIP3   OH273089   3.825   2.631   4.645  0.1003 -0.3247  0.6292
17225TIP3    H173090   3.753   2.665   4.699 -1.4534 -0.4473 -1.2590
17225TIP3    H273091   3.819   2.680   4.563 -0.2274 -2.8607 -0.9840
17226TIP3   OH273092   1.047   0.505   4.497  0.4168  0.5507  0.8150
17226TIP3    H173093   0.964   0.458   4.486  1.2468 -0.8250  0.0822
17226TIP3    H273094   1.101   0.445   4.549  1.5865  0.5485 -0.3433
17227TIP3   OH273095   4.814   4.752  11.759  0.2922  0.1890  0.2484
17227TIP3    H173096   4.764   4.706  11.692  0.8453 -1.0832  0.6679
17227TIP3    H273097   4.855   4.825  11.713  1.5561 -1.2838 -1.0896
17228TIP3   OH273098   3.244   5.575  15.760 -0.5231 -0.1972  0.8379
17228TIP3    H173099   3.225   5.523  15.839 -0.0286  0.8725  1.6955
17228TIP3    H273100   3.270   5.511  15.695  0.4230 -1.0211  1.9755
17229TIP3   OH273101   2.124   5.487  15.050 -0.2563  0.1581  0.2048
17229TIP3    H173102   2.114   5.401  15.008  1.1389  0.2398 -0.3215
17229TIP3    H273103   2.119   5.469  15.143  0.8011 -0.6205  0.1257
17230TIP3   OH273104   1.848   1.028   0.447 -0.0995 -0.1273  0.0352
17230TIP3    H173105   1.762   1.027   0.490  1.1769 -0.3705  2.8182
17230TIP3    H273106   1.854   0.944   0.402 -1.5669  0.1873 -0.7958
17231TIP3   OH273107   6.119   2.295   2.359 -0.4215 -0.2929  0.2053
17231TIP3    H173108   6.043   2.348   2.383 -0.4359 -0.1245 -0.1986
17231TIP3    H273109   6.195   2.345   2.391 -0.3791  0.4534 -1.0158
17232TIP3   OH273110   1.041   5.379  13.114  0.4125 -0.4355  0.5258
17232TIP3    H173111   0.982   5.307  13.137  1.0968 -1.1412  0.1063
17232TIP3    H273112   1.114   5.337  13.070 -1.1694  0.8422 -3.7925
17233TIP3   OH273113   2.147   3.908   1.701  0.4364  0.0220  0.0676
17233TIP3    H173114   2.082   3.946   1.761 -0.3721 -2.0277  0.5668
17233TIP3    H273115   2.108   3.919   1.614  1.1838  2.1485 -0.0697
17234TIP3   OH273116   0.808   4.589  14.926  0.1879  0.5312  0.3989
17234TIP3    H173117   0.792   4.552  14.839 -1.3078  1.9481  0.0514
17234TIP3    H273118   0.736   4.556  14.980  0.2021  0.9729  0.6913
17235TIP3   OH273119   0.153   5.719  13.074 -0.0525 -0.3451 -0.4225
17235TIP3    H173120   0.109   5.794  13.034  0.0070  1.2124  2.2080
17235TIP3    H273121   0.182   5.750  13.160  3.1936 -2.3207 -0.6078
17236TIP3   OH273122   3.708   6.585  12.315 -1.0966  0.2928 -0.2269
17236TIP3    H173123   3.721   6.505  12.266 -0.2297  0.7216 -0.7097
17236TIP3    H273124   3.795   6.623  12.324 -1.6594  1.9570 -1.3439
17237TIP3   OH273125   6.458   3.644  14.414 -0.5021  0.2104  0.4974
17237TIP3    H173126   6.547   3.676  14.399  0.0847 -1.5765  0.0378
17237TIP3    H273127   6.469   3.555  14.445 -2.1692 -0.5678 -0.9917
17238TIP3   OH273128   0.610   4.150   4.087 -0.4693  0.2034 -0.2260
17238TIP3    H173129   0.567   4.167   4.004 -0.7666 -0.8271 -0.2946
17238TIP3    H273130   0.602   4.232   4.136  2.2477  1.8405 -2.2688
17239TIP3   OH273131   4.712   5.076  11.220  0.4776 -0.1191  0.6184
17239TIP3    H173132   4.648   5.021  11.263  0.5431  1.5848  3.1481
17239TIP3    H273133   4.677   5.165  11.228  2.1946  0.6436  0.2946
17240TIP3   OH273134   3.976   6.213   3.437  0.2949 -0.0947 -0.7510
17240TIP3    H173135   3.935   6.166   3.509  1.2190 -1.2495 -0.9439
17240TIP3    H273136   4.042   6.268   3.479  0.4927 -0.3929 -0.6671
17241TIP3   OH273137   4.080   6.756  16.214  0.1164  0.1242  0.3367
17241TIP3    H173138   4.147   6.745  16.282  1.1067  0.0884 -0.6305
17241TIP3    H273139   4.099   6.842  16.175 -0.4883  0.1741  0.1474
17242TIP3   OH273140   2.330   1.080  16.018 -0.4099 -0.3107  0.0670
17242TIP3    H173141   2.418   1.101  16.049 -1.6092  3.8121  1.3150
17242TIP3    H273142   2.292   1.027  16.088 -0.1632  1.3765  1.5523
17243TIP3   OH273143   1.170   1.743  14.534  0.1877 -0.2306 -0.3817
17243TIP3    H173144   1.141   1.716  14.447  0.8048 -0.1504 -0.6083
17243TIP3    H273145   1.265   1.733  14.533  0.2138 -0.0986  0.2377
17244TIP3   OH273146   3.939   4.408  12.858  0.0895  0.1979  0.4122
17244TIP3    H173147   3.851   4.381  12.886  0.8893 -0.9460  2.0080
17244TIP3    H273148   3.980   4.327  12.828  0.8490  0.5835  0.3912
17245TIP3   OH273149   1.370   2.736  14.879 -0.0453 -0.6193 -0.0701
17245TIP3    H173150   1.331   2.807  14.931 -1.3815 -1.4018  0.0401
17245TIP3    H273151   1.422   2.781  14.813 -0.7492  0.4812  0.0897
17246TIP3   OH273152   2.408   6.386   2.198 -0.5047 -0.6278 -0.5864
17246TIP3    H173153   2.455   6.457   2.155  1.7188 -1.5352  0.1902
17246TIP3    H273154   2.319   6.394   2.166 -0.4545  2.7138 -0.2520
17247TIP3   OH273155   3.947   0.908  11.830  0.2614  0.1532  0.1030
17247TIP3    H173156   4.029   0.859  11.831  0.4216  0.3432 -1.4404
17247TIP3    H273157   3.887   0.853  11.779 -0.3104  0.4184  0.4827
17248TIP3   OH273158   0.323   1.346   3.044 -0.0030 -0.1810 -0.0576
17248TIP3    H173159   0.370   1.397   2.978  1.1119 -0.3090  0.6035
17248TIP3    H273160   0.380   1.350   3.122 -0.2652 -1.7664  0.2437
17249TIP3   OH273161   5.914   2.479   5.263  0.1363 -0.2770  0.5089
17249TIP3    H173162   5.856   2.449   5.193  2.4105  1.9381 -2.5922
17249TIP3    H273163   5.857   2.527   5.323 -1.3928  1.7205 -2.3044
17250TIP3   OH273164   4.896   1.894   5.931 -0.1954 -0.0773 -0.0470
17250TIP3    H173165   4.814   1.940   5.912 -0.0890 -0.5350 -1.8782
17250TIP3    H273166   4.869   1.809   5.965 -0.4629  0.0756  0.1263
17251TIP3   OH273167   4.386   4.980   1.132  0.0072 -0.1832  0.0692
17251TIP3    H173168   4.300   4.941   1.119 -0.3445  1.0420 -1.5920
17251TIP3    H273169   4.435   4.957   1.053  0.6756  0.4540  0.2853
17252TIP3   OH273170   4.736   2.227   4.986  0.5451  0.7735  0.0169
17252TIP3    H173171   4.686   2.257   5.062 -1.8712  0.9532 -1.5660
17252TIP3    H273172   4.740   2.132   4.996 -4.1734  0.1180 -1.9620
17253TIP3   OH273173   1.177   5.679   4.187  0.0272 -0.1754  0.4776
17253TIP3    H173174   1.103   5.724   4.146  0.5626  0.4011  0.1233
17253TIP3    H273175   1.137   5.622   4.253 -0.6536  0.9762  1.0885
17254TIP3   OH273176   2.328   1.739   3.967 -0.6340  0.2812  0.1503
17254TIP3    H173177   2.349   1.768   3.878 -0.2197 -0.4636 -0.0042
17254TIP3    H273178   2.290   1.816   4.009 -1.9467  0.3152 -1.0342
17255TIP3   OH273179   4.765   3.117  13.667  0.0076 -0.3474 -0.4087
17255TIP3    H173180   4.687   3.132  13.721  1.2117  1.3451  0.9776
17255TIP3    H273181   4.837   3.116  13.729  1.4518  1.5599 -1.9095
17256TIP3   OH273182   2.996   0.128  10.934  0.3792 -0.1428 -0.1833
17256TIP3    H173183   2.904   0.117  10.908 -0.5255  3.2863  1.0733
17256TIP3    H273184   3.027   0.202  10.882  1.0279  1.5138  2.3819
17257TIP3   OH273185   3.459   0.445  15.301  0.9615  0.2144  0.3113
17257TIP3    H173186   3.548   0.468  15.277  0.7370  1.5111  0.6228
17257TIP3    H273187   3.469   0.373  15.364  1.5918 -2.4656 -2.5751
17258TIP3   OH273188   2.722   5.694   1.261  0.2632 -0.0779  0.0651
17258TIP3    H173189   2.678   5.719   1.342  0.5203 -2.3006  0.9597
17258TIP3    H273190   2.740   5.777   1.216  1.5166  1.3742  3.0030
17259TIP3   OH273191   3.108   5.945   1.687  0.1659  0.6403  0.1132
17259TIP3    H173192   3.151   6.023   1.651  0.6515  0.4410  0.2500
17259TIP3    H273193   3.069   5.975   1.768  0.3157  0.7527  0.1450
17260TIP3   OH273194   3.457   3.017  13.682  0.0732 -0.3890  0.2993
17260TIP3    H173195   3.372   3.013  13.638  0.0867 -0.9343  0.3207
17260TIP3    H273196   3.456   2.943  13.743 -0.2250  0.7711  1.7455
17261TIP3   OH273197   5.854   4.866  12.795 -0.6060  0.1141 -0.5721
17261TIP3    H173198   5.841   4.933  12.862 -0.6190  0.0813 -0.5418
17261TIP3    H273199   5.945   4.839  12.806 -0.5894  0.1547 -0.6095
17262TIP3   OH273200   4.651   2.927  12.132 -0.3555 -0.0668  0.5971
17262TIP3    H173201   4.587   2.880  12.080 -1.5220  1.1209  0.9043
17262TIP3    H273202   4.628   2.906  12.223  0.2797 -0.3699  0.6924
17263TIP3   OH273203   6.049   2.254  16.789  0.0049 -0.5008 -0.2673
17263TIP3    H173204   6.054   2.253  16.693  2.4082  1.0918 -0.2371
17263TIP3    H273205   5.995   2.330  16.810  0.1079 -0.4035 -0.3536
17264TIP3   OH273206   3.560   3.072   4.108  0.1365 -1.1032 -0.4218
17264TIP3    H173207   3.552   3.029   4.023 -0.6621  0.9049 -1.4285
17264TIP3    H273208   3.545   3.165   4.089  0.5355 -0.5274  1.8297
17265TIP3   OH273209   1.156   3.889   1.238 -0.0135  0.1241 -0.6414
17265TIP3    H173210   1.203   3.812   1.206 -0.8625 -0.5843 -0.2412
17265TIP3    H273211   1.128   3.865   1.326 -1.2310  0.4530 -0.9174
17266TIP3   OH273212   5.976   6.553  12.333  0.1682 -0.0283  0.4614
17266TIP3    H173213   5.960   6.463  12.361 -0.6917 -0.5078 -1.3638
17266TIP3    H273214   6.061   6.551  12.289 -0.7056 -0.4550 -1.3190
17267TIP3   OH273215   1.778   3.508  16.408 -0.4452  0.2902 -0.1136
17267TIP3    H173216   1.847   3.496  16.343 -0.6993 -0.0038 -0.3347
17267TIP3    H273217   1.752   3.419  16.432 -1.8939  0.3492 -1.2694
17268TIP3   OH273218   3.954   4.496   1.178  0.0404 -0.0591 -0.1304
17268TIP3    H173219   4.038   4.453   1.163 -0.1443 -0.8114  0.8679
17268TIP3    H273220   3.934   4.478   1.270  0.5708  3.2371  0.7899
17269TIP3   OH273221   4.110   3.562   2.682  0.0076 -0.1203 -0.7633
17269TIP3    H173222   4.195   3.606   2.692  0.5833 -1.3380  0.0298
17269TIP3    H273223   4.109   3.497   2.753 -1.4560 -0.3374 -0.9694
17270TIP3   OH273224   6.449   3.832  13.695  0.0516  0.0635  0.3213
17270TIP3    H173225   6.436   3.754  13.749 -0.6179  0.0984  0.2200
17270TIP3    H273226   6.471   3.900  13.758 -0.6294  0.0813  0.5500
17271TIP3   OH273227   3.190   5.561  14.659 -0.1182  0.4974  0.1710
17271TIP3    H173228   3.118   5.560  14.722 -1.1070 -1.0704 -0.9058
17271TIP3    H273229   3.169   5.633  14.600 -0.5950  0.3170  0.1136
17272TIP3   OH273230   3.635   6.488  15.734  0.1498 -0.0295 -0.0308
17272TIP3    H173231   3.671   6.435  15.805  0.2088 -0.2212 -0.2040
17272TIP3    H273232   3.547   6.511  15.764 -0.5241 -1.6279 -0.6655
17273TIP3   OH273233   6.682   1.264  11.165 -0.5936  0.0755 -0.2047
17273TIP3    H173234   6.678   1.333  11.099  2.1547  0.9409  0.3783
17273TIP3    H273235   6.753   1.291  11.223 -1.4904 -1.7212  1.8858
17274TIP3   OH273236   0.160   4.906   4.780 -0.1121  0.5667  0.0512
17274TIP3    H173237   0.150   4.916   4.874  0.6329 -0.5758  0.2811
17274TIP3    H273238   0.099   4.836   4.756  0.0242  0.5383 -0.2260
17275TIP3   OH273239   6.392   2.691  11.633  0.3088 -0.4741  0.3732
17275TIP3    H173240   6.331   2.686  11.560 -0.3735  3.6502  0.4179
17275TIP3    H273241   6.349   2.643  11.704 -1.5983 -0.0409 -0.4301
17276TIP3   OH273242   1.556   6.596   4.726 -0.1474 -0.1311  0.1855
17276TIP3    H173243   1.485   6.572   4.786  0.1505 -3.4953 -0.6054
17276TIP3    H273244   1.636   6.571   4.773  0.1681 -1.2083 -0.8602
17277TIP3   OH273245   3.098   6.212  13.181 -0.2162 -0.0256  0.3417
17277TIP3    H173246   3.037   6.183  13.249  2.5317 -1.7771  2.2850
17277TIP3    H273247   3.149   6.282  13.221 -0.1008  0.5755 -0.7980
17278TIP3   OH273248   6.504   4.516  10.988  0.2229 -0.2510 -0.0844
17278TIP3    H173249   6.563   4.523  11.062  2.0751  0.1648 -1.5381
17278TIP3    H273250   6.542   4.448  10.932 -2.3562 -2.2307  0.3464
17279TIP3   OH273251   3.937   5.449  16.637 -0.0719  0.2336 -0.2205
17279TIP3    H173252   3.896   5.514  16.695  0.7584  2.3679 -1.8558
17279TIP3    H273253   3.873   5.379  16.629 -0.7317  0.4956  2.1975
17280TIP3   OH273254   6.162   4.739   0.597  0.1270 -0.3059 -0.6815
17280TIP3    H173255   6.205   4.813   0.641 -1.5355  0.7218 -0.7068
17280TIP3    H273256   6.164   4.669   0.662  1.1252 -0.0452 -0.4060
17281TIP3   OH273257   3.521   6.577  10.753  0.2852 -0.0226 -0.7907
17281TIP3    H173258   3.531   6.568  10.658  0.8577 -0.2944 -0.7110
17281TIP3    H273259   3.479   6.496  10.781 -1.6306  0.8171 -1.0310
17282TIP3   OH273260   4.357   1.745   5.819  0.2530 -0.4680  0.3260
17282TIP3    H173261   4.422   1.712   5.881 -0.9896 -1.6700  1.0498
17282TIP3    H273262   4.297   1.797   5.872  0.7224  0.8281 -0.3768
17283TIP3   OH273263   6.550   1.982  14.467  0.5933 -0.3384 -0.2060
17283TIP3    H173264   6.543   1.916  14.398  0.7704 -1.4303  0.7816
17283TIP3    H273265   6.608   1.942  14.532 -0.8653 -0.0461  1.3485
17284TIP3   OH273266   1.153   2.716   0.349  0.0509  0.0159  0.2882
17284TIP3    H173267   1.176   2.736   0.440  1.3985  1.7082 -0.3605
17284TIP3    H273268   1.194   2.786   0.298 -1.5505 -0.2943 -1.5545
17285TIP3   OH273269   4.961   6.710   4.398  0.1461 -0.3516  0.4227
17285TIP3    H173270   4.975   6.645   4.329 -1.2908 -0.6687  0.4014
17285TIP3    H273271   4.964   6.660   4.479 -0.0407 -0.2828  0.4713
17286TIP3   OH273272   4.531   4.333  13.944  0.0566  0.1597 -0.0863
17286TIP3    H173273   4.589   4.341  14.020 -3.2986 -2.1753  3.0710
17286TIP3    H273274   4.559   4.251  13.901  0.3018  0.0903  0.2011
17287TIP3   OH273275   0.104   2.254  12.648 -0.4647 -0.1328 -0.2116
17287TIP3    H173276   0.061   2.280  12.566  0.2676 -0.9783 -0.8759
17287TIP3    H273277   0.034   2.213  12.699 -0.6664 -0.6625 -0.9011
17288TIP3   OH273278   2.110   3.911   0.310 -0.0524  0.0226 -0.1089
17288TIP3    H173279   2.020   3.878   0.316 -1.1730  3.0117  1.4965
17288TIP3    H273280   2.140   3.881   0.224 -1.1666 -4.1281  0.7409
17289TIP3   OH273281   2.041   0.425   4.279  0.3245  0.2641  0.5589
17289TIP3    H173282   1.972   0.479   4.242  0.8754  0.3973 -0.2961
17289TIP3    H273283   1.995   0.363   4.336 -0.8292 -1.4532 -2.0592
17290TIP3   OH273284   2.485   2.669  14.518 -0.4903 -0.3457  0.0965
17290TIP3    H173285   2.467   2.584  14.559  0.6282 -0.9318 -0.5808
17290TIP3    H273286   2.580   2.672  14.508 -0.2622  1.9118  2.0257
17291TIP3   OH273287   0.748   3.080  16.394 -0.1812 -0.2937 -0.2950
17291TIP3    H173288   0.835   3.118  16.385 -0.8316  1.7766  1.3821
17291TIP3    H273289   0.764   2.989  16.419  1.4522 -0.4934 -1.9124
17292TIP3   OH273290   5.348   0.543  12.718  0.6288 -0.4047  0.4214
17292TIP3    H173291   5.416   0.511  12.658 -0.1723 -0.3983 -0.5069
17292TIP3    H273292   5.304   0.463  12.748 -1.3219 -0.2620 -1.8377
17293TIP3   OH273293   1.707   4.420   0.635 -0.0397 -0.2857 -0.1519
17293TIP3    H173294   1.713   4.333   0.595  1.9580 -0.6585  0.8083
17293TIP3    H273295   1.734   4.479   0.565 -0.0287 -0.5819 -0.4020
17294TIP3   OH273296   2.622   5.740   2.439  0.0623 -0.1101 -0.1366
17294TIP3    H173297   2.630   5.765   2.531  1.2295 -1.1707  0.0847
17294TIP3    H273298   2.672   5.806   2.392 -2.7221  2.0126 -0.3601
17295TIP3   OH273299   3.561   3.329   0.405 -0.1452 -0.4004  0.3853
17295TIP3    H173300   3.500   3.271   0.451 -0.1501 -0.7397 -0.0399
17295TIP3    H273301   3.643   3.282   0.403 -0.7923 -1.5898 -2.2379
17296TIP3   OH273302   4.778   3.896  12.702  0.2467  0.4199  0.1301
17296TIP3    H173303   4.825   3.898  12.785 -0.5473  1.6005  0.5703
17296TIP3    H273304   4.685   3.903  12.726  0.0025  0.8478 -0.8567
17297TIP3   OH273305   1.329   3.634  14.405  0.2686  0.4018  0.0149
17297TIP3    H173306   1.245   3.596  14.433 -1.1652  1.0292 -3.0014
17297TIP3    H273307   1.371   3.564  14.355  2.4968 -0.5121  2.9083
17298TIP3   OH273308   5.177   3.809   1.444 -0.3679 -0.0361  0.2580
17298TIP3    H173309   5.251   3.758   1.476 -0.2052 -1.3010 -1.9201
17298TIP3    H273310   5.197   3.824   1.351 -2.2947  0.5943 -0.0958
17299TIP3   OH273311   2.506   4.948   0.394  0.3860  0.0094 -0.3415
17299TIP3    H173312   2.508   4.876   0.330 -0.9752 -0.9687  0.6566
17299TIP3    H273313   2.570   4.923   0.460 -2.3114 -2.0588  1.7153
17300TIP3   OH273314   6.245   0.750   0.087  0.0010 -0.3954  0.0526
17300TIP3    H173315   6.274   0.754  -0.005 -2.5492 -0.3485 -0.8220
17300TIP3    H273316   6.256   0.839   0.119 -2.3297  0.4966 -1.3616
17301TIP3   OH273317   0.943   0.694  11.987 -0.0759 -0.2948 -0.2177
17301TIP3    H173318   1.006   0.700  12.059  1.0038 -0.9660 -1.0723
17301TIP3    H273319   0.865   0.741  12.019 -0.0372 -1.4842  1.7864
17302TIP3   OH273320   0.456   1.305   5.721  0.3815  0.0713  1.2557
17302TIP3    H173321   0.523   1.364   5.756  0.7660  0.8076 -0.6166
17302TIP3    H273322   0.399   1.287   5.796  1.4795  1.0948  2.3899
17303TIP3   OH273323   3.987   3.728   0.355 -0.3677  0.0801 -0.1075
17303TIP3    H173324   4.033   3.750   0.274 -0.7048 -2.4540 -1.0682
17303TIP3    H273325   3.898   3.761   0.342  0.3921  2.6794  0.6965
17304TIP3   OH273326   0.573   1.455   0.729 -0.5780  0.0562  0.2230
17304TIP3    H173327   0.604   1.383   0.784 -1.0799 -0.4271 -0.1216
17304TIP3    H273328   0.511   1.503   0.784 -0.0718  0.3717  0.5317
17305TIP3   OH273329   3.162   2.589  12.960 -0.4619 -0.1850 -0.0254
17305TIP3    H173330   3.217   2.519  12.927 -0.9692 -0.4919 -0.2183
17305TIP3    H273331   3.205   2.669  12.930  0.8362 -0.3494  1.2840
17306TIP3   OH273332   1.966   3.329  16.501  0.0784 -0.1677 -0.3830
17306TIP3    H173333   2.006   3.382  16.569  0.2723  0.3195 -0.8703
17306TIP3    H273334   1.924   3.257  16.548 -1.5919  1.2698  0.4368
17307TIP3   OH273335   4.188   0.725   1.029 -0.2418 -0.1351 -0.0795
17307TIP3    H173336   4.142   0.783   1.090  0.7474  0.2716  0.3120
17307TIP3    H273337   4.202   0.644   1.079  1.0652  0.3999  0.4494
17308TIP3   OH273338   5.158   5.861  16.680  0.4128 -0.0234 -0.0178
17308TIP3    H173339   5.195   5.870  16.592 -0.5309 -0.1438 -0.4426
17308TIP3    H273340   5.096   5.788  16.672 -0.9806  1.0755  0.2921
17309TIP3   OH273341   2.955   2.653  16.842  0.1558 -0.0965  0.0620
17309TIP3    H173342   3.025   2.665  16.779 -1.6139 -1.3032 -2.2811
17309TIP3    H273343   2.936   2.560  16.840 -1.2676  0.1385  0.8974
17310TIP3   OH273344   0.159   5.164  16.005 -0.1733 -0.4815 -0.1046
17310TIP3    H173345   0.220   5.237  15.991 -0.4222 -0.4930 -1.4495
17310TIP3    H273346   0.185   5.126  16.089  0.2766  0.8424  0.3705
17311TIP3   OH273347   1.364   6.273  12.051  0.4102 -0.2848  0.4303
17311TIP3    H173348   1.361   6.214  12.127  0.6052 -0.6893  0.1286
17311TIP3    H273349   1.443   6.325  12.064  0.9215 -0.9571  0.0677
17312TIP3   OH273350   3.433   6.067  11.935  0.2090  0.5202  0.0438
17312TIP3    H173351   3.403   6.157  11.951  1.2421  0.9465 -0.3031
17312TIP3    H273352   3.514   6.060  11.986 -0.6441 -0.7211  1.2750
17313TIP3   OH273353   4.806   4.390  12.283  0.4083 -1.0315 -0.4527
17313TIP3    H173354   4.784   4.301  12.258 -1.8742 -0.5671 -0.2655
17313TIP3    H273355   4.725   4.439  12.274  1.5869  1.0522 -0.5432
17314TIP3   OH273356   0.112   0.298   5.452 -0.1680 -0.1931  0.0198
17314TIP3    H173357   0.112   0.223   5.511 -0.6076 -0.8746 -0.8154
17314TIP3    H273358   0.019   0.320   5.442 -0.1701 -0.5884 -1.0066
17315TIP3   OH273359   0.070   1.545   0.078 -0.2147  0.4093 -0.5557
17315TIP3    H173360   0.083   1.627   0.125 -0.9983  0.5314 -0.5532
17315TIP3    H273361   0.128   1.553   0.002 -0.3585  1.0061 -0.6084
17316TIP3   OH273362   4.909   5.607  13.401 -1.1651  0.1594  0.1427
17316TIP3    H173363   4.852   5.649  13.465 -1.2648 -0.9060  0.7812
17316TIP3    H273364   4.956   5.679  13.359 -1.7344  0.9322  0.8039
17317TIP3   OH273365   0.298   6.031  12.427  0.0921 -0.0306  0.0515
17317TIP3    H173366   0.242   5.993  12.360  0.7817  0.9944 -1.1502
17317TIP3    H273367   0.365   5.965  12.444  0.7625  0.2604 -1.3558
17318TIP3   OH273368   4.388   0.938   3.666  0.5486  0.2852 -0.0667
17318TIP3    H173369   4.329   0.994   3.616 -0.5192 -1.4061 -0.8269
17318TIP3    H273370   4.363   0.849   3.641  1.4245 -0.5799  1.8824
17319TIP3   OH273371   4.074   2.793   6.655 -0.1070 -0.2448 -0.3494
17319TIP3    H173372   4.009   2.734   6.694 -1.5290  1.9115  0.7755
17319TIP3    H273373   4.079   2.766   6.564 -0.3503 -2.3458  0.2055
17320TIP3   OH273374   1.903   0.599   5.191 -0.3712 -0.0495  0.0397
17320TIP3    H173375   1.906   0.534   5.121 -0.3201  1.5341 -1.5113
17320TIP3    H273376   1.901   0.548   5.272  1.6404 -1.9685 -1.0066
17321TIP3   OH273377   0.531   6.480   1.392 -0.1235 -0.5422  0.1759
17321TIP3    H173378   0.518   6.575   1.384  1.2524 -0.4343 -1.2900
17321TIP3    H273379   0.469   6.443   1.329 -0.4299 -0.6195  0.5158
17322TIP3   OH273380   1.622   0.124   3.073  0.0481  1.2379 -0.0377
17322TIP3    H173381   1.705   0.170   3.063 -0.0267  1.0797 -1.5915
17322TIP3    H273382   1.646   0.037   3.106  0.3773  1.6211  0.7387
17323TIP3   OH273383   0.515   5.838   3.828 -0.7740 -0.2391  0.1240
17323TIP3    H173384   0.558   5.780   3.891 -0.3930  0.0071  0.0958
17323TIP3    H273385   0.583   5.900   3.802 -1.4502  0.8852  0.9475
17324TIP3   OH273386   1.215   0.333   4.644  0.3624 -0.4318  0.1112
17324TIP3    H173387   1.178   0.318   4.731  1.7857  2.4154  1.3501
17324TIP3    H273388   1.309   0.319   4.656  0.4866 -0.8226 -1.2003
17325TIP3   OH273389   0.670   2.531   2.381  0.5006 -0.7652  0.3097
17325TIP3    H173390   0.579   2.507   2.396 -0.5420  1.3462 -1.9198
17325TIP3    H273391   0.694   2.586   2.455 -1.4935  2.0539 -0.9592
17326TIP3   OH273392   5.925   0.882   2.431  0.1165 -0.9749  0.8589
17326TIP3    H173393   5.856   0.890   2.366  1.5707 -2.3217 -0.9853
17326TIP3    H273394   5.926   0.966   2.476  0.1069  0.7103 -2.0099
17327TIP3   OH273395   5.586   3.527  13.869  0.5528  0.1426 -0.2358
17327TIP3    H173396   5.677   3.535  13.899  0.8555 -0.2718 -1.0189
17327TIP3    H273397   5.575   3.600  13.808  1.5571 -1.8690 -3.0232
17328TIP3   OH273398   3.949   3.788   5.079  0.2204  0.4447  0.6941
17328TIP3    H173399   4.000   3.729   5.024 -0.3407  0.1223  0.5167
17328TIP3    H273400   4.008   3.862   5.095  0.8716 -0.0826  0.7910
17329TIP3   OH273401   2.179   0.074   2.569 -0.4895 -0.1379 -0.0695
17329TIP3    H173402   2.222   0.066   2.654  0.4460 -0.4765 -0.5578
17329TIP3    H273403   2.185  -0.014   2.531 -2.1602 -0.3449  0.0932
17330TIP3   OH273404   1.192   2.816  14.541 -0.0008 -0.5589  0.2416
17330TIP3    H173405   1.184   2.876  14.467 -1.7130  0.1281  0.9122
17330TIP3    H273406   1.228   2.736  14.505  0.9272  0.3731 -0.9678
17331TIP3   OH273407   2.451   0.281  10.952 -0.1066 -0.5622  0.4458
17331TIP3    H173408   2.462   0.226  10.875 -0.6023  0.6562 -0.5326
17331TIP3    H273409   2.503   0.359  10.933 -4.5622  2.3877 -1.3634
17332TIP3   OH273410   1.292   2.087  11.426 -0.6606  0.4821 -0.1307
17332TIP3    H173411   1.258   2.083  11.336 -0.8833  1.1315 -0.0758
17332TIP3    H273412   1.378   2.128  11.417 -0.7916  0.7862 -0.0222
17333TIP3   OH273413   5.673   3.350   3.280 -0.1180 -0.1718  0.1936
17333TIP3    H173414   5.634   3.386   3.360 -0.6517  0.9714 -0.5625
17333TIP3    H273415   5.766   3.344   3.300 -0.0427  1.4034  0.4636
17334TIP3   OH273416   0.947   2.694  14.306  0.0750 -0.0121 -0.0581
17334TIP3    H173417   0.914   2.710  14.218 -0.3736 -1.7759 -0.2545
17334TIP3    H273418   0.912   2.766  14.359 -0.4327  0.5445 -1.1329
17335TIP3   OH273419   6.007   3.120   4.236 -0.1193 -0.1129 -0.0465
17335TIP3    H173420   5.970   3.116   4.324  0.0369 -1.0313 -0.0149
17335TIP3    H273421   6.037   3.211   4.227 -0.3268  0.0465  0.7652
17336TIP3   OH273422   4.082   0.175   0.268 -0.1481  0.4149 -0.1528
17336TIP3    H173423   4.060   0.154   0.177 -0.3466 -1.0745  0.2085
17336TIP3    H273424   4.002   0.157   0.317  0.1535  0.5681  0.4020
17337TIP3   OH273425   2.598   5.156  12.795  0.2057 -0.5058  0.3236
17337TIP3    H173426   2.560   5.238  12.765 -0.5876 -1.5793 -1.8116
17337TIP3    H273427   2.674   5.182  12.847 -2.0702  1.6517  2.8713
17338TIP3   OH273428   5.474   1.668  13.246 -0.0197 -0.7101 -0.0355
17338TIP3    H173429   5.501   1.726  13.174 -0.2987 -0.6751 -0.1142
17338TIP3    H273430   5.420   1.602  13.203 -1.8464  0.4159  0.3946
17339TIP3   OH273431   4.659   4.743  12.365  0.4694 -0.0063 -0.3926
17339TIP3    H173432   4.591   4.805  12.338  0.8674 -0.3377 -2.2703
17339TIP3    H273433   4.740   4.778  12.329  1.1182 -0.2748  0.7584
17340TIP3   OH273434   0.354   0.592   1.319  0.3734  0.0323 -0.0316
17340TIP3    H173435   0.381   0.683   1.322 -0.3305  0.3145 -1.3208
17340TIP3    H273436   0.416   0.551   1.259  0.2472 -0.1716 -0.0234
17341TIP3   OH273437   0.826   4.914  17.057 -0.1647 -0.6275 -0.2309
17341TIP3    H173438   0.785   4.828  17.049  1.6673 -1.5289 -0.3224
17341TIP3    H273439   0.823   4.934  17.150 -1.4670 -0.3147 -0.3200
17342TIP3   OH273440   0.365   1.708   6.030 -0.0807  0.6654 -0.0424
17342TIP3    H173441   0.364   1.708   5.934  0.3597  0.2369 -0.0537
17342TIP3    H273442   0.343   1.798   6.054  1.7437  1.2972 -0.5807
17343TIP3   OH273443   2.916   5.817  10.639  0.2469  0.1620 -0.3163
17343TIP3    H173444   2.966   5.871  10.578  2.2923  0.3218  1.4129
17343TIP3    H273445   2.921   5.862  10.722  0.4848 -1.7563  0.7774
17344TIP3   OH273446   4.425   0.523   1.532 -0.0827  0.2401 -0.2877
17344TIP3    H173447   4.429   0.428   1.530 -0.9307  0.1942 -2.8154
17344TIP3    H273448   4.469   0.547   1.614 -0.5758 -2.3185  0.8088
17345TIP3   OH273449   5.062   4.040  14.740  0.0118  0.0140  0.1121
17345TIP3    H173450   4.986   3.997  14.779 -0.3648 -0.1729 -0.8070
17345TIP3    H273451   5.048   4.033  14.645 -0.6622  3.1167 -0.1303
17346TIP3   OH273452   5.241   2.834   6.734 -0.9419 -0.0927  0.5427
17346TIP3    H173453   5.179   2.854   6.805 -0.1207 -1.7272  1.7891
17346TIP3    H273454   5.323   2.815   6.779 -0.0807 -0.0632 -0.9517
17347TIP3   OH273455   1.262   1.020  11.862  0.1578  0.2224  0.2150
17347TIP3    H173456   1.225   0.971  11.935  0.4579  0.3647  0.4643
17347TIP3    H273457   1.222   1.106  11.868  0.1462  0.2195  0.1818
17348TIP3   OH273458   3.244   6.602   3.412 -0.0619 -0.0567  0.1800
17348TIP3    H173459   3.310   6.584   3.480 -0.2560  0.4511  0.5104
17348TIP3    H273460   3.196   6.677   3.446 -1.4334 -0.9947  0.3843
17349TIP3   OH273461   6.154   0.104   2.722 -0.5881 -0.0057  0.0586
17349TIP3    H173462   6.071   0.058   2.721 -1.7856  2.0296  0.7663
17349TIP3    H273463   6.176   0.116   2.629  0.1880 -2.6139 -0.1644
17350TIP3   OH273464   5.305   2.561  11.962 -0.1072 -0.3646 -0.2245
17350TIP3    H173465   5.271   2.482  12.005 -0.5530  0.2550  0.5981
17350TIP3    H273466   5.230   2.600  11.918 -0.4876  0.8868  1.4119
17351TIP3   OH273467   3.932   0.441  14.377 -0.2851 -0.2215  0.6641
17351TIP3    H173468   3.858   0.485  14.418  0.5921  1.9283  0.1089
17351TIP3    H273469   3.943   0.360  14.426 -1.0009  0.9339  2.8510
17352TIP3   OH273470   1.804   0.208   6.534 -0.1173  0.3087  1.4530
17352TIP3    H173471   1.730   0.167   6.578 -0.0560 -1.5541 -0.0574
17352TIP3    H273472   1.764   0.268   6.471 -0.3684 -0.6779  0.6538
17353TIP3   OH273473   1.325   0.489  14.779 -0.3441  0.0889  0.5488
17353TIP3    H173474   1.296   0.541  14.853 -0.9722 -0.5692  0.7731
17353TIP3    H273475   1.338   0.401  14.814 -0.5590 -0.2096 -0.1023
17354TIP3   OH273476   6.409   3.395  14.744  0.0724 -0.5666 -0.3991
17354TIP3    H173477   6.498   3.410  14.774 -0.4556 -0.8948  1.4799
17354TIP3    H273478   6.399   3.300  14.745  0.0065 -0.5907 -1.6316
17355TIP3   OH273479   6.610   5.233  11.740  0.0390 -0.0159 -0.2361
17355TIP3    H173480   6.554   5.307  11.716  1.8582  1.0748 -1.3910
17355TIP3    H273481   6.682   5.272  11.790  0.5119 -1.1522  0.0034
17356TIP3   OH273482   0.549   4.892  15.748  0.2618 -0.4765  0.3822
17356TIP3    H173483   0.496   4.882  15.669  0.0983 -0.4805  0.4928
17356TIP3    H273484   0.515   4.971  15.790  2.2505  1.2328 -1.0370
17357TIP3   OH273485   5.695   0.973  14.269  0.1845 -0.2334  0.3379
17357TIP3    H173486   5.770   1.028  14.245 -0.1208  0.1334  0.2008
17357TIP3    H273487   5.663   1.011  14.351 -0.0956 -0.1381  0.1856
17358TIP3   OH273488   3.523   4.377   0.873  0.0604  0.0629  0.3125
17358TIP3    H173489   3.539   4.471   0.878 -0.8898  0.2579 -0.1098
17358TIP3    H273490   3.610   4.337   0.882  0.5050  0.9806  0.1884
17359TIP3   OH273491   1.105   2.370  13.505 -0.9012  0.2720 -0.1613
17359TIP3    H173492   1.167   2.313  13.550 -0.6731  0.2386 -0.5169
17359TIP3    H273493   1.080   2.435  13.571 -0.7039  0.1183  0.0653
17360TIP3   OH273494   1.204   0.427  13.453 -0.9664 -0.1465  0.0963
17360TIP3    H173495   1.149   0.350  13.439  0.2555 -0.7761 -1.5374
17360TIP3    H273496   1.190   0.449  13.545 -2.6374 -1.2766  0.1691
17361TIP3   OH273497   2.652   2.964  17.042  0.0170  0.3365  0.7652
17361TIP3    H173498   2.668   2.876  17.075  0.0390 -1.2499 -3.0493
17361TIP3    H273499   2.724   2.981  16.981 -1.2100  2.0523 -0.3011
17362TIP3   OH273500   5.612   0.274   3.736  0.4290  0.1512  0.6184
17362TIP3    H173501   5.550   0.291   3.807 -1.0052  0.4121 -0.6391
17362TIP3    H273502   5.561   0.227   3.670  1.6268  0.2063 -0.3977
17363TIP3   OH273503   4.640   6.109  16.229  0.3055 -0.2581 -0.0390
17363TIP3    H173504   4.656   6.037  16.168  1.2177  0.5160 -0.7320
17363TIP3    H273505   4.678   6.079  16.312 -0.4505 -1.0854  0.0216
17364TIP3   OH273506   4.045   4.680  16.653  0.3927 -0.1879  0.0745
17364TIP3    H173507   3.976   4.621  16.684  0.3087 -0.4011 -0.5171
17364TIP3    H273508   4.071   4.645  16.568  0.3704  0.5982 -0.2653
17365TIP3   OH273509   2.697   3.379  14.102  0.1520  0.0073  0.1924
17365TIP3    H173510   2.776   3.392  14.154  0.0458  0.9123  0.1380
17365TIP3    H273511   2.668   3.291  14.125  0.2294  0.3031  1.4989
17366TIP3   OH273512   0.129   5.894   1.739  0.1926  0.2928 -0.3883
17366TIP3    H173513   0.092   5.982   1.728  1.2494  0.7308 -0.5584
17366TIP3    H273514   0.135   5.882   1.834 -0.9788 -0.0470 -0.3487
17367TIP3   OH273515   1.663   6.227  11.841 -0.4321  0.5267 -0.5249
17367TIP3    H173516   1.615   6.153  11.804 -0.2020  1.3389 -2.5639
17367TIP3    H273517   1.612   6.304  11.815 -1.3013  1.1156  2.5278
17368TIP3   OH273518   3.018   5.042   1.945  0.1545  0.1319 -0.4427
17368TIP3    H173519   3.087   4.977   1.954 -2.0350 -2.3373 -0.3475
17368TIP3    H273520   3.004   5.074   2.034 -0.5531 -1.3115 -0.0078
17369TIP3   OH273521   4.482   5.318  17.134  0.5842 -0.6347  0.5321
17369TIP3    H173522   4.557   5.291  17.081 -0.1399 -1.0421 -0.3238
17369TIP3    H273523   4.419   5.351  17.070 -0.5710 -1.7238  1.0613
17370TIP3   OH273524   1.376   3.711   3.905 -0.4952 -0.1645  0.0818
17370TIP3    H173525   1.424   3.783   3.864  1.2394 -1.2781  0.0309
17370TIP3    H273526   1.284   3.729   3.885  0.0246  1.0682 -1.4766
17371TIP3   OH273527   3.586   2.688   4.765  0.3947 -0.0385 -0.0088
17371TIP3    H173528   3.577   2.691   4.860 -1.0466  1.9459 -0.1619
17371TIP3    H273529   3.546   2.769   4.734  0.0223 -1.0513 -2.3813
17372TIP3   OH273530   4.193   6.024   5.651 -0.5769  0.6599  0.3595
17372TIP3    H173531   4.223   6.059   5.735 -0.6842  1.3044  0.1318
17372TIP3    H273532   4.245   5.945   5.638 -0.2385  0.8029  0.8177
17373TIP3   OH273533   0.144   2.147  14.585 -0.6011 -0.1153  0.0724
17373TIP3    H173534   0.143   2.054  14.561  0.7164  0.2483 -1.6676
17373TIP3    H273535   0.133   2.193  14.501 -2.2195  1.3257  1.0204
17374TIP3   OH273536   0.329   6.627  11.973 -0.2637  0.2498 -0.2119
17374TIP3    H173537   0.378   6.654  12.051 -0.2110  1.8911 -0.7823
17374TIP3    H273538   0.292   6.542  11.997  1.7747 -0.4444  0.6987
17375TIP3   OH273539   2.517   6.788   5.911 -0.6556  0.5743  0.5034
17375TIP3    H173540   2.533   6.767   5.819 -1.1055  1.9561  0.0842
17375TIP3    H273541   2.428   6.757   5.927 -0.8009  0.8765  0.2927
17376TIP3   OH273542   1.828   3.459  12.901  0.5510 -0.2056 -0.1662
17376TIP3    H173543   1.776   3.533  12.868  1.4451  0.6814  0.3425
17376TIP3    H273544   1.867   3.421  12.823  1.2312  0.7676 -0.3188
17377TIP3   OH273545   0.156   5.433  16.395  0.5307 -0.6753  0.2129
17377TIP3    H173546   0.155   5.430  16.490 -1.8702 -0.0642  0.2690
17377TIP3    H273547   0.135   5.344  16.368 -0.2023 -0.5260  0.2884
17378TIP3   OH273548   1.989   2.457   2.503 -0.1953 -0.0473  0.1350
17378TIP3    H173549   1.926   2.431   2.436  0.1875 -0.5707 -0.0240
17378TIP3    H273550   2.037   2.377   2.524  0.2292  0.2868  0.4557
17379TIP3   OH273551   0.824   6.719   4.277  0.6689 -0.1784  0.2591
17379TIP3    H173552   0.839   6.706   4.370  1.3573 -0.2418  0.1443
17379TIP3    H273553   0.804   6.812   4.268  1.5797  0.0364  0.3535
17380TIP3   OH273554   4.187   3.864   6.604  0.3203 -0.2834 -0.2560
17380TIP3    H173555   4.156   3.876   6.694 -0.6018  0.9848 -0.7092
17380TIP3    H273556   4.279   3.892   6.606  0.0189  0.7261  0.0949
17381TIP3   OH273557   3.770   2.362   2.387 -0.2572  0.0111 -0.1883
17381TIP3    H173558   3.687   2.401   2.414 -0.1981 -0.7507  1.1696
17381TIP3    H273559   3.837   2.424   2.414 -0.0264 -1.5865  3.4839
17382TIP3   OH273560   5.971   6.348  14.137 -0.0241  1.1566 -0.2932
17382TIP3    H173561   5.962   6.256  14.161  1.4952  1.0225 -0.1671
17382TIP3    H273562   5.970   6.396  14.220 -0.2881  1.2100 -0.3262
17383TIP3   OH273563   2.085   1.259  16.364 -0.6205 -0.4570 -0.4253
17383TIP3    H173564   2.009   1.258  16.422  0.8702  3.9078  2.0546
17383TIP3    H273565   2.052   1.296  16.282 -1.6648 -1.5379 -0.5364
17384TIP3   OH273566   2.540   4.854  15.655  0.3554 -0.1630  0.4437
17384TIP3    H173567   2.635   4.841  15.657  0.4929  0.6750  0.0465
17384TIP3    H273568   2.518   4.883  15.743  0.5468  0.0695  0.4186
17385TIP3   OH273569   3.769   6.623   5.724 -0.2162 -0.3223 -0.1905
17385TIP3    H173570   3.766   6.565   5.648 -2.0935 -0.5763  0.0407
17385TIP3    H273571   3.678   6.629   5.754 -0.0241  2.3276  0.1052
17386TIP3   OH273572   2.325   1.937  15.002 -0.1692  0.1997 -0.0912
17386TIP3    H173573   2.278   1.867  14.955  1.7450 -0.2075 -1.5302
17386TIP3    H273574   2.405   1.895  15.032  1.2402  1.8477 -1.3704
17387TIP3   OH273575   1.569   5.520  10.796  0.0926  0.4589  0.3045
17387TIP3    H173576   1.485   5.532  10.840 -0.4240 -1.3846 -0.0762
17387TIP3    H273577   1.559   5.438  10.748  2.2876 -0.0803  0.6654
17388TIP3   OH273578   1.765   4.074   1.579  0.0584 -0.5873  0.4003
17388TIP3    H173579   1.851   4.093   1.542  0.1096  1.0140  1.2628
17388TIP3    H273580   1.784   4.035   1.665 -0.0091  1.6484  1.5027
17389TIP3   OH273581   3.603   5.166   4.521 -0.5451  0.1509 -0.2174
17389TIP3    H173582   3.513   5.182   4.492 -0.0734 -0.0381 -1.8929
17389TIP3    H273583   3.641   5.254   4.528 -1.6001  0.4818  3.3325
17390TIP3   OH273584   5.738   5.056  15.237  0.5159  0.2885  0.1581
17390TIP3    H173585   5.833   5.048  15.228  0.3597 -0.2282 -1.4087
17390TIP3    H273586   5.719   5.016  15.321  1.5485 -1.0218 -0.1876
17391TIP3   OH273587   6.673   6.531  17.223  0.6501 -0.3628 -0.0662
17391TIP3    H173588   6.629   6.542  17.307  0.2922 -2.1971  0.0360
17391TIP3    H273589   6.708   6.442  17.227  0.0345 -0.7402 -2.1217
17392TIP3   OH273590   1.000   1.217  13.521 -0.1226  0.1717 -0.6399
17392TIP3    H173591   1.072   1.243  13.464  0.4229 -0.3935 -0.2175
17392TIP3    H273592   1.037   1.150  13.579 -0.7590  0.4844  0.1498
17393TIP3   OH273593   2.006   4.671  15.389 -0.2540  0.0761 -0.2221
17393TIP3    H173594   2.025   4.578  15.381 -0.6979  0.0797 -1.4187
17393TIP3    H273595   2.007   4.705  15.299  3.2860  1.9430  0.3149
17394TIP3   OH273596   0.961   0.204  16.896 -0.2975 -0.0331  0.1742
17394TIP3    H173597   0.873   0.193  16.858 -0.0947 -0.7593 -0.1032
17394TIP3    H273598   0.954   0.164  16.983 -0.0187 -0.8775 -0.1783
17395TIP3   OH273599   2.771   3.193  14.678 -0.5008 -0.2935 -0.1034
17395TIP3    H173600   2.849   3.201  14.624 -0.1717 -3.0256 -0.1708
17395TIP3    H273601   2.788   3.248  14.755  0.4464  0.9772 -1.1996
17396TIP3   OH273602   4.024   2.069   4.669  0.2918  0.2538  0.4055
17396TIP3    H173603   4.075   2.103   4.596  1.5450 -0.4201  0.9365
17396TIP3    H273604   4.042   2.129   4.741  0.9418 -0.4055  0.7998
17397TIP3   OH273605   4.102   1.501  11.716 -0.0590 -0.4330  0.0710
17397TIP3    H173606   4.172   1.466  11.771 -1.7336 -1.9514  1.3482
17397TIP3    H273607   4.025   1.502  11.772 -1.2381  0.5445 -1.4848
17398TIP3   OH273608   3.884   1.578   4.884 -0.4644  0.3995 -0.1465
17398TIP3    H173609   3.862   1.607   4.972  0.0953  2.5237 -0.6586
17398TIP3    H273610   3.806   1.600   4.832 -0.8575 -0.9910 -0.2001
17399TIP3   OH273611   1.723   5.044   0.084  0.4430  0.0457 -0.0761
17399TIP3    H173612   1.789   5.006   0.141  0.5629  1.2547  0.6316
17399TIP3    H273613   1.640   5.012   0.119  0.5997 -1.0825 -0.6708
17400TIP3   OH273614   4.876   2.260  13.467  0.0753  0.4481 -0.0826
17400TIP3    H173615   4.799   2.203  13.455 -1.1502  2.1803 -0.8817
17400TIP3    H273616   4.939   2.205  13.513 -1.1727 -1.4353 -0.4979
17401TIP3   OH273617   3.636   2.082  16.539 -0.1840  0.5108  0.4919
17401TIP3    H173618   3.553   2.071  16.585 -0.6261 -1.4158 -0.6228
17401TIP3    H273619   3.614   2.063  16.447  1.3796  0.5131  0.0970
17402TIP3   OH273620   4.605   4.115   2.356 -0.1415  0.1862 -0.3544
17402TIP3    H173621   4.668   4.055   2.316 -0.0091  0.0042  0.1292
17402TIP3    H273622   4.626   4.115   2.449  0.1537  1.3307 -0.4012
17403TIP3   OH273623   2.770   2.325   0.455 -0.3276  0.6002 -0.1736
17403TIP3    H173624   2.765   2.239   0.496  0.0732  1.2773  1.3698
17403TIP3    H273625   2.789   2.385   0.527 -4.2065  2.5411 -0.5004
17404TIP3   OH273626   6.491   3.303  15.149 -0.0410 -0.0841  0.7446
17404TIP3    H173627   6.442   3.385  15.159  0.6302  0.4487 -0.1935
17404TIP3    H273628   6.583   3.330  15.147  0.1187 -0.5827 -1.8252
17405TIP3   OH273629   1.775   0.408   2.133  0.3104  0.1897  0.6806
17405TIP3    H173630   1.751   0.501   2.137 -0.3956  0.1252 -1.0359
17405TIP3    H273631   1.864   0.405   2.169  0.4130  1.5655  0.6156
17406TIP3   OH273632   2.474   0.760   5.973  0.0976 -0.5407  0.0426
17406TIP3    H173633   2.504   0.847   5.945  3.9924 -2.2922 -2.0747
17406TIP3    H273634   2.488   0.759   6.067 -2.0273  1.6940  0.4853
17407TIP3   OH273635   4.709   0.421  13.184  0.0247  0.4323  0.2806
17407TIP3    H173636   4.700   0.448  13.092 -1.3505 -1.0553 -0.0722
17407TIP3    H273637   4.677   0.331  13.185  2.8242 -0.6380  1.6985
17408TIP3   OH273638   2.284   6.403   3.849  0.0987  0.0625  0.0567
17408TIP3    H173639   2.350   6.403   3.918 -1.6677 -2.1981  1.9299
17408TIP3    H273640   2.229   6.479   3.869  0.7710  0.6141 -0.1374
17409TIP3   OH273641   4.353   0.137  15.649  0.4220 -0.0772  0.0844
17409TIP3    H173642   4.293   0.171  15.582 -0.8947  1.4557  1.9076
17409TIP3    H273643   4.312   0.056  15.679  1.7157 -1.5127 -1.8008
17410TIP3   OH273644   3.438   3.272   2.274  0.2869  0.2576  0.9815
17410TIP3    H173645   3.378   3.208   2.235 -0.4089  0.6792  1.3225
17410TIP3    H273646   3.380   3.331   2.324  0.8994  1.2264  0.5707
17411TIP3   OH273647   2.991   3.238   5.342  0.3481 -0.2592 -0.0005
17411TIP3    H173648   2.995   3.204   5.253 -1.2379  1.3485 -0.7376
17411TIP3    H273649   3.020   3.329   5.334 -0.5386  0.1279  0.9661
17412TIP3   OH273650   4.742   2.041   3.578  0.2854  0.3861 -0.0919
17412TIP3    H173651   4.711   1.950   3.585  1.2837  0.0101 -0.4556
17412TIP3    H273652   4.773   2.062   3.666 -1.1300  0.8274  0.3232
17413TIP3   OH273653   5.830   4.575   1.580 -0.6171  0.2580 -0.0499
17413TIP3    H173654   5.760   4.633   1.610 -0.9832 -0.4138  0.4062
17413TIP3    H273655   5.847   4.604   1.491 -0.9748  0.9009  0.0779
17414TIP3   OH273656   3.952   2.495  11.692 -0.4099 -0.1456  0.4311
17414TIP3    H173657   3.876   2.521  11.744 -1.4589 -0.9598 -0.6310
17414TIP3    H273658   3.967   2.568  11.632 -0.7520 -0.2317  0.2359
17415TIP3   OH273659   6.326   1.920   0.128  0.1030 -0.6742  0.7261
17415TIP3    H173660   6.313   1.982   0.056  1.0050  0.0905  1.2134
17415TIP3    H273661   6.399   1.865   0.099  1.7070  0.8150  1.8108
17416TIP3   OH273662   0.197   5.158   2.200 -0.7995  0.6857 -0.6629
17416TIP3    H173663   0.189   5.251   2.219  0.3613  0.2475  2.4916
17416TIP3    H273664   0.228   5.155   2.109  0.4004  3.4155 -0.4361
17417TIP3   OH273665   4.613   4.774  13.434  0.1994  0.2082  0.3938
17417TIP3    H173666   4.702   4.746  13.455  0.2605  0.1890  0.1125
17417TIP3    H273667   4.556   4.712  13.481  0.2736 -2.4322 -2.6416
17418TIP3   OH273668   4.887   1.423   2.879  0.3790 -0.0082 -0.4214
17418TIP3    H173669   4.884   1.508   2.923  3.3648  1.3830 -2.5447
17418TIP3    H273670   4.824   1.430   2.808 -0.9657 -0.4688  0.6806
17419TIP3   OH273671   1.687   6.623  14.360 -0.2624  0.7066  0.4111
17419TIP3    H173672   1.742   6.693  14.396 -1.8705  2.8930 -1.1387
17419TIP3    H273673   1.598   6.644  14.390 -0.9777  0.0683 -1.1561
17420TIP3   OH273674   3.006   6.129  14.946 -0.1250  0.0424 -0.4289
17420TIP3    H173675   3.078   6.166  14.997 -2.0042 -0.0244  2.4806
17420TIP3    H273676   3.042   6.046  14.913  1.5610  0.6430 -0.2319
17421TIP3   OH273677   4.620   3.076   5.788 -0.1032 -0.1786 -0.3718
17421TIP3    H173678   4.535   3.095   5.747 -0.8542 -0.0599  1.1560
17421TIP3    H273679   4.628   3.143   5.857 -0.1874 -1.9553  1.4599
17422TIP3   OH273680   1.952   2.169   0.348 -0.7012  0.4500 -0.1056
17422TIP3    H173681   2.048   2.162   0.351 -0.7814 -0.5611  1.5800
17422TIP3    H273682   1.923   2.088   0.305 -0.7958  1.1044 -1.3141
17423TIP3   OH273683   5.628   3.126   4.790  0.0855 -0.6547 -0.4355
17423TIP3    H173684   5.569   3.176   4.732  0.8473  0.6132 -0.1672
17423TIP3    H273685   5.710   3.174   4.786  0.2928 -0.8103  1.3426
17424TIP3   OH273686   0.856   4.967   2.976  0.0989 -0.3265  0.5828
17424TIP3    H173687   0.781   4.959   3.036 -0.0216  2.3090  0.8767
17424TIP3    H273688   0.932   4.949   3.031 -0.0921  0.8876  1.2874
17425TIP3   OH273689   4.980   4.378   1.096 -0.2471  0.1757 -0.3653
17425TIP3    H173690   4.957   4.299   1.047  0.1807  1.0312 -2.0307
17425TIP3    H273691   5.073   4.368   1.117 -0.3208  0.0069 -0.1174
17426TIP3   OH273692   0.935   1.715   3.598  0.3618 -0.2229  0.7486
17426TIP3    H173693   0.914   1.719   3.692 -3.2330  2.5392  0.0284
17426TIP3    H273694   0.863   1.663   3.560  1.7109 -1.2158 -0.5699
17427TIP3   OH273695   0.071   2.681  15.473 -0.0089 -0.1791 -0.0660
17427TIP3    H173696   0.148   2.637  15.436  1.1413  1.5071  0.1927
17427TIP3    H273697   0.024   2.715  15.398  0.1120 -0.2408 -0.1702
17428TIP3   OH273698   0.390   3.631  16.612 -0.3764  0.0714 -0.0717
17428TIP3    H173699   0.299   3.629  16.582 -0.1742  0.0558 -0.7108
17428TIP3    H273700   0.431   3.556  16.569  0.0438  0.3456 -0.1566
17429TIP3   OH273701   1.754   1.778   3.676 -0.2864  0.0034 -0.2012
17429TIP3    H173702   1.763   1.813   3.587 -1.2932  0.5415 -0.1047
17429TIP3    H273703   1.836   1.800   3.719  0.2353 -0.3073 -1.0086
17430TIP3   OH273704   2.562   3.204  17.196  0.1255  0.0656 -0.1549
17430TIP3    H173705   2.547   3.112  17.176 -0.8631  0.1513  0.1305
17430TIP3    H273706   2.605   3.239  17.118  0.1479 -0.5413 -0.4210
17431TIP3   OH273707   3.370   3.038  17.130  0.4537  0.0025 -0.6542
17431TIP3    H173708   3.363   3.117  17.183 -1.6859 -0.8947  0.5160
17431TIP3    H273709   3.322   2.971  17.180  0.3725 -1.4902 -2.6164
17432TIP3   OH273710   6.687   2.699   1.141  0.2338  0.4000  0.2090
17432TIP3    H173711   6.686   2.666   1.231 -1.1539  0.9653  0.4215
17432TIP3    H273712   6.599   2.731   1.126  0.4731  0.4260 -1.3316
17433TIP3   OH273713   0.468   4.130  12.958 -0.5535 -0.3302 -0.3028
17433TIP3    H173714   0.437   4.210  12.916 -2.0092 -0.2908  0.7707
17433TIP3    H273715   0.561   4.146  12.974 -1.2039  2.0366  1.7313
17434TIP3   OH273716   1.238   1.291  14.022 -0.0006  0.2689 -0.2221
17434TIP3    H173717   1.294   1.239  14.080 -0.6153 -0.7886 -0.5545
17434TIP3    H273718   1.159   1.237  14.010 -0.9942  1.6070  0.0361
17435TIP3   OH273719   2.774   0.270  16.442  0.1883  0.3788  0.0813
17435TIP3    H173720   2.754   0.344  16.384  1.0304  0.6886  0.1797
17435TIP3    H273721   2.704   0.206  16.423 -0.7328  1.3170  0.2342
17436TIP3   OH273722   0.666   3.691   3.579 -0.1484  0.7249  0.3066
17436TIP3    H173723   0.592   3.663   3.526 -0.1288  1.0546  0.0994
17436TIP3    H273724   0.694   3.774   3.540  0.6523  0.3535  0.0606
17437TIP3   OH273725   4.535   6.320  16.992  0.3886 -0.4067  0.3987
17437TIP3    H173726   4.535   6.276  17.077  0.7155 -1.7348 -0.2619
17437TIP3    H273727   4.529   6.249  16.928  1.9708  0.4123 -0.7489
17438TIP3   OH273728   6.659   2.909   4.390 -0.1718  0.2992  0.2298
17438TIP3    H173729   6.655   2.816   4.409 -2.7014  0.0734 -0.9845
17438TIP3    H273730   6.636   2.952   4.472  1.7819 -0.0365  1.0136
17439TIP3   OH273731   1.951   5.042   5.129 -0.3119  0.1232 -0.4717
17439TIP3    H173732   2.034   4.999   5.145 -1.1964 -1.7470 -0.6047
17439TIP3    H273733   1.973   5.134   5.114  1.7692 -0.4322 -1.0660
17440TIP3   OH273734   3.539   6.338  15.233 -0.1959 -0.3723 -0.3505
17440TIP3    H173735   3.616   6.286  15.212 -0.0593 -0.8290  1.1927
17440TIP3    H273736   3.556   6.372  15.321 -1.4370  0.1302 -0.2863
17441TIP3   OH273737   3.202   0.050   3.006 -0.2279 -0.7706 -0.3262
17441TIP3    H173738   3.158   0.048   3.091 -0.1335 -0.6148 -0.2740
17441TIP3    H273739   3.262  -0.024   3.008 -2.3875 -2.6904 -1.4168
17442TIP3   OH273740   5.148   6.690   3.215  0.3936 -0.4862  0.0637
17442TIP3    H173741   5.220   6.723   3.270 -0.8500 -0.1864  1.5806
17442TIP3    H273742   5.167   6.596   3.205  0.6132 -0.5644  1.0919
17443TIP3   OH273743   5.646   2.016  12.201 -0.1178 -0.4657 -0.4339
17443TIP3    H173744   5.600   2.091  12.240 -0.6191 -0.7200 -0.5313
17443TIP3    H273745   5.605   1.940  12.241  0.8384 -0.6797  0.1572
17444TIP3   OH273746   4.915   1.980   0.156  0.0057  0.8661 -0.5780
17444TIP3    H173747   4.946   2.064   0.190  1.3693 -0.2981  1.2283
17444TIP3    H273748   4.970   1.962   0.080  2.1738  0.0296  1.0946
17445TIP3   OH273749   2.188   0.299  11.800 -0.4922  0.1609 -1.0106
17445TIP3    H173750   2.223   0.371  11.852  1.6723  1.0934 -3.5279
17445TIP3    H273751   2.102   0.330  11.772 -0.3855  0.9352 -0.5101
17446TIP3   OH273752   1.590   4.832   0.510  0.0712 -0.2883  0.1630
17446TIP3    H173753   1.516   4.845   0.451  1.1039  1.2420 -0.8499
17446TIP3    H273754   1.657   4.891   0.478  1.2047 -0.5152  1.9908
17447TIP3   OH273755   2.937   0.049  13.500 -0.1205 -0.2585  0.1212
17447TIP3    H173756   2.877   0.123  13.492 -1.0777 -0.9507  0.6060
17447TIP3    H273757   2.879  -0.028  13.505  0.8754 -1.2110 -1.9848
17448TIP3   OH273758   0.655   1.257   0.076  0.5574  0.2573  0.3005
17448TIP3    H173759   0.650   1.247   0.171 -0.4915 -1.4595  0.1135
17448TIP3    H273760   0.669   1.350   0.062  0.7763  0.5352  2.1359
17449TIP3   OH273761   4.494   2.147   5.534  0.4034 -0.4452 -0.4250
17449TIP3    H173762   4.458   2.073   5.584  2.0632  0.4303  2.2818
17449TIP3    H273763   4.578   2.116   5.502  1.0633  0.1718  0.6383
17450TIP3   OH273764   1.134   6.644   3.384  0.2105  0.5818  0.3187
17450TIP3    H173765   1.190   6.654   3.462 -0.7946  0.4935  1.0719
17450TIP3    H273766   1.121   6.549   3.377  2.0337  0.3927 -1.2461
17451TIP3   OH273767   0.057   1.143   5.841 -0.0511 -0.0332  0.4185
17451TIP3    H173768  -0.019   1.162   5.896 -0.5096 -1.4131  0.2928
17451TIP3    H273769   0.033   1.178   5.755 -0.9633 -1.2502  0.1431
17452TIP3   OH273770   0.933   6.323   5.500  0.3933 -0.4518  0.4132
17452TIP3    H173771   0.938   6.289   5.589  0.5221 -0.9892  0.2032
17452TIP3    H273772   1.019   6.304   5.462  0.4206 -0.0136  0.2473
17453TIP3   OH273773   6.441   3.630  13.072 -0.2284 -0.1310 -0.3193
17453TIP3    H173774   6.487   3.662  12.994  1.2655  0.4163  0.7412
17453TIP3    H273775   6.454   3.700  13.137 -0.1133 -1.2510  0.8951
17454TIP3   OH273776   2.021   1.758   1.468  0.1808 -0.2618 -0.1925
17454TIP3    H173777   1.948   1.799   1.515 -0.1222  0.6392 -1.4070
17454TIP3    H273778   2.081   1.731   1.537  0.7227  2.8265  0.7297
17455TIP3   OH273779   5.012   1.632  15.045 -0.8183  0.5884 -0.6276
17455TIP3    H173780   5.020   1.715  15.092 -0.2897 -0.7268  1.7599
17455TIP3    H273781   5.098   1.617  15.006  0.5035 -0.6758  2.3974
17456TIP3   OH273782   3.167   3.702   0.872 -0.4939 -0.1504  0.4681
17456TIP3    H173783   3.240   3.735   0.926 -0.5409  1.3310 -0.3037
17456TIP3    H273784   3.093   3.699   0.932 -0.9318  2.9669  0.2548
17457TIP3   OH273785   0.758   5.484   2.986 -0.0470 -0.6963 -0.6225
17457TIP3    H173786   0.817   5.421   2.944 -0.1720 -0.3792 -1.2880
17457TIP3    H273787   0.801   5.568   2.975 -0.9183 -0.3646 -1.7088
17458TIP3   OH273788   6.192   1.218   5.754 -0.0873  0.2934  0.3251
17458TIP3    H173789   6.236   1.193   5.672  2.4720  1.0816  1.3403
17458TIP3    H273790   6.131   1.287   5.728 -0.2958 -0.3679 -1.0770
17459TIP3   OH273791   2.728   1.680   1.587  0.5705 -0.0084  0.4350
17459TIP3    H173792   2.700   1.655   1.499 -0.1651 -1.6385  1.0951
17459TIP3    H273793   2.707   1.773   1.593 -2.0697 -0.4821 -0.1645
17460TIP3   OH273794   2.457   0.143  15.513  0.1882  0.1068 -0.3284
17460TIP3    H173795   2.372   0.160  15.555  0.0591  2.4705 -1.3361
17460TIP3    H273796   2.520   0.194  15.565  0.6078  0.1364 -0.8577
17461TIP3   OH273797   3.830   4.794  14.578 -0.2013 -0.0754  0.1549
17461TIP3    H173798   3.850   4.841  14.659  1.7022  1.2207 -0.9873
17461TIP3    H273799   3.756   4.738  14.601 -0.5674  1.1923  2.4294
17462TIP3   OH273800   0.078   4.987   1.706  0.7550 -0.1137 -0.1577
17462TIP3    H173801   0.027   5.067   1.719 -0.1120 -0.5984 -0.4794
17462TIP3    H273802   0.020   4.929   1.656  2.7771  0.5173 -3.4943
17463TIP3   OH273803   0.941   1.147   5.003  0.4772 -0.3014  0.2909
17463TIP3    H173804   0.998   1.173   4.930 -0.5409  1.2621  0.0151
17463TIP3    H273805   0.982   1.067   5.037  2.2220  0.1730 -0.5607
17464TIP3   OH273806   0.511   6.264   2.173 -0.1895  0.1499 -0.4212
17464TIP3    H173807   0.539   6.290   2.260 -1.3782  0.1089 -0.0052
17464TIP3    H273808   0.498   6.347   2.126  0.6923  0.1669 -0.6549
17465TIP3   OH273809   4.913   3.308   5.806 -0.3951  0.0504  0.2487
17465TIP3    H173810   4.889   3.395   5.774 -0.1959  0.1639  0.4077
17465TIP3    H273811   4.843   3.285   5.867 -0.8996 -0.2641 -0.4298
17466TIP3   OH273812   1.593   6.660   3.921 -0.0241 -0.0793 -0.0205
17466TIP3    H173813   1.612   6.748   3.953 -0.0591  0.0857 -0.4574
17466TIP3    H273814   1.627   6.602   3.990  0.2289  0.2641  0.1459
17467TIP3   OH273815   1.043   4.357   0.725 -0.4014 -0.8878 -0.2768
17467TIP3    H173816   1.096   4.426   0.685 -1.0575  0.2032  0.6819
17467TIP3    H273817   1.087   4.275   0.700  1.1102 -0.0734 -0.3847
17468TIP3   OH273818   4.356   2.170   1.304  0.4441  0.1601  0.9810
17468TIP3    H173819   4.392   2.104   1.245 -0.2319  1.1509 -0.5911
17468TIP3    H273820   4.431   2.203   1.352  1.1516 -0.0496  0.0517
17469TIP3   OH273821   1.922   0.381   5.704  0.4059 -0.2909 -0.1293
17469TIP3    H173822   1.929   0.286   5.693  1.8517 -0.2144 -0.1855
17469TIP3    H273823   1.875   0.411   5.626  0.9807 -0.8568 -0.7137
17470TIP3   OH273824   0.747   2.259  11.214  0.3963  0.1268 -0.4461
17470TIP3    H173825   0.677   2.213  11.168  2.6488 -3.2885 -0.8849
17470TIP3    H273826   0.787   2.315  11.148 -0.5417  0.4081 -0.7818
17471TIP3   OH273827   6.105   0.353  16.910  0.5928  0.8502 -0.1375
17471TIP3    H173828   6.127   0.330  16.820  0.0141 -0.0049 -0.0784
17471TIP3    H273829   6.109   0.449  16.912  0.8488  0.8698 -1.0085
17472TIP3   OH273830   3.286   2.664   1.920  0.4381 -0.2229  0.0560
17472TIP3    H173831   3.294   2.732   1.853 -0.0785 -0.3128 -0.1023
17472TIP3    H273832   3.194   2.638   1.916  0.7975 -1.4939 -0.4304
17473TIP3   OH273833   3.202   3.319  15.894 -0.5213  0.0389  0.0466
17473TIP3    H173834   3.274   3.374  15.927  0.2947 -1.3888  0.7486
17473TIP3    H273835   3.146   3.305  15.970 -0.4063 -0.5607  0.0271
17474TIP3   OH273836   2.708   2.659  11.440  0.0669 -0.2443  0.1635
17474TIP3    H173837   2.689   2.565  11.439 -1.5052  0.0350  0.7463
17474TIP3    H273838   2.790   2.667  11.488  0.3617 -1.3321 -0.1309
17475TIP3   OH273839   1.291   3.249  16.919  0.0444 -0.4906 -0.3484
17475TIP3    H173840   1.272   3.312  16.988 -1.7074 -0.9237 -0.3669
17475TIP3    H273841   1.385   3.254  16.906 -0.0487  2.3058 -0.5481
17476TIP3   OH273842   3.019   1.603   0.286  0.2355 -0.1383 -0.4673
17476TIP3    H173843   3.043   1.686   0.329  1.2292 -0.7661  0.2503
17476TIP3    H273844   2.924   1.601   0.288  0.2237  0.5332  0.4236
17477TIP3   OH273845   5.918   2.471   0.311  0.3578 -0.1687  0.3278
17477TIP3    H173846   5.864   2.431   0.379  0.0634  0.6901  0.6056
17477TIP3    H273847   5.955   2.550   0.352  0.7342 -0.0168 -0.2863
17478TIP3   OH273848   1.106   3.352   1.085  0.1421  0.3943 -0.0264
17478TIP3    H173849   1.165   3.277   1.091  0.6425  0.7391 -0.6067
17478TIP3    H273850   1.018   3.314   1.093  0.3853 -0.2626 -0.4034
17479TIP3   OH273851   0.011   4.096   3.559 -0.5854  0.3009 -0.4046
17479TIP3    H173852   0.029   4.157   3.488 -0.1344 -0.3583 -0.8613
17479TIP3    H273853   0.078   4.115   3.625  0.4247 -0.6033 -1.1289
17480TIP3   OH273854   1.284   1.970  16.566  0.2889  0.0084 -0.6815
17480TIP3    H173855   1.238   2.031  16.625  0.3796  0.5481 -1.1530
17480TIP3    H273856   1.215   1.936  16.508  0.1365 -0.8068 -0.0345
17481TIP3   OH273857   2.642   1.468  13.383 -0.1269  0.2443 -0.2553
17481TIP3    H173858   2.558   1.488  13.426  0.6798  1.1744  0.9533
17481TIP3    H273859   2.688   1.552  13.381  1.8867 -0.7229  1.6135
17482TIP3   OH273860   1.582   3.159  13.028  0.3245 -0.0078  0.5330
17482TIP3    H173861   1.671   3.157  13.063  0.8319 -0.3713 -0.7493
17482TIP3    H273862   1.546   3.073  13.050  0.7778 -0.3828 -0.1678
17483TIP3   OH273863   0.997   3.825   4.502  0.1455  0.4042  0.4629
17483TIP3    H173864   0.977   3.810   4.409  1.4410  1.2092  0.0295
17483TIP3    H273865   0.934   3.892   4.529 -1.3022 -0.9534  0.6396
17484TIP3   OH273866   2.168   0.170  16.614 -0.6280  0.3019 -0.2054
17484TIP3    H173867   2.168   0.137  16.704  0.8398 -0.3975 -0.4447
17484TIP3    H273868   2.140   0.261  16.622 -0.3846  0.2856  0.9768
17485TIP3   OH273869   4.318   4.665   5.193 -0.7017 -0.3370 -0.2121
17485TIP3    H173870   4.290   4.722   5.264  0.1295  0.4440 -0.4831
17485TIP3    H273871   4.411   4.650   5.210 -0.5383 -0.2904 -1.0236
17486TIP3   OH273872   4.577   3.206   0.756 -0.1800  0.2487  0.6711
17486TIP3    H173873   4.596   3.127   0.806  0.1581 -0.4697 -0.5321
17486TIP3    H273874   4.614   3.277   0.808  0.8012 -0.5419  1.0961
17487TIP3   OH273875   2.184   0.836  16.142  0.2979 -0.8598 -0.0351
17487TIP3    H173876   2.107   0.837  16.084 -1.0547 -0.2320  1.6603
17487TIP3    H273877   2.205   0.744  16.152 -0.4315 -1.0637 -0.2928
17488TIP3   OH273878   2.721   1.129   4.255  0.3644 -0.2510 -0.8433
17488TIP3    H173879   2.630   1.159   4.251  0.3910 -0.2164 -1.2821
17488TIP3    H273880   2.750   1.131   4.164  1.1992  0.9375 -0.5627
17489TIP3   OH273881   5.911   5.115   1.416 -0.0885  0.4883 -0.4153
17489TIP3    H173882   5.843   5.184   1.417  0.8591  1.4511 -0.3853
17489TIP3    H273883   5.898   5.069   1.499  0.3984  1.8141  0.4446
17490TIP3   OH273884   1.034   4.284  11.188 -0.1005 -0.0308  0.1318
17490TIP3    H173885   1.112   4.304  11.137 -1.5294  0.2685 -2.0812
17490TIP3    H273886   1.027   4.355  11.251  1.8663 -0.5518  1.0020
17491TIP3   OH273887   4.932   1.331   5.066 -0.1411  0.2000 -0.1661
17491TIP3    H173888   4.840   1.326   5.039  0.1209  1.5253 -1.4490
17491TIP3    H273889   4.929   1.352   5.159 -1.1079 -0.8604  0.0674
17492TIP3   OH273890   4.653   6.659  11.018  0.2978  0.2331  0.0230
17492TIP3    H173891   4.747   6.668  11.037  0.0026  0.5177  1.4710
17492TIP3    H273892   4.650   6.627  10.928  1.8460 -1.8537  0.6388
17493TIP3   OH273893   2.653   4.977   1.173 -0.1095 -0.4846  0.0262
17493TIP3    H173894   2.722   4.997   1.109  0.6153  0.9694  1.2050
17493TIP3    H273895   2.576   5.022   1.140  0.4084  0.7338  0.4341
17494TIP3   OH273896   0.732   2.025  16.308 -0.5762  0.3774  0.2713
17494TIP3    H173897   0.771   2.098  16.355  3.2789 -0.4817 -1.1979
17494TIP3    H273898   0.737   1.952  16.369  1.3565  0.0287 -0.2225
17495TIP3   OH273899   1.303   1.568  14.009  0.1988  0.5595 -0.0659
17495TIP3    H173900   1.261   1.483  14.020 -0.4338  0.8903  0.0955
17495TIP3    H273901   1.380   1.564  14.067  0.3162  0.0122 -0.2473
17496TIP3   OH273902   1.807   3.086  11.065 -0.3455 -0.0542 -0.2386
17496TIP3    H173903   1.736   3.110  11.006  1.1909 -0.0387 -2.1786
17496TIP3    H273904   1.835   2.999  11.035 -0.1925 -0.5039  1.1398
17497TIP3   OH273905   3.777   0.906  13.699  0.6338  0.0775 -0.4306
17497TIP3    H173906   3.706   0.855  13.661 -1.3043  1.4199  1.1559
17497TIP3    H273907   3.762   0.995  13.669  2.4496  0.1915 -1.1007
17498TIP3   OH273908   0.821   4.906  15.488  0.0482  0.9525 -0.2286
17498TIP3    H173909   0.735   4.878  15.459 -0.5918  1.5891  0.9666
17498TIP3    H273910   0.809   4.928  15.581  1.4540  1.2035 -0.0872
17499TIP3   OH273911   5.302   0.608   3.289  0.2667 -0.3409 -0.4082
17499TIP3    H173912   5.389   0.597   3.326  0.1773  0.3655  0.0354
17499TIP3    H273913   5.274   0.694   3.319 -1.2424 -1.1996  0.7929
17500TIP3   OH273914   1.938   0.739  11.648  0.8031  0.3338  0.1893
17500TIP3    H173915   1.867   0.681  11.619 -0.9126  1.7318  1.3878
17500TIP3    H273916   1.979   0.769  11.566 -0.5763  0.1860 -0.5808
17501TIP3   OH273917   0.161   5.023  12.660 -0.4562 -0.0429 -0.1467
17501TIP3    H173918   0.146   5.101  12.607 -0.3477  0.6307  0.7981
17501TIP3    H273919   0.089   5.022  12.723 -0.2401 -0.4818  0.1009
17502TIP3   OH273920   1.247   1.379  10.522  0.5911  0.0198 -0.6851
17502TIP3    H173921   1.213   1.439  10.589  2.8220  1.8739 -1.0663
17502TIP3    H273922   1.335   1.356  10.554  0.1480 -2.3541 -1.0345
17503TIP3   OH273923   3.508   3.301   3.972  0.0516 -0.1392 -0.3981
17503TIP3    H173924   3.596   3.313   3.935  0.2797 -3.3607 -1.2855
17503TIP3    H273925   3.449   3.311   3.897 -0.0518 -0.6291 -0.3881
17504TIP3   OH273926   2.892   5.662  12.318 -0.3169  0.0927 -0.1722
17504TIP3    H173927   2.948   5.624  12.250 -1.0819  0.0610 -0.8056
17504TIP3    H273928   2.833   5.721  12.270 -1.7272 -0.9045  0.2749
17505TIP3   OH273929   6.740   0.401   4.938 -0.6439  0.0780 -0.5702
17505TIP3    H173930   6.698   0.445   4.864 -1.5218  0.7733  0.3143
17505TIP3    H273931   6.796   0.468   4.977 -0.7982 -0.0508 -0.1273
17506TIP3   OH273932   0.089   5.441  13.088  0.1710 -0.3655 -0.8468
17506TIP3    H173933   0.105   5.535  13.080 -0.5277 -0.2385 -0.8443
17506TIP3    H273934   0.074   5.412  12.999  0.5223 -0.5025 -0.8614
17507TIP3   OH273935   3.954   2.558   2.523 -0.3611  0.1283 -0.2156
17507TIP3    H173936   3.887   2.616   2.560  1.7317  1.2655  2.0692
17507TIP3    H273937   3.998   2.612   2.458  0.7328  0.7589  0.9887
17508TIP3   OH273938   5.404   4.398  17.018  0.5262  0.3738  0.2280
17508TIP3    H173939   5.341   4.445  17.073 -1.7430 -0.7372 -1.2931
17508TIP3    H273940   5.395   4.438  16.931  1.3719 -0.3159 -0.1999
17509TIP3   OH273941   0.443   0.132   2.623 -0.0079 -0.2374 -0.0282
17509TIP3    H173942   0.387   0.076   2.678 -2.5079 -0.2903 -2.4054
17509TIP3    H273943   0.433   0.096   2.535  1.2757  1.7562 -1.0548
17510TIP3   OH273944   6.503   4.927  16.362 -0.6148 -0.0604 -0.5271
17510TIP3    H173945   6.466   5.005  16.320 -0.6864  0.1461 -0.0875
17510TIP3    H273946   6.576   4.960  16.413 -1.1718 -0.1521  0.3509
17511TIP3   OH273947   0.730   3.699  12.793  0.2507  0.0663 -0.0964
17511TIP3    H173948   0.688   3.739  12.717  1.0667  1.3642  0.1071
17511TIP3    H273949   0.774   3.621  12.758 -0.9918 -0.4348 -0.5855
17512TIP3   OH273950   4.799   5.201   4.209  0.0505  0.5532  0.5096
17512TIP3    H173951   4.849   5.119   4.210  0.7561  0.8686  3.8965
17512TIP3    H273952   4.857   5.264   4.166  0.7174 -0.0869  0.4468
17513TIP3   OH273953   6.201   6.265  13.849 -0.4490 -0.1453  0.3630
17513TIP3    H173954   6.209   6.340  13.790  1.3146 -0.1324  0.5913
17513TIP3    H273955   6.107   6.243  13.846 -0.9421  1.8045 -0.0003
17514TIP3   OH273956   4.226   4.349  14.433 -0.0482  0.3407  0.7235
17514TIP3    H173957   4.281   4.279  14.467 -0.8133 -0.9972 -0.7016
17514TIP3    H273958   4.260   4.365  14.344 -2.4248 -1.1234 -0.5323
17515TIP3   OH273959   2.736   4.568  15.091 -0.3599  0.3153 -0.8120
17515TIP3    H173960   2.670   4.606  15.148 -0.2790  0.1631 -0.6143
17515TIP3    H273961   2.687   4.530  15.018 -0.4289  0.9210 -1.0821
17516TIP3   OH273962   1.091   4.432   3.943  0.7351 -0.1406  0.3400
17516TIP3    H173963   1.087   4.491   3.868  1.5420  0.7598  0.9814
17516TIP3    H273964   1.000   4.410   3.962  0.5421 -1.1038 -1.4302
17517TIP3   OH273965   6.001   1.399   2.244  0.4837  0.4972 -0.0318
17517TIP3    H173966   6.024   1.466   2.179 -0.9471  3.0334  1.8909
17517TIP3    H273967   6.073   1.401   2.307 -0.0881  1.1034  0.6243
17518TIP3   OH273968   0.141   1.580   3.921 -0.5634 -0.8319 -0.2580
17518TIP3    H173969   0.116   1.672   3.917  0.7937 -0.4814 -2.0579
17518TIP3    H273970   0.140   1.559   4.014  0.9986  1.5812  0.3980
17519TIP3   OH273971   5.234   1.657   1.221  0.0085 -0.1586  0.0977
17519TIP3    H173972   5.307   1.611   1.182 -0.7566  0.2280 -1.9114
17519TIP3    H273973   5.179   1.682   1.147 -1.8144  0.1495  1.4801
17520TIP3   OH273974   1.445   2.479   3.985  0.1782  0.4723  0.0746
17520TIP3    H173975   1.366   2.456   3.936  0.5786 -2.0373  0.4358
17520TIP3    H273976   1.499   2.527   3.923 -0.6741  0.1733 -0.9321
17521TIP3   OH273977   2.002   4.369   2.419  0.2001 -0.0637  0.0080
17521TIP3    H173978   2.093   4.396   2.409  0.0026  0.5846 -0.0836
17521TIP3    H273979   2.001   4.314   2.497  0.8493 -0.9466 -0.5810
17522TIP3   OH273980   0.490   3.806   4.576  0.3024 -0.4326 -0.0666
17522TIP3    H173981   0.470   3.897   4.554  0.0680 -0.2566  0.8406
17522TIP3    H273982   0.566   3.811   4.633 -0.7342 -0.6513  1.4084
17523TIP3   OH273983   0.442   4.305  13.388  0.3985 -0.4712 -0.4231
17523TIP3    H173984   0.364   4.249  13.388  0.1224 -0.0960 -0.0017
17523TIP3    H273985   0.419   4.377  13.330  1.2734 -1.4710 -2.1104
17524TIP3   OH273986   4.483   4.143  10.842  0.0481  0.3901  0.1275
17524TIP3    H173987   4.462   4.050  10.848 -0.4552  0.5481  0.8520
17524TIP3    H273988   4.577   4.147  10.860  0.0407  0.0420  0.2566
17525TIP3   OH273989   0.333   3.897   5.156 -0.1827  0.2105  0.5371
17525TIP3    H173990   0.356   3.923   5.245 -0.5364  0.3102  0.6032
17525TIP3    H273991   0.365   3.968   5.101  0.0253  0.1548  0.5878
17526TIP3   OH273992   5.629   5.276   1.942 -0.1563  0.0420 -0.3151
17526TIP3    H173993   5.717   5.300   1.913  0.3404 -1.0587  0.2185
17526TIP3    H273994   5.637   5.265   2.037 -0.2705 -2.3662 -0.5225
17527TIP3   OH273995   1.785   0.980  10.651 -0.1569  0.3709 -0.0702
17527TIP3    H173996   1.694   1.007  10.664 -0.3345 -0.1729 -0.1682
17527TIP3    H273997   1.815   1.030  10.576 -0.8315 -0.5011 -0.9491
17528TIP3   OH273998   1.624   2.767  16.388 -0.1221 -0.1100  0.2082
17528TIP3    H173999   1.568   2.689  16.390  0.1269 -0.3695 -1.3089
17528TIP3    H274000   1.639   2.783  16.294  1.8825  0.2898  0.5502
17529TIP3   OH274001   0.671   4.187  16.854  0.0088  0.1707  0.2379
17529TIP3    H174002   0.642   4.246  16.923  1.1318 -1.2863  2.0362
17529TIP3    H274003   0.590   4.154  16.815 -0.6617  2.9720 -1.0095
17530TIP3   OH274004   0.810   5.916   3.309 -0.5897  0.0871  0.0362
17530TIP3    H174005   0.785   5.890   3.398  0.5963  0.1421  0.3994
17530TIP3    H274006   0.829   5.833   3.265 -1.4293  0.0410 -0.2610
17531TIP3   OH274007   0.822   2.752   1.409 -0.4303  0.1398 -0.3359
17531TIP3    H174008   0.773   2.722   1.333  0.8396 -0.6441 -0.8844
17531TIP3    H274009   0.913   2.754   1.380  0.1224 -0.4707  1.2317
17532TIP3   OH274010   0.896   1.313  15.949 -0.1473 -0.4057 -0.1167
17532TIP3    H174011   0.861   1.331  16.036  1.0990 -1.1127  0.5479
17532TIP3    H274012   0.874   1.221  15.934 -1.0861 -0.0762 -0.9263
17533TIP3   OH274013   1.687   0.635   6.076 -0.2623  0.0587  0.2824
17533TIP3    H174014   1.634   0.641   5.997  0.4683  0.7243 -0.1750
17533TIP3    H274015   1.652   0.703   6.134 -0.5453 -0.1690  0.3814
17534TIP3   OH274016   0.173   1.681  16.283  0.0584 -0.0569 -0.6420
17534TIP3    H174017   0.217   1.621  16.342  0.0144 -0.0548 -0.6070
17534TIP3    H274018   0.189   1.768  16.319 -1.7338 -0.1766  0.5780
17535TIP3   OH274019   6.514   6.529  14.078  0.0979 -0.0520  0.6953
17535TIP3    H174020   6.466   6.596  14.028  0.2682  1.1736  2.0990
17535TIP3    H274021   6.446   6.471  14.111 -0.1573  0.0583  0.3749
17536TIP3   OH274022   0.462   2.993  14.586  0.7903 -0.8813 -0.5904
17536TIP3    H174023   0.407   2.961  14.514  0.9788 -1.6819 -0.3904
17536TIP3    H274024   0.491   3.080  14.557  1.3329 -1.4197 -1.7503
17537TIP3   OH274025   1.329   0.137   1.314  0.8848  0.5474  0.3254
17537TIP3    H174026   1.335   0.059   1.259 -0.1084  0.7328 -0.0785
17537TIP3    H274027   1.299   0.105   1.398 -0.4182  0.5751 -0.1078
17538TIP3   OH274028   1.414   5.891   4.943  0.2184 -0.3439 -0.7833
17538TIP3    H174029   1.354   5.965   4.956  1.5125  0.5850  0.2077
17538TIP3    H274030   1.397   5.862   4.853  0.1896  1.6647 -1.4857
17539TIP3   OH274031   0.025   4.084  13.083  0.4895 -0.1659 -0.4114
17539TIP3    H174032   0.039   4.013  13.020  2.2725  0.8490 -1.2319
17539TIP3    H274033   0.004   4.160  13.029  0.9040  0.4610  0.2950
17540TIP3   OH274034   3.836   4.266  13.692  0.0681  0.2783 -0.0469
17540TIP3    H174035   3.877   4.341  13.735  0.3273  0.6414 -0.9094
17540TIP3    H274036   3.818   4.205  13.763  2.4510 -0.0597  0.3503
17541TIP3   OH274037   4.427   2.398   0.591  0.8081 -0.0392  0.0984
17541TIP3    H174038   4.410   2.429   0.502  1.2060 -0.3168 -0.0767
17541TIP3    H274039   4.355   2.337   0.609  1.0357 -0.4122 -0.2474
17542TIP3   OH274040   4.476   2.711  15.492 -0.3050 -0.0409  0.1970
17542TIP3    H174041   4.384   2.736  15.502 -0.3039  0.0699 -0.0774
17542TIP3    H274042   4.494   2.657  15.569 -0.4922  0.2551  0.4495
17543TIP3   OH274043   6.334   3.498   1.739 -0.2588  0.1220  0.0357
17543TIP3    H174044   6.362   3.406   1.734 -1.1063 -0.2503  1.5703
17543TIP3    H274045   6.335   3.518   1.833 -3.6007  0.5382  0.1047
17544TIP3   OH274046   1.135   2.750   0.845 -0.1195 -0.3489 -0.7077
17544TIP3    H174047   1.225   2.777   0.864 -0.4436 -0.9453  2.1338
17544TIP3    H274048   1.118   2.678   0.906 -3.4210  1.5619  0.8849
17545TIP3   OH274049   5.692   6.362  11.513 -0.5643  0.2392  0.2297
17545TIP3    H174050   5.760   6.415  11.471 -1.5611  1.6054  0.2525
17545TIP3    H274051   5.662   6.303  11.443 -0.0961  0.3561 -0.0771
17546TIP3   OH274052   0.241   0.645   1.717 -0.2587 -0.1370  0.3547
17546TIP3    H174053   0.164   0.595   1.691  0.4214 -0.5143 -1.0723
17546TIP3    H274054   0.312   0.607   1.665  0.6783  0.9174  0.8271
17547TIP3   OH274055   4.711   4.675  13.035 -0.2085 -0.0652  0.3153
17547TIP3    H174056   4.781   4.637  12.982  0.6597  0.5571  0.9581
17547TIP3    H274057   4.756   4.743  13.087 -1.7941  2.3929 -1.3333
17548TIP3   OH274058   6.034   0.955  15.565  0.0009 -0.3747  0.4363
17548TIP3    H174059   5.977   0.946  15.490 -0.0566 -1.2772  0.5826
17548TIP3    H274060   6.117   0.986  15.529 -0.7025  1.5247  0.2858
17549TIP3   OH274061   3.298   5.057   0.124 -0.6584  0.0502  0.3997
17549TIP3    H174062   3.237   5.082   0.055  2.0917  0.5227 -2.0715
17549TIP3    H274063   3.345   4.981   0.089 -0.3976 -0.9021  2.5957
17550TIP3   OH274064   6.689   6.079  15.934  0.1666  0.8740 -0.3450
17550TIP3    H174065   6.668   6.127  15.854 -1.7699  1.2899  0.3601
17550TIP3    H274066   6.770   6.033  15.914  0.0161  1.4023 -2.3570
17551TIP3   OH274067   4.801   6.317   0.322 -0.6708 -0.2646  0.5638
17551TIP3    H174068   4.710   6.347   0.329 -1.1202 -1.5725  0.5543
17551TIP3    H274069   4.801   6.256   0.248  0.8590  1.8980 -1.3666
17552TIP3   OH274070   4.907   3.225   2.035  0.3706 -0.4866 -0.0743
17552TIP3    H174071   4.875   3.142   2.071  0.3068 -0.7235 -0.6615
17552TIP3    H274072   4.995   3.235   2.072  0.7543 -1.2959 -0.7414
17553TIP3   OH274073   2.909   4.598   1.075 -0.0677 -0.2086 -0.6832
17553TIP3    H174074   2.988   4.611   1.023 -0.5483  0.8312 -1.1913
17553TIP3    H274075   2.859   4.532   1.026 -1.0291  1.5667 -2.2103
17554TIP3   OH274076   2.535   1.181  16.210  0.0165 -0.1183  0.4972
17554TIP3    H174077   2.478   1.142  16.276  0.7273  0.5184  1.5159
17554TIP3    H274078   2.521   1.276  16.219  0.7333  0.0121  0.3025
17555TIP3   OH274079   0.587   1.745   6.389  0.0752 -0.1234 -1.2120
17555TIP3    H174080   0.513   1.792   6.427  0.4811  1.1185 -1.8918
17555TIP3    H274081   0.548   1.692   6.319 -0.2341  0.1742 -1.2705
17556TIP3   OH274082   3.786   5.721   5.310 -0.8620 -0.2065  0.6944
17556TIP3    H174083   3.746   5.798   5.270 -0.1791 -0.6264 -0.8293
17556TIP3    H274084   3.815   5.667   5.237 -1.0073 -1.7626  1.7361
17557TIP3   OH274085   5.972   4.871   5.100  0.1860  0.5250  0.3000
17557TIP3    H174086   5.914   4.947   5.095  1.6744  1.7806  1.3000
17557TIP3    H274087   6.052   4.899   5.057  1.8280  0.6476  3.1483
17558TIP3   OH274088   1.603   0.476   3.452 -0.1096 -0.2084  0.2477
17558TIP3    H174089   1.584   0.403   3.511  0.5532 -0.8329 -0.2959
17558TIP3    H274090   1.693   0.501   3.473 -0.0408 -0.1153 -0.1531
17559TIP3   OH274091   6.101   3.192   2.700  0.8083  0.0664 -0.2795
17559TIP3    H174092   6.084   3.109   2.744  0.0283  0.6989  0.6526
17559TIP3    H274093   6.186   3.180   2.656 -0.2624 -1.9335 -1.9487
17560TIP3   OH274094   1.260   6.456   1.988 -0.4996  0.2326 -0.9137
17560TIP3    H174095   1.272   6.550   1.975 -3.7568  1.0895  1.1695
17560TIP3    H274096   1.197   6.430   1.921 -0.7138 -0.1406 -0.5725
17561TIP3   OH274097   5.876   4.163   5.985  0.5932 -0.4590  0.1089
17561TIP3    H174098   5.948   4.103   6.002  0.4943 -0.7207 -0.3886
17561TIP3    H274099   5.906   4.247   6.019  0.5320 -0.8916  1.2760
17562TIP3   OH274100   5.660   2.401  14.677 -0.1684 -0.9198 -0.1249
17562TIP3    H174101   5.725   2.459  14.638 -0.9832  0.8433  1.0421
17562TIP3    H274102   5.681   2.315  14.641  2.2278 -0.2613 -0.4892
17563TIP3   OH274103   1.958   2.356   4.378 -0.4948  0.1390 -0.0244
17563TIP3    H174104   2.044   2.354   4.420  0.4316  0.7986 -1.7705
17563TIP3    H274105   1.918   2.437   4.411  0.1664  0.5953 -0.3202
17564TIP3   OH274106   0.474   1.884  11.738 -0.1205  0.1649  0.0517
17564TIP3    H174107   0.414   1.855  11.807 -0.7995  1.1266 -0.1027
17564TIP3    H274108   0.561   1.871  11.775 -0.4376 -0.7271  0.5041
17565TIP3   OH274109   0.527   2.144   6.644 -0.2037  0.6698 -0.4086
17565TIP3    H174110   0.486   2.225   6.674  1.2681  0.3228  2.8980
17565TIP3    H274111   0.615   2.170   6.616  0.4179  0.2389  1.0404
17566TIP3   OH274112   2.162   6.395   3.028 -0.1136  0.6074  0.2885
17566TIP3    H174113   2.146   6.392   2.934  2.3056  0.8180 -0.1816
17566TIP3    H274114   2.179   6.304   3.052  0.6986  0.7393  0.2307
17567TIP3   OH274115   4.705   1.498  16.931  0.3165  0.2326 -0.1976
17567TIP3    H174116   4.676   1.451  17.010 -0.1548  2.0850  0.7982
17567TIP3    H274117   4.800   1.503  16.940  0.3671 -0.4676 -0.2912
17568TIP3   OH274118   2.971   6.696  15.461 -0.6934  0.1323 -0.2482
17568TIP3    H174119   2.991   6.638  15.534 -0.8461  0.9987  0.5016
17568TIP3    H274120   3.008   6.652  15.385  0.3340 -0.3241  0.4903
17569TIP3   OH274121   3.218   4.089  12.333 -0.4478  0.5640  0.0431
17569TIP3    H174122   3.194   4.041  12.254 -2.3579  1.2515  0.1592
17569TIP3    H274123   3.176   4.041  12.405  2.4137 -0.8851  0.8984
17570TIP3   OH274124   0.889   1.135  14.470  0.6445 -0.3265 -0.3436
17570TIP3    H174125   0.945   1.172  14.538 -0.6226 -1.1458  1.2308
17570TIP3    H274126   0.802   1.134  14.509 -0.0504 -1.2665 -1.8238
17571TIP3   OH274127   5.304   3.505   2.734  0.7162  0.3641 -0.6362
17571TIP3    H174128   5.231   3.566   2.730  1.0907  0.7537 -2.5688
17571TIP3    H274129   5.379   3.556   2.701  1.2481 -0.8186 -1.3049
17572TIP3   OH274130   2.176   0.371   4.958  0.3264 -0.1775 -0.0532
17572TIP3    H174131   2.213   0.355   4.872  0.5225 -1.3962  0.2481
17572TIP3    H274132   2.147   0.286   4.989  1.5787 -0.0344  1.6902
17573TIP3   OH274133   1.434   2.204  11.908 -0.1929 -0.1136 -0.0283
17573TIP3    H174134   1.463   2.114  11.927 -0.3593 -0.2116 -0.2364
17573TIP3    H274135   1.381   2.196  11.829  0.0810  0.2216 -0.2441
17574TIP3   OH274136   3.983   2.107   6.568 -0.5762  0.4725  0.0212
17574TIP3    H174137   3.893   2.102   6.537 -0.3766  0.6735 -0.6064
17574TIP3    H274138   3.977   2.149   6.654 -1.1842 -0.5296  0.4858
17575TIP3   OH274139   0.332   6.520  14.649 -0.1863  0.0507 -0.7231
17575TIP3    H174140   0.394   6.541  14.718 -0.2985  1.0581 -0.9148
17575TIP3    H274141   0.250   6.563  14.675 -0.7706 -1.0998 -0.5698
17576TIP3   OH274142   3.268   3.777   6.417  0.0921  0.1757  0.0816
17576TIP3    H174143   3.192   3.782   6.359  0.4508  1.6397 -0.3105
17576TIP3    H274144   3.234   3.793   6.504 -0.0042  1.3442 -0.1549
17577TIP3   OH274145   1.707   0.675  11.237  0.1332 -0.6532  0.2648
17577TIP3    H174146   1.782   0.641  11.189  0.9796  1.8586 -0.3390
17577TIP3    H274147   1.632   0.626  11.203  1.1574 -1.3769 -1.0466
17578TIP3   OH274148   1.207   1.436   5.659 -0.3053  0.4847 -0.4258
17578TIP3    H174149   1.301   1.435   5.646 -0.1399  3.0556  0.1732
17578TIP3    H274150   1.181   1.526   5.644 -1.8863  1.1276  4.4265
17579TIP3   OH274151   5.177   6.262  11.203  0.0947  1.0791  0.4402
17579TIP3    H174152   5.139   6.226  11.122  1.7658 -0.6734  0.3639
17579TIP3    H274153   5.227   6.338  11.173  0.1842  0.8186 -0.0913
17580TIP3   OH274154   3.978   2.974  15.714 -0.3102  0.3066 -0.1988
17580TIP3    H174155   3.970   3.023  15.796 -2.1809 -0.1522 -0.0536
17580TIP3    H274156   3.898   2.921  15.710  0.9320 -1.6024 -1.0876
17581TIP3   OH274157   3.901   3.374  12.256 -0.5487  0.5303 -0.2800
17581TIP3    H174158   3.906   3.361  12.161 -0.3822 -0.1131 -0.1863
17581TIP3    H274159   3.976   3.430  12.277  1.3022 -1.8577 -0.1093
17582TIP3   OH274160   3.351   5.285  11.498 -0.0464 -0.3308  0.1077
17582TIP3    H174161   3.320   5.211  11.445 -0.4989  0.1278 -0.2831
17582TIP3    H274162   3.393   5.343  11.435 -0.5193  0.1851  0.2546
17583TIP3   OH274163   0.948   5.142  15.890 -0.1428 -0.0360  0.0644
17583TIP3    H174164   0.856   5.161  15.906  0.0274  0.6640  0.2693
17583TIP3    H274165   0.975   5.209  15.827  0.3532  0.0894  0.4083
17584TIP3   OH274166   5.582   4.402   5.844  0.8089 -0.0709  0.0314
17584TIP3    H174167   5.618   4.391   5.932  2.3519  1.6901 -0.3225
17584TIP3    H274168   5.517   4.472   5.854 -0.3573 -1.1247  0.0774
17585TIP3   OH274169   2.037   2.149   1.754  0.6181  1.0554  0.0403
17585TIP3    H174170   1.945   2.170   1.768 -0.3660 -0.9645 -2.5151
17585TIP3    H274171   2.070   2.123   1.840 -1.3219  1.3425  0.9058
17586TIP3   OH274172   4.649   3.367  11.784 -0.3158  0.2782 -0.2334
17586TIP3    H174173   4.687   3.432  11.725 -0.6813  0.8290  0.1392
17586TIP3    H274174   4.718   3.351  11.849 -0.7475  1.3703  0.5146
17587TIP3   OH274175   1.209   1.584  15.624  0.0768 -0.5988 -0.4337
17587TIP3    H174176   1.224   1.629  15.707 -1.5677  0.6297 -0.7479
17587TIP3    H274177   1.128   1.535  15.638  0.7098 -1.7746 -0.7848
17588TIP3   OH274178   5.431   3.390   1.559  0.2309  0.0864  0.2015
17588TIP3    H174179   5.394   3.327   1.621  1.1571 -0.8778 -0.1905
17588TIP3    H274180   5.517   3.354   1.538  0.7452  1.4542 -0.1080
17589TIP3   OH274181   0.643   3.471  16.423  0.6413 -0.0132 -0.2976
17589TIP3    H174182   0.721   3.458  16.477  0.2207  0.0183  0.3262
17589TIP3    H274183   0.663   3.548  16.370  0.5976  0.7046  0.6892
17590TIP3   OH274184   6.549   5.519   3.859 -0.0320  0.0863  0.2768
17590TIP3    H174185   6.491   5.442   3.857  2.1147 -1.6046  0.0721
17590TIP3    H274186   6.579   5.524   3.950 -1.4822  1.7968  0.7156
17591TIP3   OH274187   3.451   1.664  13.488 -0.4845 -0.1493  0.6165
17591TIP3    H174188   3.484   1.587  13.441 -0.2783 -0.1713  0.7944
17591TIP3    H274189   3.528   1.720  13.497 -0.8209  0.4909 -0.3149
17592TIP3   OH274190   4.586   5.099  13.196 -0.1436  0.3909  0.0196
17592TIP3    H174191   4.629   5.125  13.277  0.0691 -0.3409  0.1574
17592TIP3    H274192   4.504   5.059  13.225 -1.2086  2.2742 -0.2713
17593TIP3   OH274193   6.052   1.113  13.631 -0.6018 -0.2911 -0.0168
17593TIP3    H174194   6.127   1.123  13.689 -1.5333 -0.7659  1.3078
17593TIP3    H274195   5.978   1.150  13.680 -1.3439 -0.3491 -1.0504
17594TIP3   OH274196   1.743   2.131  13.403  0.5859  0.4987  0.1081
17594TIP3    H174197   1.761   2.164  13.316  1.4287  1.6443  0.6917
17594TIP3    H274198   1.683   2.196  13.441  0.1924 -0.0102  0.3673
17595TIP3   OH274199   0.069   4.457   1.235  0.7443  0.0904 -0.0588
17595TIP3    H174200   0.076   4.398   1.311 -1.0391 -0.0254  0.0469
17595TIP3    H274201   0.114   4.410   1.165  1.1435 -0.4552  0.5434
17596TIP3   OH274202   1.412   1.396  14.239  0.0149  0.4691 -0.2516
17596TIP3    H174203   1.333   1.381  14.291  0.2550  1.0780  0.2950
17596TIP3    H274204   1.431   1.311  14.199  0.2851 -0.2379  1.3011
17597TIP3   OH274205   6.124   0.734   1.468 -0.0946 -0.4787 -0.0833
17597TIP3    H174206   6.114   0.653   1.418 -0.3650 -1.0910  0.9285
17597TIP3    H274207   6.038   0.749   1.507 -0.7826  1.6329 -2.1475
17598TIP3   OH274208   2.085   4.804   3.832  0.1109 -0.4907  0.5329
17598TIP3    H174209   2.092   4.795   3.737  0.8716 -0.3387  0.5698
17598TIP3    H274210   2.128   4.726   3.868  2.3413  0.7699  0.7753
17599TIP3   OH274211   0.999   2.926   1.869  0.3345  0.0394  0.1996
17599TIP3    H174212   0.937   2.998   1.854  0.4963  0.4480  1.3560
17599TIP3    H274213   0.977   2.861   1.803 -0.9987  0.3914  0.2662
17600TIP3   OH274214   2.897   0.720   2.201  0.0844 -0.3629  0.0522
17600TIP3    H174215   2.953   0.657   2.248 -1.1350 -0.1021  1.9536
17600TIP3    H274216   2.955   0.794   2.183  1.1591 -1.3843 -0.9085
17601TIP3   OH274217   1.972   0.406  13.480 -0.1468  0.0482 -0.4701
17601TIP3    H174218   1.909   0.393  13.408 -1.2802 -0.1726  0.5384
17601TIP3    H274219   1.974   0.323  13.526  1.0420 -0.0033 -0.5795
17602TIP3   OH274220   4.108   0.569   2.384  0.4108  0.4393 -0.1572
17602TIP3    H174221   4.045   0.559   2.456 -0.2143  3.3697 -0.2002
17602TIP3    H274222   4.193   0.559   2.426  0.0193 -0.3526  0.5013
17603TIP3   OH274223   1.341   2.975  11.574 -0.0298  0.2027  0.0513
17603TIP3    H174224   1.337   2.883  11.549 -0.4191  0.4287 -0.7492
17603TIP3    H274225   1.431   3.002  11.555  0.3109 -0.2117  1.0380
17604TIP3   OH274226   3.168   3.753  13.677 -0.1159 -0.0899  0.6740
17604TIP3    H174227   3.261   3.766  13.662 -0.2305 -1.3682 -1.5277
17604TIP3    H274228   3.163   3.673  13.729  0.0179 -0.1214  0.6399
17605TIP3   OH274229   4.925   1.614   2.490  0.2797 -0.3697 -0.4750
17605TIP3    H174230   4.905   1.708   2.480  0.5545 -0.4229 -1.6417
17605TIP3    H274231   4.856   1.570   2.441 -0.8259 -0.8914  1.4287
17606TIP3   OH274232   3.202   2.517   2.943 -0.0491 -0.0130  0.1001
17606TIP3    H174233   3.205   2.434   2.991  0.8102 -0.4810 -0.7288
17606TIP3    H274234   3.109   2.541   2.945 -0.1850 -0.5158  1.1274
17607TIP3   OH274235   2.410   2.595  15.298  0.1756 -0.4954 -0.5484
17607TIP3    H174236   2.327   2.595  15.346 -0.6504  2.2632 -1.7398
17607TIP3    H274237   2.427   2.503  15.278 -0.3810 -1.6216  3.2534
17608TIP3   OH274238   2.085   5.780  16.497  0.0122  0.0196  0.0945
17608TIP3    H174239   2.150   5.716  16.467  0.5085 -0.8244  2.7126
17608TIP3    H274240   2.136   5.855  16.527 -0.4632  0.7787 -0.8992
17609TIP3   OH274241   6.334   3.505   5.465 -0.3495  0.1918 -0.0497
17609TIP3    H174242   6.380   3.453   5.531 -0.3025 -0.5314 -0.6372
17609TIP3    H274243   6.247   3.519   5.501  0.4871  2.2385  1.4447
17610TIP3   OH274244   2.139   2.671   0.568 -0.1187  0.1579  0.3815
17610TIP3    H174245   2.224   2.656   0.609  0.1066  1.9415  0.6467
17610TIP3    H274246   2.160   2.676   0.474 -0.1738 -0.8236  0.3006
17611TIP3   OH274247   5.304   5.288   6.403 -0.1433 -0.4203  0.2950
17611TIP3    H174248   5.269   5.247   6.482  1.1069 -1.6349  0.2545
17611TIP3    H274249   5.359   5.220   6.362  0.1966  0.5692 -0.9787
17612TIP3   OH274250   4.077   3.829   5.565 -0.3917 -0.4060 -0.0322
17612TIP3    H174251   4.093   3.822   5.659 -2.2560 -0.0235  0.3513
17612TIP3    H274252   4.107   3.917   5.541  0.1855 -0.5454  0.1780
17613TIP3   OH274253   4.887   0.242  15.222 -0.5945  0.0143  0.2896
17613TIP3    H174254   4.859   0.160  15.182 -1.3936  1.7738 -3.1610
17613TIP3    H274255   4.819   0.263  15.286 -1.3533 -1.0784 -0.1420
17614TIP3   OH274256   6.662   3.742   1.618 -0.4997  0.2344  0.0981
17614TIP3    H174257   6.673   3.662   1.671  0.5219  0.3252  0.0438
17614TIP3    H274258   6.664   3.813   1.681 -2.0022  0.2161  0.2145
17615TIP3   OH274259   3.772   6.335  15.940 -0.0762 -0.2062  0.1247
17615TIP3    H174260   3.833   6.262  15.942 -1.7166 -1.6798 -0.5929
17615TIP3    H274261   3.734   6.338  16.028  2.1548  1.8377  1.1446
17616TIP3   OH274262   1.822   4.007  15.070 -0.7705  0.4097  1.0526
17616TIP3    H174263   1.878   4.004  15.147 -1.0365 -1.6828  1.2076
17616TIP3    H274264   1.739   4.041  15.103 -0.3093  1.3598  1.2729
17617TIP3   OH274265   3.294   4.080   4.461  0.3614 -0.4592 -0.8884
17617TIP3    H174266   3.242   4.149   4.503  0.7746 -0.0625 -1.0097
17617TIP3    H274267   3.304   4.013   4.528 -0.8696 -0.8521 -1.0819
17618TIP3   OH274268   6.024   4.361   1.559 -0.3703 -0.0214 -0.1773
17618TIP3    H174269   5.946   4.417   1.554 -0.1703  0.2301 -0.6165
17618TIP3    H274270   6.021   4.309   1.479  0.4049  0.6671 -0.6800
17619TIP3   OH274271   6.056   1.622  11.822 -0.2038  0.9060  0.0095
17619TIP3    H174272   6.015   1.587  11.743  0.9798 -0.1514 -0.1612
17619TIP3    H274273   5.987   1.617  11.889 -0.2283 -1.3483 -0.1258
17620TIP3   OH274274   0.931   5.574  14.748 -0.6923 -0.4241  0.3863
17620TIP3    H174275   0.855   5.553  14.802 -1.8698 -0.8794 -1.3716
17620TIP3    H274276   0.958   5.491  14.710 -0.2885 -0.0251 -0.2239
17621TIP3   OH274277   0.451   5.419  16.268 -0.1190  0.3759  0.1001
17621TIP3    H174278   0.453   5.383  16.356 -0.6830  0.7871  0.2879
17621TIP3    H274279   0.442   5.514  16.281  0.9479  0.5631 -0.3840
17622TIP3   OH274280   4.905   6.425   2.167 -0.6369 -0.2460  0.0647
17622TIP3    H174281   4.825   6.468   2.136 -0.6032 -0.2236  0.0088
17622TIP3    H274282   4.973   6.454   2.105 -0.7321 -0.8590 -0.3299
17623TIP3   OH274283   2.152   0.265   4.075 -0.3304 -0.6745  0.2016
17623TIP3    H174284   2.116   0.348   4.108  2.0528  0.5333 -0.0093
17623TIP3    H274285   2.241   0.261   4.111 -0.7357 -3.7638  1.1599
17624TIP3   OH274286   0.718   6.346   0.422 -0.0086 -0.6208  0.3919
17624TIP3    H174287   0.650   6.341   0.490 -1.5801 -0.2420 -1.0841
17624TIP3    H274288   0.715   6.436   0.392  0.3514 -0.8946 -0.4764
17625TIP3   OH274289   6.294   3.219  13.643  0.2434 -0.3100  0.0627
17625TIP3    H174290   6.374   3.231  13.592  1.3599 -0.2068  1.7485
17625TIP3    H274291   6.324   3.187  13.728 -1.6528 -1.9115  0.2088
17626TIP3   OH274292   1.917   5.934  15.767 -0.6363 -0.0407  0.2644
17626TIP3    H174293   1.883   5.846  15.785 -0.0909 -0.3975 -0.3802
17626TIP3    H274294   1.974   5.953  15.842 -2.4759  0.7195  1.5427
17627TIP3   OH274295   1.490   6.419   5.643 -0.2168 -0.5842  0.1491
17627TIP3    H174296   1.567   6.397   5.591  1.3786  0.1255  2.1031
17627TIP3    H274297   1.444   6.485   5.591  1.0934 -0.1996 -0.5616
17628TIP3   OH274298   0.929   3.410   3.167  0.1206  0.5556  0.3625
17628TIP3    H174299   0.912   3.320   3.195  2.6097  0.1631  0.8504
17628TIP3    H274300   0.874   3.464   3.223  0.0026 -0.5834  1.3768
17629TIP3   OH274301   5.013   6.059   1.167 -0.3362  0.1383 -0.0537
17629TIP3    H174302   5.071   6.094   1.235 -0.3765 -0.2190  0.1651
17629TIP3    H274303   4.928   6.050   1.210  0.0341 -1.7345  0.3659
17630TIP3   OH274304   3.273   1.461  15.643  0.6160  0.3412  0.1930
17630TIP3    H174305   3.287   1.524  15.715 -1.1673  1.9552 -0.7812
17630TIP3    H274306   3.304   1.508  15.565  0.3540 -0.4741 -0.4073
17631TIP3   OH274307   0.873   3.356  12.944  0.5507  0.3512  0.2265
17631TIP3    H174308   0.818   3.399  13.010  0.3607  0.7149 -0.1620
17631TIP3    H274309   0.815   3.296  12.899  0.8473 -0.4163  0.8505
17632TIP3   OH274310   2.981   1.034  16.562  0.3742  0.2147  0.2338
17632TIP3    H174311   3.053   1.089  16.531 -1.4452  2.3779 -0.4281
17632TIP3    H274312   2.966   1.062  16.652  0.4102 -0.2794  0.3951
17633TIP3   OH274313   0.080   6.766  12.099 -0.3984 -0.3905  0.6821
17633TIP3    H174314   0.164   6.811  12.101 -0.7578  0.2861  0.9034
17633TIP3    H274315   0.090   6.694  12.162 -0.2708  0.2169  1.3652
17634TIP3   OH274316   5.324   6.138   3.358  0.2130  0.4507  0.4705
17634TIP3    H174317   5.357   6.196   3.289  0.4880 -2.0459 -1.6715
17634TIP3    H274318   5.229   6.145   3.353  0.2549  1.2831  0.7813
17635TIP3   OH274319   4.931   4.843  15.441 -0.2638  0.3929  0.3144
17635TIP3    H174320   4.961   4.907  15.376 -1.9325 -0.4576 -1.3818
17635TIP3    H274321   4.856   4.800  15.400 -2.2144  0.6516  3.3011
17636TIP3   OH274322   5.794   0.569   5.590 -0.8062 -0.0641 -0.0088
17636TIP3    H174323   5.700   0.586   5.577 -1.4643 -2.5118  0.9779
17636TIP3    H274324   5.799   0.534   5.679  1.2019  0.8012  0.2614
17637TIP3   OH274325   2.547   1.405   2.930 -0.5779  0.1431  0.0118
17637TIP3    H174326   2.570   1.320   2.966  2.7138  0.1318 -1.7208
17637TIP3    H274327   2.459   1.392   2.893 -1.2765 -1.6500  2.0876
17638TIP3   OH274328   4.429   3.754   1.637  0.5006 -0.1921 -0.1351
17638TIP3    H174329   4.460   3.841   1.661 -0.1046  0.2683 -0.9813
17638TIP3    H274330   4.368   3.769   1.565  0.3595 -1.3139 -0.2676
17639TIP3   OH274331   0.898   1.008  12.659  0.1391 -0.0261 -0.2003
17639TIP3    H174332   0.863   0.941  12.718 -0.6464  1.2512  0.8520
17639TIP3    H274333   0.986   1.025  12.691 -0.0948  0.2839  0.2936
17640TIP3   OH274334   0.404   4.476   6.373  0.0443  0.1452 -0.2044
17640TIP3    H174335   0.483   4.435   6.408  0.0651  1.2489  1.1427
17640TIP3    H274336   0.384   4.427   6.293  1.6606 -0.6195 -0.1668
17641TIP3   OH274337   5.565   3.391  14.244 -0.1231 -0.0846  0.3544
17641TIP3    H174338   5.557   3.413  14.337  0.0394 -0.0460  0.3592
17641TIP3    H274339   5.509   3.455  14.199 -0.3290 -0.2043  0.4381
17642TIP3   OH274340   2.200   4.981  11.584  0.2101 -0.2942  0.5494
17642TIP3    H174341   2.128   5.027  11.541 -0.1258 -2.5590 -1.5793
17642TIP3    H274342   2.160   4.937  11.659 -0.0391  0.5510  0.9216
17643TIP3   OH274343   0.582   3.169   2.082  0.3697 -0.9610 -0.2515
17643TIP3    H174344   0.495   3.138   2.109  0.7737 -0.5032  1.7375
17643TIP3    H274345   0.642   3.100   2.111  0.6009 -2.0938 -3.1140
17644TIP3   OH274346   0.268   2.409   0.417  0.4230  0.3352  0.3654
17644TIP3    H174347   0.206   2.472   0.453  0.0513 -0.3329  0.9170
17644TIP3    H274348   0.247   2.406   0.323 -0.5276 -0.0291  0.5746
17645TIP3   OH274349   3.085   2.737   5.452  0.1437  0.7026 -0.1961
17645TIP3    H174350   3.167   2.706   5.490 -0.5365 -1.5514 -0.4260
17645TIP3    H274351   3.111   2.785   5.374  1.3100  1.6975  0.7572
17646TIP3   OH274352   6.080   5.195  12.316 -0.2952 -0.1455  0.2212
17646TIP3    H174353   6.021   5.120  12.314 -2.6454  1.5138 -2.9228
17646TIP3    H274354   6.145   5.176  12.248 -2.6282  1.6081 -2.8102
17647TIP3   OH274355   0.097   6.415   2.514  0.1331  0.4922 -0.2022
17647TIP3    H174356   0.171   6.409   2.454 -1.2908 -1.2577 -1.9156
17647TIP3    H274357   0.054   6.498   2.491 -0.2819 -0.0592 -1.5222
17648TIP3   OH274358   3.242   1.725  12.693 -0.4696  0.6432  0.0839
17648TIP3    H174359   3.230   1.713  12.787 -0.6724 -0.2090 -0.0373
17648TIP3    H274360   3.304   1.798  12.686 -1.6734  1.7759  0.8261
17649TIP3   OH274361   1.604   3.084   5.798  0.2829 -0.2547  0.0076
17649TIP3    H174362   1.548   3.037   5.859  2.3613 -1.9838  0.6806
17649TIP3    H274363   1.544   3.141   5.750 -2.0969 -2.1981  0.4783
17650TIP3   OH274364   3.094   2.925   0.924 -0.2261 -0.6447 -0.5515
17650TIP3    H174365   3.105   2.835   0.954 -0.0598 -0.4519 -0.0273
17650TIP3    H274366   3.055   2.917   0.836  2.4177 -1.3175 -1.7575
17651TIP3   OH274367   4.832   3.311   3.520  0.1146  0.4045  0.9255
17651TIP3    H174368   4.859   3.313   3.428  0.5394 -0.5936  1.0166
17651TIP3    H274369   4.835   3.403   3.548 -1.7475  0.9719 -0.5342
17652TIP3   OH274370   0.533   3.415   1.961 -0.2576 -0.4575 -0.1438
17652TIP3    H174371   0.456   3.411   1.905 -0.3338 -1.0259 -0.0033
17652TIP3    H274372   0.561   3.324   1.971  0.9792 -0.1917 -0.9428
17653TIP3   OH274373   0.343   2.124   4.455 -0.5475  0.8958  0.1857
17653TIP3    H174374   0.271   2.063   4.437  1.8432 -1.8663 -1.0770
17653TIP3    H274375   0.318   2.168   4.536 -3.2159 -0.5742  0.2986
17654TIP3   OH274376   1.623   4.314   4.423  0.4629  0.1920 -0.6984
17654TIP3    H174377   1.544   4.274   4.458 -0.6013  2.3197 -0.5515
17654TIP3    H274378   1.689   4.302   4.491  0.0931 -0.9716 -0.5265
17655TIP3   OH274379   2.032   6.122   3.829 -0.1866  0.0653  0.2816
17655TIP3    H174380   1.977   6.196   3.855  0.0143 -0.4870  2.5229
17655TIP3    H274381   2.113   6.134   3.879 -0.1819 -1.6764  0.7765
17656TIP3   OH274382   3.327   5.741  12.815 -0.1085  0.3864 -0.5624
17656TIP3    H174383   3.240   5.715  12.785  0.2046  0.8843 -2.0074
17656TIP3    H274384   3.368   5.660  12.845 -1.6493  0.3952  1.8182
17657TIP3   OH274385   6.330   2.125   3.373  0.4502  0.3198 -0.5352
17657TIP3    H174386   6.313   2.031   3.364 -0.4843  0.3506  0.6313
17657TIP3    H274387   6.392   2.131   3.445 -0.2281  0.6446  0.0291
17658TIP3   OH274388   0.386   2.877   0.056  0.3245 -0.2132  1.0000
17658TIP3    H174389   0.418   2.907  -0.028  1.1527  0.5866  1.5849
17658TIP3    H274390   0.380   2.956   0.110  3.6592 -1.1063  2.9403
17659TIP3   OH274391   3.071   4.877  16.070  0.1077  0.4636  0.3885
17659TIP3    H174392   3.106   4.965  16.083  1.6137 -0.1191  0.4735
17659TIP3    H274393   3.021   4.859  16.150 -0.5196  1.3600  0.2158
17660TIP3   OH274394   4.757   4.043  15.080 -0.3936  0.5646  0.5229
17660TIP3    H174395   4.769   4.137  15.064 -1.5607  0.4576 -1.2228
17660TIP3    H274396   4.825   4.021  15.145  1.1345  2.2282 -0.4209
17661TIP3   OH274397   5.830   3.333  16.285  0.2153 -0.4347  0.0788
17661TIP3    H174398   5.745   3.331  16.242 -0.0172  0.6801  0.4489
17661TIP3    H274399   5.847   3.426  16.300  2.0845 -0.5258 -1.1122
17662TIP3   OH274400   1.857   0.859  17.028 -0.4316  0.3233  0.4971
17662TIP3    H174401   1.835   0.951  17.011  0.0289  0.7960  2.2768
17662TIP3    H274402   1.779   0.823  17.071 -0.9365 -0.3960 -0.9282
17663TIP3   OH274403   3.921   0.248  11.284 -0.1837  0.2416  0.2882
17663TIP3    H174404   4.013   0.254  11.308  0.0156  0.5194 -0.4922
17663TIP3    H274405   3.895   0.159  11.307  0.4423 -0.0250 -0.0210
17664TIP3   OH274406   2.585   6.253  15.404 -0.1213 -0.6857  0.5729
17664TIP3    H174407   2.576   6.290  15.316 -1.8547 -2.1126  0.1083
17664TIP3    H274408   2.587   6.329  15.462  1.0198  0.2729 -0.6688
17665TIP3   OH274409   2.827   0.964  11.276 -0.0767 -0.0454 -0.0947
17665TIP3    H174410   2.750   0.907  11.272  1.6648 -2.5074 -0.8592
17665TIP3    H274411   2.876   0.944  11.197  1.4202  1.4063  0.3976
17666TIP3   OH274412   0.713   0.296   6.440  0.4101 -0.0775 -0.1243
17666TIP3    H174413   0.772   0.290   6.515 -0.2064  1.6093  0.5290
17666TIP3    H274414   0.744   0.372   6.390 -1.3543  1.0402  0.4081
17667TIP3   OH274415   6.652   1.437  17.180  0.0008 -0.0904 -0.1994
17667TIP3    H174416   6.728   1.472  17.227 -0.8208 -1.7585  2.6814
17667TIP3    H274417   6.665   1.342  17.182 -1.6257 -0.3470 -0.6229
17668TIP3   OH274418   1.861   2.992   5.874 -0.4056 -0.5095 -0.7070
17668TIP3    H174419   1.819   2.949   5.948  1.2816  0.0586  0.6402
17668TIP3    H274420   1.788   3.027   5.822 -1.6554 -1.9655  0.0063
17669TIP3   OH274421   2.778   5.250   0.020 -0.3174  0.4357 -0.3558
17669TIP3    H174422   2.708   5.269  -0.043  1.3399 -0.3121 -2.5582
17669TIP3    H274423   2.858   5.248  -0.032  0.8319 -3.1582  1.1787
17670TIP3   OH274424   4.291   5.345  16.915 -0.1007  0.6610 -0.2537
17670TIP3    H174425   4.207   5.332  16.958  0.9663 -1.6823  1.3046
17670TIP3    H274426   4.269   5.354  16.822 -2.0826  0.6680  0.1633
17671TIP3   OH274427   5.446   4.603   4.068  0.9319 -0.5718  0.3419
17671TIP3    H174428   5.410   4.652   3.994  2.2656 -0.9040 -0.5583
17671TIP3    H274429   5.388   4.626   4.141 -1.0523 -1.0133 -0.9852
17672TIP3   OH274430   6.666   6.780  14.122  0.1751  0.2073  0.4324
17672TIP3    H174431   6.700   6.778  14.211 -0.5654  1.0337  0.7380
17672TIP3    H274432   6.615   6.699  14.114  1.4267 -0.5987  0.2596
17673TIP3   OH274433   2.719   5.980  16.291 -0.3446  0.0938  0.0971
17673TIP3    H174434   2.772   5.997  16.214 -0.8427 -0.8216 -0.4604
17673TIP3    H274435   2.669   6.060  16.304  0.3383  0.5492 -0.0402
17674TIP3   OH274436   4.529   1.511   3.588 -0.2608  0.2471 -0.4110
17674TIP3    H174437   4.543   1.526   3.681 -3.0300  2.8702 -0.2765
17674TIP3    H274438   4.457   1.448   3.585 -0.4604  0.4901 -0.7564
17675TIP3   OH274439   4.062   5.913   2.852 -0.5488  0.3571  0.0837
17675TIP3    H174440   4.094   5.890   2.939  0.9979  2.6260  0.2178
17675TIP3    H274441   4.064   5.831   2.803 -0.1472 -0.7052  1.7966
17676TIP3   OH274442   5.437   0.080  12.221 -0.1324 -0.0605  0.5423
17676TIP3    H174443   5.378   0.140  12.266  0.9629  1.1986  0.3696
17676TIP3    H274444   5.525   0.115  12.238  0.4145 -0.4244 -1.2766
17677TIP3   OH274445   5.020   1.735  11.827  0.2666 -0.0212 -0.4284
17677TIP3    H174446   4.967   1.685  11.765  0.1443  0.7801 -0.9880
17677TIP3    H274447   4.960   1.755  11.899  0.5286 -1.3396  0.1906
17678TIP3   OH274448   0.247   5.090  14.857 -0.2996  0.1982  0.2177
17678TIP3    H174449   0.266   5.149  14.930  2.9044 -0.3881 -0.0386
17678TIP3    H274450   0.244   5.003  14.896 -2.8298  0.2105  0.2308
17679TIP3   OH274451   0.976   3.829  16.163 -0.0044  0.1850  0.0384
17679TIP3    H174452   0.986   3.924  16.176  0.0241  0.1416  0.3500
17679TIP3    H274453   1.029   3.810  16.086 -0.0934  0.4418 -0.0852
17680TIP3   OH274454   2.775   3.850   1.766 -0.4245 -0.5956 -0.2232
17680TIP3    H174455   2.689   3.821   1.736 -0.4254 -1.1196  0.2679
17680TIP3    H274456   2.823   3.770   1.784  0.1961 -0.3066 -0.5494
17681TIP3   OH274457   4.262   4.697   2.415  0.6038  0.0010 -0.0819
17681TIP3    H174458   4.242   4.791   2.412 -1.4508 -0.4056 -2.1976
17681TIP3    H274459   4.200   4.661   2.479  2.0132  0.1333  1.4375
17682TIP3   OH274460   2.648   5.310  16.123 -0.3767  0.6387 -0.1175
17682TIP3    H174461   2.561   5.338  16.149 -0.1920 -0.4095  1.8036
17682TIP3    H274462   2.665   5.232  16.176  0.6146 -0.8808 -2.4612
17683TIP3   OH274463   5.491   3.698   3.312 -0.6034  0.1210 -0.3526
17683TIP3    H174464   5.558   3.739   3.367 -0.9338  0.0368  0.1243
17683TIP3    H274465   5.493   3.606   3.337 -2.3921  0.4564  1.2992
17684TIP3   OH274466   4.591   1.225  12.385  0.0376 -0.2499  0.2327
17684TIP3    H174467   4.622   1.202  12.473 -0.6147  0.1358  0.5711
17684TIP3    H274468   4.585   1.321  12.386  0.4389 -0.2093 -0.3784
17685TIP3   OH274469   3.261   5.706  14.203 -0.6049  0.0845  0.2520
17685TIP3    H174470   3.181   5.759  14.207 -0.8333 -0.0738 -1.4811
17685TIP3    H274471   3.319   5.746  14.268 -1.4911  1.2573  0.3618
17686TIP3   OH274472   1.924   4.290   2.060 -0.3951 -0.0112  0.0192
17686TIP3    H174473   1.898   4.364   2.115 -2.4211 -0.9060  0.3441
17686TIP3    H274474   2.020   4.294   2.058 -0.4375  2.8083 -0.2804
17687TIP3   OH274475   4.057   6.304   4.911 -0.2609  0.3395 -0.6308
17687TIP3    H174476   4.097   6.259   4.986  2.1313  0.7864 -1.5488
17687TIP3    H274477   3.982   6.350   4.949 -0.1625 -0.8326  1.1434
17688TIP3   OH274478   4.187   3.952  15.610  0.1913  0.6840 -0.5962
17688TIP3    H174479   4.182   3.962  15.705 -0.1730  1.9145 -0.7230
17688TIP3    H274480   4.128   3.880  15.590  0.9716 -0.2018  0.1874
17689TIP3   OH274481   1.313   5.393  12.657  0.2560 -0.0984 -0.1316
17689TIP3    H174482   1.256   5.316  12.662 -1.1314  0.9460  1.0482
17689TIP3    H274483   1.268   5.460  12.709  0.5409  2.0898 -2.4965
17690TIP3   OH274484   0.027   3.776   5.338 -1.1203 -0.3358 -0.6480
17690TIP3    H174485   0.004   3.821   5.257  0.8424  0.6856 -0.6963
17690TIP3    H274486   0.121   3.761   5.331 -1.0231 -0.8166  1.1603
17691TIP3   OH274487   0.218   1.447   5.694  0.1344  0.8718 -0.0838
17691TIP3    H174488   0.187   1.401   5.616 -0.8398  1.2831  0.0425
17691TIP3    H274489   0.302   1.484   5.668 -0.3214  1.2677 -1.0470
17692TIP3   OH274490   1.074   3.136   3.351  0.0227  0.4824  0.1770
17692TIP3    H174491   1.168   3.129   3.332  0.0169  0.9872 -0.0499
17692TIP3    H274492   1.070   3.177   3.438  0.0365 -1.2133  1.0113
17693TIP3   OH274493   5.761   5.989  16.539  0.0092 -0.0614  0.1600
17693TIP3    H174494   5.739   6.020  16.451 -0.1790 -0.6853 -0.0181
17693TIP3    H274495   5.780   6.069  16.589  2.0273  0.2300 -0.9441
17694TIP3   OH274496   5.546   6.204  11.341  0.8132 -0.0080  0.9074
17694TIP3    H174497   5.506   6.238  11.261  1.5006 -1.5589 -0.1298
17694TIP3    H274498   5.476   6.206  11.406 -0.2478 -0.3657 -0.2086
17695TIP3   OH274499   2.907   1.587  13.039 -0.8668  0.7428  0.1822
17695TIP3    H174500   2.930   1.497  13.017 -2.2764  0.5931 -0.8349
17695TIP3    H274501   2.980   1.618  13.093 -1.5089 -1.8313  2.8336
17696TIP3   OH274502   3.521   1.299   4.414 -0.1612  0.1261 -0.9151
17696TIP3    H174503   3.610   1.263   4.424 -0.2547 -0.2744 -1.4801
17696TIP3    H274504   3.519   1.374   4.473  0.3922 -0.1615 -0.5217
17697TIP3   OH274505   0.680   5.039   2.744 -0.3736  0.2841 -0.7590
17697TIP3    H174506   0.687   4.945   2.727 -0.5972  0.4391 -1.7911
17697TIP3    H274507   0.736   5.054   2.820 -1.5567 -0.9326  0.4132
17698TIP3   OH274508   6.118   1.183  14.345 -0.3156 -0.4316 -0.0557
17698TIP3    H174509   6.084   1.149  14.428  0.1709 -0.5779  0.0852
17698TIP3    H274510   6.042   1.185  14.287 -0.8763  0.5860  0.6842
17699TIP3   OH274511   4.600   5.575   3.584  0.4199 -0.4075 -0.2774
17699TIP3    H174512   4.619   5.594   3.676 -0.3169 -1.1250  0.0308
17699TIP3    H274513   4.509   5.547   3.584  0.1405  0.4661 -1.3639
17700TIP3   OH274514   4.358   6.386  15.084  0.1125  0.1516 -0.4023
17700TIP3    H174515   4.375   6.323  15.014 -0.5928  0.2982 -0.7188
17700TIP3    H274516   4.431   6.375  15.145  0.7358  0.0171 -1.1600
17701TIP3   OH274517   3.292   1.609   6.095 -0.1403 -0.5281 -0.0164
17701TIP3    H174518   3.274   1.533   6.038 -1.9557 -0.5434  0.4983
17701TIP3    H274519   3.387   1.610   6.104  0.1243 -1.1602 -2.1759
17702TIP3   OH274520   4.565   3.414   2.218  0.5875  0.0763  0.1537
17702TIP3    H174521   4.481   3.451   2.190 -1.2968 -2.4799  1.8984
17702TIP3    H274522   4.617   3.409   2.139 -0.9915  1.5298 -1.0513
17703TIP3   OH274523   3.928   0.257   0.755 -0.4046 -0.1820 -0.5586
17703TIP3    H174524   3.966   0.196   0.692 -0.0605  1.1113 -1.6483
17703TIP3    H274525   3.834   0.246   0.746 -0.3621 -1.6194  0.3688
17704TIP3   OH274526   2.037   6.339  11.314 -0.0189 -0.0372  0.5721
17704TIP3    H174527   1.970   6.356  11.248  0.4548 -0.7128 -0.0978
17704TIP3    H274528   2.100   6.411  11.303  0.7203 -0.8298 -0.6021
17705TIP3   OH274529   3.066   1.065   1.915  0.0445  0.1451 -0.0851
17705TIP3    H174530   3.114   1.053   1.832 -0.0007 -0.3288 -0.0466
17705TIP3    H274531   3.123   1.122   1.967  0.5444 -0.3601 -0.0661
17706TIP3   OH274532   6.263   0.284   0.829 -0.1775 -0.1085  0.2767
17706TIP3    H174533   6.227   0.353   0.884  0.4687  0.7204 -0.3202
17706TIP3    H274534   6.211   0.288   0.748 -1.0518 -1.2504  0.7361
17707TIP3   OH274535   4.890   5.291   2.858 -0.1861 -0.0776  0.0200
17707TIP3    H174536   4.813   5.342   2.835 -0.0982  0.8575  1.6447
17707TIP3    H274537   4.958   5.322   2.797 -1.0504 -0.9375 -1.4415
17708TIP3   OH274538   2.395   4.005   3.089  0.9552  0.2242 -0.1890
17708TIP3    H174539   2.488   3.994   3.105  0.4156 -1.3016  2.5410
17708TIP3    H274540   2.372   3.932   3.031  1.1953 -0.3518  0.4315
17709TIP3   OH274541   2.179   5.368   3.566 -0.1279 -0.6028 -0.0266
17709TIP3    H174542   2.254   5.384   3.621 -0.6842  1.2976  0.2313
17709TIP3    H274543   2.129   5.300   3.612  1.3993 -1.9217 -0.2329
17710TIP3   OH274544   2.888   0.740   0.980 -0.1092  0.3897 -0.0523
17710TIP3    H174545   2.817   0.676   0.979 -0.2021  0.4522 -2.2314
17710TIP3    H274546   2.941   0.719   0.903 -0.0033  2.7652 -0.7025
17711TIP3   OH274547   1.845   0.043  12.215 -0.6241 -0.2033  0.0926
17711TIP3    H174548   1.815  -0.025  12.275 -1.8584  0.0645 -0.1839
17711TIP3    H274549   1.933   0.016  12.190 -0.2798 -0.5915  1.6073
17712TIP3   OH274550   5.030   1.694   0.118  0.4496 -1.1349 -0.2566
17712TIP3    H174551   4.953   1.717   0.067  1.1280 -0.2347 -0.8991
17712TIP3    H274552   5.098   1.753   0.088  1.4838 -2.0988  0.0933
17713TIP3   OH274553   5.449   1.855   2.043 -0.2924 -0.1339 -0.2688
17713TIP3    H174554   5.461   1.914   1.969  0.9563  0.1699  0.1433
17713TIP3    H274555   5.459   1.912   2.120 -2.0871 -0.3433  0.1506
17714TIP3   OH274556   4.588   6.747   3.815 -0.2692  0.4800  0.4780
17714TIP3    H174557   4.644   6.721   3.888 -0.5255  1.7009  1.1410
17714TIP3    H274558   4.500   6.751   3.852 -0.3465  1.5035  0.2239
17715TIP3   OH274559   5.515   4.698  12.256 -0.3305  0.3334 -0.3667
17715TIP3    H174560   5.467   4.646  12.192  1.2512 -1.7847  0.0571
17715TIP3    H274561   5.560   4.764  12.203 -2.4370  1.4232 -0.9116
17716TIP3   OH274562   6.687   6.160   1.325  0.1214 -0.2781 -0.2245
17716TIP3    H174563   6.716   6.162   1.234 -0.5817  0.6602 -0.4337
17716TIP3    H274564   6.740   6.228   1.368  0.6628 -0.9192  0.1421
17717TIP3   OH274565   1.766   4.161  11.628 -0.7215  0.2662 -0.5544
17717TIP3    H174566   1.728   4.213  11.557 -0.8653 -1.1227 -1.5470
17717TIP3    H274567   1.802   4.084  11.584  2.8962  1.2219  0.3234
17718TIP3   OH274568   5.189   5.417   3.791 -0.0323  0.6188 -0.2476
17718TIP3    H174569   5.108   5.376   3.760 -0.2772 -0.3601  1.5033
17718TIP3    H274570   5.180   5.510   3.768 -2.1071  0.7086  0.6890
17719TIP3   OH274571   6.547   0.043  16.460  0.6405 -0.2883 -0.1290
17719TIP3    H174572   6.454   0.062  16.450  1.1691  2.6167 -0.2885
17719TIP3    H274573   6.578   0.030  16.370  0.4607 -1.0709 -0.0884
17720TIP3   OH274574   3.250   0.486   0.449  0.2627  0.6889 -0.4008
17720TIP3    H174575   3.203   0.523   0.523  0.2970  0.9358 -0.5034
17720TIP3    H274576   3.184   0.435   0.402  0.2701  0.4272 -0.1309
17721TIP3   OH274577   1.156   5.305   4.971  0.0814  0.0572  0.2627
17721TIP3    H174578   1.070   5.319   5.013 -1.0578  1.5832 -2.3246
17721TIP3    H274579   1.168   5.210   4.971 -2.2713 -0.3059 -0.4343
17722TIP3   OH274580   1.494   3.392  15.607  0.2174  0.1372  0.1558
17722TIP3    H174581   1.514   3.462  15.669 -0.7353 -0.3767  1.0835
17722TIP3    H274582   1.476   3.437  15.524  0.6713  0.8979  0.4620
17723TIP3   OH274583   3.609   4.772  12.568 -0.0202 -0.0478  0.3077
17723TIP3    H174584   3.681   4.727  12.524 -0.2827 -0.5758  0.4165
17723TIP3    H274585   3.565   4.820  12.499  0.7473  0.7092  0.3213
17724TIP3   OH274586   6.345   1.563  11.472  0.3509 -0.1386 -0.2989
17724TIP3    H174587   6.415   1.510  11.434  0.9869 -1.1030  2.0380
17724TIP3    H274588   6.385   1.606  11.548 -1.6847 -1.2608  1.5372
17725TIP3   OH274589   0.630   4.876   1.910  0.3997 -0.0346 -0.2411
17725TIP3    H174590   0.687   4.846   1.982  0.1112 -1.2598 -0.5067
17725TIP3    H274591   0.541   4.856   1.940  0.3816 -3.4557 -2.1401
17726TIP3   OH274592   5.004   4.261   3.257 -0.0068 -0.0611 -0.6450
17726TIP3    H174593   5.064   4.241   3.329 -0.3101  0.7155 -0.1686
17726TIP3    H274594   5.058   4.308   3.193 -0.2866  1.4927  0.2050
17727TIP3   OH274595   1.377   1.628   0.815 -0.1624 -0.3606  0.1828
17727TIP3    H174596   1.330   1.698   0.769  0.1857 -0.5561 -0.4841
17727TIP3    H274597   1.323   1.609   0.892  0.3916  1.5226  1.0913
17728TIP3   OH274598   4.927   0.316   1.501 -0.8240  0.0049 -0.4584
17728TIP3    H174599   4.915   0.391   1.560 -1.0415 -0.4243  0.0520
17728TIP3    H274600   4.863   0.330   1.431 -1.8967 -0.4478  0.4043
17729TIP3   OH274601   3.510   5.558  13.836  0.2796  0.5178  0.3891
17729TIP3    H174602   3.529   5.646  13.802 -0.0265  0.5181  0.2193
17729TIP3    H274603   3.562   5.499  13.782  0.6366  0.6079  0.6285
17730TIP3   OH274604   1.955   2.721  11.976 -0.2534 -0.1004 -0.1480
17730TIP3    H174605   1.967   2.651  12.040 -1.9300 -0.5919 -0.3319
17730TIP3    H274606   1.888   2.778  12.014 -0.2286  0.3936 -0.8142
17731TIP3   OH274607   5.140   4.699  13.684 -0.0454  0.1742  0.0270
17731TIP3    H174608   5.066   4.649  13.651 -0.5560 -0.3598  1.8364
17731TIP3    H274609   5.217   4.654  13.650 -0.5242  0.0218 -0.8912
17732TIP3   OH274610   5.565   2.980  16.796  0.0308  0.1770 -0.4994
17732TIP3    H174611   5.540   2.928  16.872  1.8109 -1.7554 -1.1185
17732TIP3    H274612   5.482   3.004  16.755 -0.9019 -0.6529  0.8231
17733TIP3   OH274613   3.436   2.572  16.353  0.1164 -0.0360 -0.4733
17733TIP3    H174614   3.401   2.608  16.434  0.9062 -0.2677 -0.0142
17733TIP3    H274615   3.466   2.484  16.376  2.7829  0.8205 -0.3113
17734TIP3   OH274616   0.232   4.785  16.049 -0.2335  0.4647 -0.3677
17734TIP3    H174617   0.328   4.790  16.048 -0.2343  0.4367 -0.6659
17734TIP3    H274618   0.205   4.840  15.975 -0.4094 -0.3678 -0.9430
17735TIP3   OH274619   1.944   6.558   6.017 -0.1436 -0.2458  0.3927
17735TIP3    H174620   1.964   6.651   6.011  0.3070 -0.3732 -0.2501
17735TIP3    H274621   1.855   6.554   6.053 -0.8975  0.4980 -1.2793
17736TIP3   OH274622   2.475   1.577  14.227  0.1568  0.4032  0.2092
17736TIP3    H174623   2.382   1.554  14.229  0.6663 -1.8288  0.9091
17736TIP3    H274624   2.488   1.621  14.143 -1.2825 -0.3646 -0.4372
17737TIP3   OH274625   0.330   4.034   4.854  0.2274  0.6002 -0.9078
17737TIP3    H174626   0.330   4.062   4.762  1.4863 -0.5434 -1.2751
17737TIP3    H274627   0.257   3.972   4.860 -0.2157  1.1073 -0.9879
17738TIP3   OH274628   2.629   0.326  15.607 -0.2838  0.0557 -0.2030
17738TIP3    H174629   2.613   0.420  15.594  2.3257  0.5490 -0.5091
17738TIP3    H274630   2.722   0.315  15.585 -0.8862 -2.9275 -1.7559
17739TIP3   OH274631   4.409   5.140  16.683  0.2684 -0.0824 -0.7368
17739TIP3    H174632   4.377   5.080  16.615 -1.4009  0.9537 -0.9420
17739TIP3    H274633   4.343   5.209  16.685  0.9551  0.5563  1.0797
17740TIP3   OH274634   1.697   4.591  13.771  0.0364  0.2591 -0.1651
17740TIP3    H174635   1.772   4.609  13.715  0.5338  1.7841  0.9005
17740TIP3    H274636   1.621   4.599  13.713  0.6233 -0.1503 -1.0094
17741TIP3   OH274637   6.561   5.690   2.470 -0.2980 -0.1866 -0.3017
17741TIP3    H174638   6.580   5.656   2.382 -0.3983 -2.1818  0.4007
17741TIP3    H274639   6.485   5.747   2.457 -0.3190 -0.4563 -1.5265
17742TIP3   OH274640   6.672   3.142   0.377 -0.2999 -0.1539 -0.2758
17742TIP3    H174641   6.590   3.095   0.362 -1.8708  2.5427 -0.9658
17742TIP3    H274642   6.727   3.121   0.302 -2.0270  1.1365 -1.9865
17743TIP3   OH274643   5.185   0.002  15.279 -0.1292  0.1820  0.2924
17743TIP3    H174644   5.162  -0.049  15.202  0.9461 -0.7017  0.5380
17743TIP3    H274645   5.266   0.047  15.256 -0.1246  0.3861  0.6871
17744TIP3   OH274646   1.380   4.942  16.825  0.2033  0.6978  0.5030
17744TIP3    H174647   1.359   5.033  16.846  0.5069  0.2194  3.1694
17744TIP3    H274648   1.471   4.931  16.852  0.8665  0.1132 -1.7792
17745TIP3   OH274649   6.009   0.929  12.915  0.0191 -0.2018 -0.3280
17745TIP3    H174650   6.027   1.010  12.867  3.6237 -1.3658 -1.2712
17745TIP3    H274651   6.062   0.935  12.994  0.7403 -1.7635 -0.6443
17746TIP3   OH274652   2.915   2.082  14.359  0.1197  0.4422 -0.6331
17746TIP3    H174653   2.913   2.174  14.387  0.4168  0.2090  0.1757
17746TIP3    H274654   2.999   2.073  14.314  2.0058 -0.3814  2.7445
17747TIP3   OH274655   3.448   4.881  15.322  0.0462  0.4188  0.0452
17747TIP3    H174656   3.476   4.792  15.300  1.3489  0.5568  1.0794
17747TIP3    H274657   3.379   4.869  15.387  0.3758  0.1690  0.3483
17748TIP3   OH274658   6.739   5.364   5.103 -0.1731 -0.6297  0.2645
17748TIP3    H174659   6.707   5.441   5.055 -1.5176 -2.1599 -1.4603
17748TIP3    H274660   6.832   5.382   5.117  0.0357  0.4396 -1.9655
17749TIP3   OH274661   1.891   3.996   4.157  0.3245 -0.0153  1.1493
17749TIP3    H174662   1.818   3.966   4.211 -1.3420 -0.6150 -1.2687
17749TIP3    H274663   1.906   4.086   4.184 -0.3865 -0.3086  2.6158
17750TIP3   OH274664   1.069   2.710  12.345  0.0143 -0.2473 -0.3947
17750TIP3    H174665   1.000   2.729  12.409 -1.2499 -1.7201 -1.2440
17750TIP3    H274666   1.045   2.624  12.309  0.8342  0.4057 -2.6418
17751TIP3   OH274667   4.241   3.704   1.356 -0.4997 -0.2835 -0.8287
17751TIP3    H174668   4.172   3.671   1.413  0.8289 -0.1221  0.9557
17751TIP3    H274669   4.206   3.786   1.321 -0.4417  1.0046  1.8516
17752TIP3   OH274670   1.620   3.064  11.601 -0.6980  0.6476  0.4843
17752TIP3    H174671   1.595   3.091  11.513 -1.0442  1.2485  0.7642
17752TIP3    H274672   1.716   3.070  11.602 -0.6260 -0.1963 -0.1134
17753TIP3   OH274673   1.682   4.261  13.240  0.0898  0.2577 -0.6540
17753TIP3    H174674   1.644   4.346  13.217 -0.2686  0.2086 -0.2337
17753TIP3    H274675   1.776   4.279  13.247 -0.0107  0.6748 -0.3105
17754TIP3   OH274676   0.244   4.457  12.867 -0.4432 -0.1709  0.3108
17754TIP3    H174677   0.268   4.395  12.798 -0.7687 -0.4921  0.4831
17754TIP3    H274678   0.178   4.513  12.827 -0.5831 -0.3151  0.3391
17755TIP3   OH274679   2.331   4.037   0.722  0.0498  0.1539  0.0304
17755TIP3    H174680   2.265   4.005   0.784 -3.6025 -0.0491 -3.5799
17755TIP3    H274681   2.368   3.957   0.684 -1.3776  0.1713 -1.4858
17756TIP3   OH274682   4.655   0.309   2.418  0.0946  0.0275  0.4370
17756TIP3    H174683   4.718   0.329   2.488  0.9062  0.3294 -0.3630
17756TIP3    H274684   4.589   0.254   2.460  0.7236 -0.0295  1.3748
17757TIP3   OH274685   1.212   5.326  13.364 -0.1332  0.2512 -0.0007
17757TIP3    H174686   1.284   5.382  13.334 -0.4144  0.1743 -0.8587
17757TIP3    H274687   1.134   5.363  13.323 -0.3395 -0.6909 -0.4865
17758TIP3   OH274688   1.640   5.278  15.482 -0.7729  0.2528  0.2053
17758TIP3    H174689   1.715   5.221  15.468  0.1173  1.0522  1.5427
17758TIP3    H274690   1.564   5.220  15.471  0.0026 -0.5608 -1.1840
17759TIP3   OH274691   0.719   5.977   4.807  0.2013  0.1683 -0.0584
17759TIP3    H174692   0.675   5.892   4.801  2.4672 -1.0154 -1.0030
17759TIP3    H274693   0.650   6.038   4.834 -1.7009 -1.7811 -0.2663
17760TIP3   OH274694   0.304   5.785   4.212 -0.1892  0.0781 -0.4478
17760TIP3    H174695   0.370   5.716   4.204 -0.9896 -0.5380 -1.9041
17760TIP3    H274696   0.286   5.813   4.122 -1.6872  0.4544 -0.0604
17761TIP3   OH274697   6.599   0.532  11.876 -0.4375  0.3279 -0.4037
17761TIP3    H174698   6.598   0.452  11.824  1.6251  0.4523 -0.7484
17761TIP3    H274699   6.582   0.504  11.966 -1.2011 -0.2771 -0.7337
17762TIP3   OH274700   5.251   0.765  17.009 -0.0891  0.5652 -0.1441
17762TIP3    H174701   5.161   0.794  17.024 -0.5386 -0.8312 -0.0378
17762TIP3    H274702   5.276   0.720  17.090 -0.5607 -2.1327 -1.4094
17763TIP3   OH274703   4.820   1.592   1.390 -0.1476  0.0904  0.4486
17763TIP3    H174704   4.747   1.562   1.445  0.4692 -0.3009  1.0557
17763TIP3    H274705   4.885   1.523   1.397  0.4289  0.6015  0.1780
17764TIP3   OH274706   2.934   3.905  15.579  0.5183  0.1078 -0.5049
17764TIP3    H174707   2.921   3.996  15.608 -0.9283 -0.0262 -0.6274
17764TIP3    H274708   2.846   3.875  15.555  1.2413 -0.7176 -2.2977
17765TIP3   OH274709   6.192   0.866   4.050  0.3388 -0.2789  0.2469
17765TIP3    H174710   6.239   0.813   4.114 -0.1046 -0.5062  0.3901
17765TIP3    H274711   6.198   0.816   3.968 -1.0078 -1.1011  0.6304
17766TIP3   OH274712   5.027   3.451   0.295  0.7456 -0.1747 -0.2101
17766TIP3    H174713   5.045   3.377   0.354  0.5446 -0.0721 -0.0157
17766TIP3    H274714   5.035   3.528   0.351  0.9253 -0.0492 -0.4061
17767TIP3   OH274715   3.813   1.762  12.351 -0.0967  0.3452 -0.2316
17767TIP3    H174716   3.811   1.739  12.258 -1.6960 -0.8417  0.0484
17767TIP3    H274717   3.768   1.689  12.395  0.8056  0.7672  1.5075
17768TIP3   OH274718   5.130   0.388  10.610  0.3868 -0.6885 -0.0687
17768TIP3    H174719   5.050   0.440  10.597  0.0972 -0.9882  0.4734
17768TIP3    H274720   5.185   0.441  10.667 -0.1474 -1.2019  0.9508
17769TIP3   OH274721   4.148   5.236   5.992  0.0715  0.5457  0.4215
17769TIP3    H174722   4.161   5.220   5.898  2.9312  2.1793  0.4268
17769TIP3    H274723   4.221   5.293   6.017 -1.5759  1.5871  3.2983
17770TIP3   OH274724   4.809   1.188  14.698 -0.9202 -0.5866  0.1838
17770TIP3    H174725   4.744   1.254  14.670 -0.9457 -0.3960  0.6905
17770TIP3    H274726   4.827   1.209  14.789 -1.4267 -1.6974  0.5515
17771TIP3   OH274727   1.965   1.726   2.075 -0.1606 -0.2953  0.2833
17771TIP3    H174728   1.990   1.814   2.045  1.5944 -0.8034  0.1573
17771TIP3    H274729   1.985   1.725   2.168  0.7057 -0.8332  0.1053
17772TIP3   OH274730   1.236   1.261  13.375 -0.2771  0.2524 -0.1180
17772TIP3    H174731   1.280   1.340  13.345 -1.0208 -0.2289 -2.7311
17772TIP3    H274732   1.307   1.203  13.403  0.5398  0.6070 -1.3720
17773TIP3   OH274733   2.153   3.723   5.593  0.1104  0.1083 -0.5820
17773TIP3    H174734   2.178   3.773   5.516  1.1120  1.5923  0.6467
17773TIP3    H274735   2.219   3.653   5.598 -0.7492 -0.8346 -1.7770
17774TIP3   OH274736   4.612   5.227   5.869 -0.4695 -0.2717 -0.2874
17774TIP3    H174737   4.520   5.204   5.861 -0.8559  0.2201  1.9746
17774TIP3    H274738   4.627   5.233   5.963  1.6419  0.6386 -0.6224
17775TIP3   OH274739   5.484   3.423   2.088  0.0513 -0.0151  0.0697
17775TIP3    H174740   5.413   3.423   2.153  0.6026 -0.9178  0.6900
17775TIP3    H274741   5.562   3.448   2.137  0.3255  0.1360 -0.4328
17776TIP3   OH274742   2.754   5.622  16.292 -0.1412  0.2587  0.2792
17776TIP3    H174743   2.749   5.646  16.384  0.9471 -1.5171  0.8481
17776TIP3    H274744   2.670   5.580  16.274 -0.6482  1.2589  0.2320
17777TIP3   OH274745   1.077   6.692   0.576 -0.4991 -0.5396  0.2519
17777TIP3    H174746   1.074   6.598   0.561 -0.0885 -0.7342  1.2980
17777TIP3    H274747   0.996   6.712   0.622 -0.4105 -0.4464  0.3696
17778TIP3   OH274748   2.869   0.382  12.325  0.2274 -0.4633  0.1904
17778TIP3    H174749   2.959   0.365  12.352  0.6986  0.6628 -0.5838
17778TIP3    H274750   2.829   0.295  12.320  1.2603 -0.9817  0.5493
17779TIP3   OH274751   1.844   3.813  12.271  0.1175 -0.7126  0.0907
17779TIP3    H174752   1.817   3.850  12.187  0.6702 -0.9095 -0.1770
17779TIP3    H274753   1.806   3.872  12.336  0.6212  0.0828 -0.3168
17780TIP3   OH274754   5.401   5.266  12.082 -0.3163 -0.4227  0.5111
17780TIP3    H174755   5.481   5.318  12.083 -1.2852  1.1493  0.2129
17780TIP3    H274756   5.353   5.298  12.005 -1.7740 -0.4397  1.3758
17781TIP3   OH274757   3.181   0.735   0.667  0.0932  0.0712 -0.2343
17781TIP3    H174758   3.250   0.802   0.668 -0.1377  0.3272 -0.8983
17781TIP3    H274759   3.120   0.765   0.600  0.5076 -1.3298 -1.2782
17782TIP3   OH274760   2.295   3.978   3.790 -0.4532  0.4659 -0.0042
17782TIP3    H174761   2.224   4.011   3.845 -0.0318  1.5506 -0.0818
17782TIP3    H274762   2.252   3.925   3.723 -0.9761 -0.8792  1.3442
17783TIP3   OH274763   6.764   1.546   1.220  0.2796 -0.1171  0.1626
17783TIP3    H174764   6.809   1.476   1.268 -0.2442 -0.2706  0.4498
17783TIP3    H274765   6.829   1.581   1.161  0.8427 -0.1671  0.7423
17784TIP3   OH274766   0.192   1.164   4.234 -1.3665  0.2536  0.8973
17784TIP3    H174767   0.204   1.084   4.182 -1.5123  1.5234 -1.2229
17784TIP3    H274768   0.099   1.166   4.255 -2.0565  1.3739 -1.8272
17785TIP3   OH274769   3.448   3.821  11.179  0.0384 -0.2547 -0.1570
17785TIP3    H174770   3.363   3.817  11.134  0.2845  1.3316 -0.8301
17785TIP3    H274771   3.478   3.910  11.164  1.5227 -0.5954  0.6671
17786TIP3   OH274772   1.409   3.165  16.643 -0.0878 -0.3416 -0.0433
17786TIP3    H174773   1.337   3.103  16.632 -1.0859  0.7496  0.1518
17786TIP3    H274774   1.433   3.158  16.736  0.4927 -1.1523 -0.2464
17787TIP3   OH274775   0.312   6.354   0.511  0.2506 -0.3180  0.0638
17787TIP3    H174776   0.347   6.267   0.493 -1.2960 -0.8641 -0.4763
17787TIP3    H274777   0.355   6.410   0.446 -1.4423 -1.3644 -2.1082
17788TIP3   OH274778   6.020   0.552   2.834 -0.2833 -0.8760 -0.0818
17788TIP3    H174779   5.983   0.570   2.748 -2.0366 -0.4788  0.7149
17788TIP3    H274780   5.990   0.624   2.888  3.1327  0.4470  0.2804
17789TIP3   OH274781   6.535   2.978   5.656  0.0746 -0.0234  0.0832
17789TIP3    H174782   6.582   3.050   5.614 -0.0535  0.0769  0.1106
17789TIP3    H274783   6.444   3.006   5.656 -0.4998 -1.5414 -2.7760
17790TIP3   OH274784   6.392   2.359  14.800 -0.1486  0.0517 -0.1116
17790TIP3    H174785   6.467   2.401  14.757  0.3978 -0.7301  0.0517
17790TIP3    H274786   6.316   2.402  14.762  0.3875  1.1778  0.0354
17791TIP3   OH274787   6.460   4.265   5.795 -0.2534 -0.4133  0.5917
17791TIP3    H174788   6.411   4.198   5.843 -2.6154 -0.1568 -1.2603
17791TIP3    H274789   6.537   4.281   5.849 -2.0959 -0.9826  3.6461
17792TIP3   OH274790   6.015   3.968   4.490 -0.2040 -0.6268  0.0511
17792TIP3    H174791   6.067   3.895   4.524 -0.1136 -0.3721  0.4690
17792TIP3    H274792   5.990   4.018   4.568 -0.0796 -0.0902 -0.2478
17793TIP3   OH274793   6.154   3.528  12.222 -0.2314 -0.4007 -0.4117
17793TIP3    H174794   6.071   3.517  12.268 -0.7365  0.3890 -1.0944
17793TIP3    H274795   6.131   3.526  12.130  0.6509 -1.1128 -0.6388
17794TIP3   OH274796   4.066   5.683  14.026  0.1254 -0.5844 -0.9593
17794TIP3    H174797   3.994   5.621  14.019  2.0039 -2.8311 -2.1121
17794TIP3    H274798   4.074   5.721  13.938 -0.3137  0.4898 -0.5502
17795TIP3   OH274799   0.318   3.402  16.805  0.2991 -0.3225 -0.3131
17795TIP3    H174800   0.393   3.458  16.822  0.4839 -0.4342 -0.7465
17795TIP3    H274801   0.243   3.449  16.842  0.3302  0.5752 -1.3310
17796TIP3   OH274802   6.040   5.446  12.194 -0.0208  0.7605 -0.0398
17796TIP3    H174803   6.041   5.356  12.225 -2.7806  0.5823 -0.2297
17796TIP3    H274804   6.066   5.440  12.102 -0.0539  0.1787 -0.0175
17797TIP3   OH274805   1.838   4.112   3.918  0.1801 -0.0318  0.4665
17797TIP3    H174806   1.928   4.119   3.884 -0.5281 -1.5876 -1.9774
17797TIP3    H274807   1.845   4.053   3.993  1.1145 -0.7776 -0.1832
17798TIP3   OH274808   0.585   4.618   0.829  0.1577 -0.2182 -0.0548
17798TIP3    H174809   0.651   4.661   0.774  1.0573 -1.0881  0.3036
17798TIP3    H274810   0.610   4.526   0.828 -0.7876 -0.4918  0.4811
17799TIP3   OH274811   0.270   3.514  14.238  0.6536  0.1748 -0.0560
17799TIP3    H174812   0.343   3.452  14.225  0.7119  0.3079 -0.3679
17799TIP3    H274813   0.296   3.592  14.189  0.9280  0.7303  0.9600
17800TIP3   OH274814   4.548   4.370  14.952  0.0796  0.5036 -0.2323
17800TIP3    H174815   4.487   4.301  14.925 -0.3588  0.3309  1.1220
17800TIP3    H274816   4.599   4.389  14.873  1.4614 -2.6448 -0.2651
17801TIP3   OH274817   2.921   1.277   0.070 -0.7876  0.1115 -0.4041
17801TIP3    H174818   2.972   1.356   0.087  0.7762 -0.7851 -0.6998
17801TIP3    H274819   2.950   1.249  -0.017 -2.3667 -0.0309 -0.9125
17802TIP3   OH274820   1.517   5.463  11.574  0.0448 -0.2978  0.3637
17802TIP3    H174821   1.564   5.464  11.490  0.6182 -0.2018  0.6749
17802TIP3    H274822   1.487   5.373  11.584 -1.8642  0.1312 -0.9205
17803TIP3   OH274823   4.396   1.930  16.548 -0.4677 -0.6763 -0.2767
17803TIP3    H174824   4.340   1.853  16.535 -1.2843 -0.4894  1.6911
17803TIP3    H274825   4.484   1.894  16.556 -0.6377 -1.2468 -0.8444
17804TIP3   OH274826   4.191   4.315   4.613  0.3824 -0.3553  0.1904
17804TIP3    H174827   4.146   4.281   4.690  0.0829  1.0978  0.6738
17804TIP3    H274828   4.283   4.319   4.639  0.3085 -0.0509  0.4092
17805TIP3   OH274829   1.404   2.528   4.272 -0.2479  0.3808 -0.0972
17805TIP3    H174830   1.408   2.522   4.176  1.0985 -1.4829  0.0286
17805TIP3    H274831   1.446   2.448   4.303 -0.2101  1.1740  2.0717
17806TIP3   OH274832   6.722   6.478   6.276  0.3981 -0.3163  0.1712
17806TIP3    H174833   6.752   6.452   6.364  0.6115  0.6511  0.3977
17806TIP3    H274834   6.729   6.398   6.224  1.4584 -0.6152  0.7283
17807TIP3   OH274835   3.169   3.249  12.501 -0.2836 -0.2337 -0.2222
17807TIP3    H174836   3.218   3.258  12.583 -0.7524 -0.2595  0.0647
17807TIP3    H274837   3.223   3.292  12.436 -2.1695  4.5977  0.9583
17808TIP3   OH274838   5.532   0.618   2.217 -0.3028 -0.5009 -0.1071
17808TIP3    H174839   5.517   0.713   2.214 -0.9903 -0.6320 -1.0981
17808TIP3    H274840   5.538   0.591   2.126  2.0298 -1.1215  0.1407
17809TIP3   OH274841   3.114   2.508  11.936  0.0918 -0.2478  0.1940
17809TIP3    H174842   3.110   2.412  11.942  1.8930 -0.2937  1.5846
17809TIP3    H274843   3.177   2.533  12.003 -2.4311  2.1839  1.8347
17810TIP3   OH274844   0.814   5.256   0.829  0.4796  0.0410  0.1129
17810TIP3    H174845   0.801   5.336   0.881 -0.8896  0.5181 -0.9036
17810TIP3    H274846   0.906   5.234   0.841  0.4807  0.8083  1.7710
17811TIP3   OH274847   6.307   2.171  11.712  0.1963 -0.0021 -0.7593
17811TIP3    H174848   6.265   2.257  11.711  2.7481  1.3307 -1.0140
17811TIP3    H274849   6.309   2.144  11.621  1.1985  0.6590 -0.9522
17812TIP3   OH274850   0.992   0.212  15.389  0.7086  0.6182 -0.2172
17812TIP3    H174851   1.081   0.184  15.407  0.9277  1.4114 -0.0529
17812TIP3    H274852   1.000   0.271  15.314  0.0925 -0.7509 -1.4281
17813TIP3   OH274853   5.542   0.513  16.957 -0.1507 -0.0164  0.0512
17813TIP3    H174854   5.606   0.584  16.964 -1.2415  0.9958  0.0505
17813TIP3    H274855   5.534   0.496  16.864  2.2665 -2.2271  0.1118
17814TIP3   OH274856   5.080   1.064  12.569  0.3154  0.2994  0.0600
17814TIP3    H174857   5.105   1.145  12.524  0.6797 -0.2134 -0.6979
17814TIP3    H274858   5.055   1.091  12.657 -0.8436  1.4088 -0.5742
17815TIP3   OH274859   6.162   2.942   3.042  0.3847  0.2227  1.0525
17815TIP3    H174860   6.084   2.971   3.090 -0.5950  0.3065 -0.5141
17815TIP3    H274861   6.129   2.920   2.955  2.0372 -0.2982  0.5314
17816TIP3   OH274862   5.501   5.375  12.590  0.5052 -0.0610  0.3198
17816TIP3    H174863   5.534   5.338  12.508  3.1924  0.5923  1.0125
17816TIP3    H274864   5.410   5.345  12.595  0.8150 -1.6352 -1.9867
17817TIP3   OH274865   4.599   5.614  15.712 -0.0163 -0.1748  0.5620
17817TIP3    H174866   4.667   5.566  15.759 -0.1849  0.4417  1.4510
17817TIP3    H274867   4.559   5.670  15.778  0.6969  1.7839 -0.6000
17818TIP3   OH274868   0.593   5.955  16.606  0.4710  1.0407  0.3509
17818TIP3    H174869   0.536   6.032  16.602 -1.5419 -0.3803 -2.9411
17818TIP3    H274870   0.565   5.910  16.686 -2.8063  0.7259 -0.8051
17819TIP3   OH274871   2.824   0.975  12.250  0.1822 -0.5407 -0.0982
17819TIP3    H174872   2.827   0.928  12.167 -0.0280 -0.0665 -0.3830
17819TIP3    H274873   2.897   0.940  12.301  1.2573  0.2083 -1.0569
17820TIP3   OH274874   1.876   2.731  14.304 -0.7649  0.3624  0.4444
17820TIP3    H174875   1.827   2.795  14.356 -1.0838  0.0913  0.4859
17820TIP3    H274876   1.955   2.777  14.278 -0.5805  0.4932  1.1993
17821TIP3   OH274877   4.451   4.586  11.955  0.2075 -0.4059 -0.2238
17821TIP3    H174878   4.504   4.572  12.034  0.6538  0.8610 -0.2859
17821TIP3    H274879   4.375   4.635  11.985 -0.4320 -1.3121 -0.3225
17822TIP3   OH274880   0.270   6.413  12.170  0.3110  0.2752 -0.3895
17822TIP3    H174881   0.344   6.428  12.228  0.5186 -1.8592 -0.0240
17822TIP3    H274882   0.279   6.322  12.143 -0.4995  0.8412 -2.7864
17823TIP3   OH274883   2.260   2.227  14.408  0.1348  0.0320 -0.0335
17823TIP3    H174884   2.290   2.197  14.323  0.1658 -1.1000  0.3597
17823TIP3    H274885   2.333   2.207  14.467 -0.4960 -0.6671  0.5291
17824TIP3   OH274886   1.856   5.200  10.944  0.1878  0.1666 -0.2483
17824TIP3    H174887   1.782   5.179  10.887  0.6348  2.8362 -2.0072
17824TIP3    H274888   1.931   5.157  10.903  0.0817 -0.1757 -0.0890
17825TIP3   OH274889   3.059   2.052  14.735 -0.2899 -0.3422 -0.1648
17825TIP3    H174890   3.054   2.138  14.777  0.7710 -0.4201  0.1431
17825TIP3    H274891   2.979   2.046  14.683 -0.2281  0.9630 -0.4363
17826TIP3   OH274892   5.885   3.003  10.259 -0.1738  0.1637  0.1226
17826TIP3    H174893   5.797   2.966  10.255 -0.2507  0.2914  0.6430
17826TIP3    H274894   5.915   2.986  10.348  0.1943  0.4306  0.0543
17827TIP3   OH274895   0.081   5.560   1.281 -0.4583 -0.1407 -0.1534
17827TIP3    H174896   0.149   5.608   1.235 -1.4681  0.3629 -1.1683
17827TIP3    H274897   0.082   5.596   1.370  0.5557 -0.1168 -0.1655
17828TIP3   OH274898   0.657   3.704   0.947 -0.1972 -0.6710  0.2603
17828TIP3    H174899   0.660   3.669   0.858 -0.5504 -0.2155  0.0726
17828TIP3    H274900   0.742   3.679   0.984 -0.1590 -1.1081 -0.1042
17829TIP3   OH274901   4.514   4.270  12.514 -0.3399  0.5091 -0.0428
17829TIP3    H174902   4.473   4.193  12.554  1.3404 -0.3874  0.0676
17829TIP3    H274903   4.497   4.261  12.421  2.2704 -1.6851 -0.4455
17830TIP3   OH274904   3.456   2.648   4.342  0.4043 -0.5356  0.4202
17830TIP3    H174905   3.367   2.612   4.343  0.5146 -0.8129  1.4550
17830TIP3    H274906   3.480   2.650   4.250 -0.5556 -0.7515  0.1487
17831TIP3   OH274907   4.499   2.688  16.041  0.2658  0.5847  0.2448
17831TIP3    H174908   4.575   2.673  16.097  1.9810 -0.5476 -2.1729
17831TIP3    H274909   4.505   2.781  16.017  0.7953  0.5447  0.2100
17832TIP3   OH274910   1.192   3.870  11.098 -0.0015 -0.0237  0.6377
17832TIP3    H174911   1.241   3.853  11.178  0.9302  2.5825  0.7344
17832TIP3    H274912   1.110   3.910  11.127 -0.2179 -0.2156  0.3123
17833TIP3   OH274913   4.634   2.255  11.101  0.4077 -0.2861  0.4127
17833TIP3    H174914   4.586   2.286  11.178 -1.3052 -0.0730 -0.6716
17833TIP3    H274915   4.586   2.177  11.074  1.1384 -0.4965 -0.2944
17834TIP3   OH274916   4.154   6.440   2.116 -0.3480  0.7450 -0.1450
17834TIP3    H174917   4.133   6.455   2.024 -1.3626  3.0456  0.4200
17834TIP3    H274918   4.250   6.441   2.119 -0.1728 -2.0182 -1.5117
17835TIP3   OH274919   6.086   1.037  11.220 -0.2508 -0.2575  0.4120
17835TIP3    H174920   6.089   1.002  11.131 -1.4462  2.1879 -0.6982
17835TIP3    H274921   6.113   1.129  11.211  0.0533 -0.0595  2.6701
17836TIP3   OH274922   6.389   0.626  15.237  0.0051  0.5681  0.3183
17836TIP3    H174923   6.379   0.715  15.269 -2.6663 -0.0845  1.6723
17836TIP3    H274924   6.393   0.572  15.316 -2.5362 -0.7589 -0.3206
17837TIP3   OH274925   3.912   2.910   1.402 -0.4092 -0.1770  0.1435
17837TIP3    H174926   3.956   2.909   1.487  2.0414  1.3693 -0.9825
17837TIP3    H274927   3.981   2.934   1.340 -2.0861 -1.3305 -2.3194
17838TIP3   OH274928   2.527   5.463  12.932  0.1041 -0.0622 -0.2125
17838TIP3    H174929   2.515   5.550  12.894 -1.2441 -0.2835 -0.3568
17838TIP3    H274930   2.566   5.411  12.861 -0.2797  0.1100 -0.5551
17839TIP3   OH274931   6.737   2.734  13.599  0.1062  0.2205  0.5267
17839TIP3    H174932   6.682   2.656  13.587 -1.5912  1.6058 -1.6707
17839TIP3    H274933   6.723   2.759  13.690 -0.6268 -1.1036  0.8117
17840TIP3   OH274934   5.505   0.303   5.801  0.1279 -0.4201 -0.5293
17840TIP3    H174935   5.424   0.317   5.753  0.0645  0.7672 -0.1131
17840TIP3    H274936   5.478   0.299   5.893  0.3940 -1.3369 -0.4896
17841TIP3   OH274937   0.319   4.840  16.675  0.4039 -0.5094  0.1288
17841TIP3    H174938   0.380   4.785  16.724  1.6684  0.9428  0.2298
17841TIP3    H274939   0.322   4.805  16.585  3.5174  1.1600 -0.5437
17842TIP3   OH274940   5.806   5.610   4.291 -0.2297 -0.0987  0.0784
17842TIP3    H174941   5.737   5.676   4.295  0.4987  0.8404 -1.8155
17842TIP3    H274942   5.783   5.555   4.216  1.1237  0.3382 -0.7056
17843TIP3   OH274943   2.319   3.452  11.534  0.4102 -0.3232 -0.1143
17843TIP3    H174944   2.356   3.369  11.564 -0.9002 -0.9440 -0.1779
17843TIP3    H274945   2.395   3.504  11.509  1.2343 -1.6656 -0.5040
17844TIP3   OH274946   3.971   3.537   1.563 -0.8206 -0.1744 -0.4554
17844TIP3    H174947   3.916   3.479   1.615 -0.2525  0.0977  0.4796
17844TIP3    H274948   3.941   3.524   1.473 -2.4098 -0.0348  0.0142
17845TIP3   OH274949   3.852   6.244   4.309 -0.1326  0.4769 -0.2018
17845TIP3    H174950   3.795   6.275   4.239 -0.8085 -0.7053 -0.1878
17845TIP3    H274951   3.848   6.313   4.375  0.2591  1.4533 -1.1589
17846TIP3   OH274952   6.524   4.026  13.128  0.1869  0.3639 -0.6816
17846TIP3    H174953   6.562   3.953  13.080  0.0352 -0.5211  0.5064
17846TIP3    H274954   6.495   3.988  13.211  0.8150  1.9039  0.3012
17847TIP3   OH274955   2.332   4.315   4.407  0.3066 -0.4068  0.3341
17847TIP3    H174956   2.335   4.399   4.360  0.0621 -0.6223 -0.0692
17847TIP3    H274957   2.342   4.339   4.499 -1.1152  0.2054  0.3627
17848TIP3   OH274958   4.000   2.011   5.081 -0.1984  0.3543  0.5839
17848TIP3    H174959   4.049   2.047   5.155  0.5973  0.6357 -0.0620
17848TIP3    H274960   4.066   1.963   5.031 -0.2724  1.8332 -1.0129
17849TIP3   OH274961   3.131   0.978   3.142 -0.1397  0.6592  0.3811
17849TIP3    H174962   3.089   0.935   3.067  2.2359  0.5254 -0.9834
17849TIP3    H274963   3.223   0.955   3.134  0.3339  1.4019  2.8846
17850TIP3   OH274964   5.665   6.397   0.785 -0.7612  0.1753  0.2997
17850TIP3    H174965   5.636   6.433   0.702 -1.4721  0.1476  0.5308
17850TIP3    H274966   5.591   6.411   0.845 -0.3956 -0.1223  0.8333
17851TIP3   OH274967   5.624   2.961  15.926 -0.4654 -0.1229 -0.0585
17851TIP3    H174968   5.616   3.022  15.852 -0.5803 -1.3196 -1.0835
17851TIP3    H274969   5.699   2.906  15.904 -0.8897 -0.9085  0.3968
17852TIP3   OH274970   5.132   3.494   3.440 -0.0500 -0.1889 -0.1334
17852TIP3    H174971   5.120   3.469   3.531  0.8666 -0.5150 -0.0907
17852TIP3    H274972   5.098   3.420   3.390  0.2631 -0.3954 -0.0417
17853TIP3   OH274973   6.620   4.627   0.146 -0.2196  0.2078  0.5925
17853TIP3    H174974   6.633   4.720   0.126  0.6159  0.0014  0.1545
17853TIP3    H274975   6.590   4.589   0.064 -2.2800  0.3945  1.2049
17854TIP3   OH274976   0.417   1.297   2.251  0.3321 -0.4003  0.4151
17854TIP3    H174977   0.341   1.242   2.268 -0.0621  0.4967  1.7968
17854TIP3    H274978   0.455   1.262   2.171 -1.6990 -0.6861 -0.4780
17855TIP3   OH274979   6.740   2.370  15.878  0.0649 -0.2991  0.0692
17855TIP3    H174980   6.777   2.457  15.865  1.4121 -0.9298 -0.4937
17855TIP3    H274981   6.773   2.319  15.804 -1.0312 -1.1926  0.1715
17856TIP3   OH274982   5.950   5.813   4.413 -0.0614 -0.0654  0.4649
17856TIP3    H174983   6.010   5.796   4.340  0.1620  0.5227  0.4988
17856TIP3    H274984   5.884   5.745   4.407  1.2549 -1.4732  1.1349
17857TIP3   OH274985   5.945   1.626   5.185  1.0839 -0.1047 -0.1866
17857TIP3    H174986   5.950   1.686   5.111 -0.4690 -0.0646 -0.2807
17857TIP3    H274987   5.880   1.561   5.159 -0.0297  0.3215  1.4213
17858TIP3   OH274988   0.887   0.292  12.636  0.3772  0.0129  0.3761
17858TIP3    H174989   0.920   0.259  12.719 -1.3063 -3.4318 -0.1585
17858TIP3    H274990   0.792   0.300  12.649  0.3206  1.3518 -0.6450
17859TIP3   OH274991   3.447   4.205   6.440 -0.1169 -0.4658 -0.0602
17859TIP3    H174992   3.513   4.180   6.504 -1.0380  0.0001  1.1160
17859TIP3    H274993   3.365   4.208   6.491 -0.8762 -0.1215 -1.2724
17860TIP3   OH274994   2.285   6.567  15.764  0.8442  0.0400 -0.2591
17860TIP3    H174995   2.214   6.514  15.800  1.5612  0.2594  1.5467
17860TIP3    H274996   2.321   6.513  15.693 -0.3385 -0.5678 -0.4243
17861TIP3   OH274997   1.830   4.500  16.443 -0.0547 -0.2381 -0.3092
17861TIP3    H174998   1.816   4.563  16.372 -0.7148 -0.5048 -0.4266
17861TIP3    H274999   1.858   4.553  16.518 -1.0962  0.2601 -0.2589
17862TIP3   OH275000   2.612   1.792   0.703  0.0276 -0.5010 -0.0004
17862TIP3    H175001   2.593   1.769   0.612  2.2978 -3.3504  0.1117
17862TIP3    H275002   2.701   1.826   0.701  0.2580 -0.9854  1.2147
17863TIP3   OH275003   3.383   6.745  15.326 -0.1810  0.0547 -0.4525
17863TIP3    H175004   3.356   6.706  15.409  0.7081  1.2858  0.4561
17863TIP3    H275005   3.326   6.822  15.317  0.3077  0.4152 -0.5253
17864TIP3   OH275006   2.332   1.625  12.575  0.2985 -0.0779 -0.1635
17864TIP3    H175007   2.382   1.549  12.544 -1.0454 -1.5800  1.1828
17864TIP3    H275008   2.301   1.667  12.495  0.3356 -1.4775 -0.9445
17865TIP3   OH275009   0.570   1.797   3.623  0.6279 -0.2131  0.5042
17865TIP3    H175010   0.483   1.757   3.634  0.2761 -0.0103 -1.3302
17865TIP3    H275011   0.568   1.873   3.681 -0.5789  0.0187  0.1946
17866TIP3   OH275012   1.695   2.991  13.847 -0.2848 -0.2304 -0.6356
17866TIP3    H175013   1.777   2.972  13.803  0.8165  1.9213  0.3157
17866TIP3    H275014   1.708   2.961  13.937 -0.9255 -0.7858 -0.7234
17867TIP3   OH275015   4.102   4.305  11.571 -0.1847 -0.1291 -0.2876
17867TIP3    H175016   4.136   4.341  11.488  1.2478  0.7359  0.6284
17867TIP3    H275017   4.143   4.359  11.638 -0.5695 -1.4324  1.0337
17868TIP3   OH275018   5.929   6.526   3.083  0.4564  0.2200  0.4487
17868TIP3    H175019   5.836   6.543   3.094  0.3666  0.3270 -0.4238
17868TIP3    H275020   5.962   6.512   3.172 -0.3084  0.5954  0.7943
17869TIP3   OH275021   3.368   5.372   3.996 -0.2889 -0.0778 -0.2340
17869TIP3    H175022   3.353   5.434   4.067 -0.8733 -0.1587 -0.2841
17869TIP3    H275023   3.386   5.289   4.040  0.2732  0.0746 -0.1703
17870TIP3   OH275024   6.783   5.570   1.807  0.0226  0.1462 -0.1442
17870TIP3    H175025   6.845   5.509   1.768 -0.1992  0.2588 -0.6750
17870TIP3    H275026   6.773   5.539   1.898  0.8544  0.1368 -0.0520
17871TIP3   OH275027   4.760   2.736   2.031  0.5704  0.2413  0.2691
17871TIP3    H175028   4.800   2.653   2.005  0.1807  1.0240 -3.2471
17871TIP3    H275029   4.678   2.710   2.074  0.1665 -1.2292 -1.2742
17872TIP3   OH275030   5.508   4.024  13.126  0.3410 -0.1292  0.0515
17872TIP3    H175031   5.494   4.112  13.090 -1.2313  0.2134  1.3837
17872TIP3    H275032   5.420   3.988  13.134  0.9970 -2.0877 -1.0133
17873TIP3   OH275033   3.259   3.045  14.662 -0.3649 -0.0053 -0.3798
17873TIP3    H175034   3.300   3.116  14.711  0.0396 -0.4392 -0.0778
17873TIP3    H275035   3.187   3.087  14.615 -0.0339  0.6308 -0.3321
17874TIP3   OH275036   5.564   3.157  15.475  0.1640 -0.2586  0.2156
17874TIP3    H175037   5.483   3.179  15.521 -1.0739 -0.5035 -1.7135
17874TIP3    H275038   5.556   3.063  15.456  0.3230 -0.0496 -0.9882
17875TIP3   OH275039   6.454   5.464   1.405 -0.4703  0.0697  0.3056
17875TIP3    H175040   6.510   5.505   1.471 -0.5680  0.2681  0.2641
17875TIP3    H275041   6.490   5.493   1.321  0.4103 -1.1511  0.2310
17876TIP3   OH275042   0.248   5.194   1.484  0.9457 -0.1615  0.0566
17876TIP3    H175043   0.187   5.193   1.410  0.3014  0.9547  0.5487
17876TIP3    H275044   0.220   5.122   1.540 -1.4507  1.6787  1.4343
17877TIP3   OH275045   0.385   5.695  11.908  0.4315 -0.4187  0.2508
17877TIP3    H175046   0.465   5.648  11.933  1.2863  0.6368 -0.4176
17877TIP3    H275047   0.413   5.786  11.898 -0.8926 -0.0102  0.1297
17878TIP3   OH275048   1.159   6.351   2.890  0.2423 -0.4180  0.4025
17878TIP3    H175049   1.235   6.374   2.944  0.3051  2.2496 -0.7085
17878TIP3    H275050   1.097   6.422   2.903  0.4215  0.5982 -3.2330
17879TIP3   OH275051   4.806   5.504   2.384 -0.6576  0.0523  0.1838
17879TIP3    H175052   4.821   5.561   2.459 -0.0769  1.5756 -1.0150
17879TIP3    H275053   4.818   5.416   2.418  1.3367  0.7522  1.5315
17880TIP3   OH275054   4.896   0.738  12.737  0.4696  0.1309 -0.4830
17880TIP3    H175055   4.857   0.773  12.657 -0.5871  1.1745  0.4566
17880TIP3    H275056   4.827   0.745  12.802  1.8357  0.8723  0.9471
17881TIP3   OH275057   4.541   2.819   4.584 -0.3393  0.2117 -0.1090
17881TIP3    H175058   4.613   2.762   4.609  0.6807  1.5229  0.0449
17881TIP3    H275059   4.498   2.773   4.512  1.2249 -0.1739 -0.8465
17882TIP3   OH275060   4.627   2.297  13.058  0.0446 -0.1606  0.0088
17882TIP3    H175061   4.692   2.325  13.123 -1.3826  1.2428  0.9134
17882TIP3    H275062   4.546   2.340  13.086 -0.7618 -0.0025 -2.3826
17883TIP3   OH275063   4.337   3.902   6.928 -0.2945  0.0909 -0.1992
17883TIP3    H175064   4.246   3.930   6.913 -0.3717 -1.1269 -2.3178
17883TIP3    H275065   4.390   3.972   6.889 -0.3494  0.1164 -0.2287
17884TIP3   OH275066   4.727   6.106  11.204 -0.0765 -0.1700  0.2200
17884TIP3    H175067   4.634   6.101  11.180 -0.2595  1.9912  0.3601
17884TIP3    H275068   4.726   6.117  11.299  0.3361 -0.0947  0.2142
17885TIP3   OH275069   2.436   3.390  14.889  0.7368  0.1821  0.1315
17885TIP3    H175070   2.353   3.436  14.906 -0.3167 -2.0199  1.4335
17885TIP3    H275071   2.479   3.386  14.974 -0.1469 -2.7914  0.5724
17886TIP3   OH275072   4.553   2.309  11.375  0.2622 -0.2723  0.0785
17886TIP3    H175073   4.469   2.275  11.405  0.3832 -0.8340 -0.2168
17886TIP3    H275074   4.568   2.388  11.428 -1.2707  0.8278 -1.0396
17887TIP3   OH275075   4.136   1.971   4.143  0.2007  0.4466 -0.3021
17887TIP3    H175076   4.058   2.026   4.153 -0.1052 -0.0820  0.2586
17887TIP3    H275077   4.209   2.029   4.166 -0.1723  0.4343  0.9744
17888TIP3   OH275078   0.763   6.286   2.569 -0.3875  0.3647  0.0564
17888TIP3    H175079   0.750   6.267   2.662  2.6197  2.5897  1.1322
17888TIP3    H275080   0.840   6.235   2.545  2.1635  3.6632  0.4737
17889TIP3   OH275081   1.759   1.421   4.010  0.3834  0.7942  0.0372
17889TIP3    H175082   1.809   1.503   4.009  0.0827  1.0433  1.6383
17889TIP3    H275083   1.687   1.436   3.948  1.8402  0.6902 -1.7548
17890TIP3   OH275084   4.878   3.579   4.580 -0.2033  0.4523  0.3495
17890TIP3    H175085   4.937   3.636   4.629 -0.7696  1.1019  0.2918
17890TIP3    H275086   4.809   3.556   4.642 -0.1557  0.0924  0.2729
17891TIP3   OH275087   5.187   0.162   2.262 -0.3430 -0.2457  0.2708
17891TIP3    H175088   5.253   0.150   2.194  1.1464  0.8950  1.4376
17891TIP3    H275089   5.125   0.090   2.249  0.1063 -0.2924 -1.9967
17892TIP3   OH275090   2.892   4.723   2.998 -0.3214 -0.1016  0.2907
17892TIP3    H175091   2.935   4.639   3.013  1.6906  0.7280 -0.4621
17892TIP3    H275092   2.907   4.772   3.080  0.3769  0.2684 -0.0541
17893TIP3   OH275093   2.050   5.277  16.875  0.0102  0.2767 -0.1904
17893TIP3    H175094   2.134   5.231  16.876 -0.3386 -0.4122 -1.4228
17893TIP3    H275095   2.064   5.353  16.931  1.3180 -0.0701 -0.0218
17894TIP3   OH275096   5.269   3.881  15.365 -0.5991  0.4965 -0.3218
17894TIP3    H175097   5.222   3.904  15.284 -1.2098  0.9701  0.1582
17894TIP3    H275098   5.226   3.801  15.396 -1.9020  1.5464  0.7270
17895TIP3   OH275099   0.920   2.500  14.038  0.1782 -0.3007 -0.1654
17895TIP3    H175100   0.887   2.461  14.119  1.3655 -1.2992 -0.1297
17895TIP3    H275101   0.927   2.427  13.977  2.1169 -0.1444 -0.2078
17896TIP3   OH275102   1.504   6.098  15.576 -1.0574 -0.4069 -0.3457
17896TIP3    H175103   1.527   6.095  15.669 -1.3978  1.1436 -0.1804
17896TIP3    H275104   1.548   6.022  15.538 -0.1686 -0.5647  0.9179
17897TIP3   OH275105   1.571   4.705   3.532 -0.1791 -0.4403  0.3287
17897TIP3    H175106   1.511   4.651   3.482 -1.8881  0.0438  1.7507
17897TIP3    H275107   1.544   4.694   3.623  0.9597  0.9410  0.8864
17898TIP3   OH275108   2.261   5.220   2.787 -0.1722 -0.2491  0.3623
17898TIP3    H175109   2.251   5.294   2.727  2.0365  0.2514  0.5117
17898TIP3    H275110   2.239   5.143   2.733 -0.0877  0.3342 -0.5365
17899TIP3   OH275111   1.419   3.680   0.913 -0.1724 -0.2537  0.4900
17899TIP3    H175112   1.497   3.728   0.942 -0.3646  0.6033 -0.3907
17899TIP3    H275113   1.426   3.678   0.818 -0.4726 -1.4879  0.4734
17900TIP3   OH275114   1.424   1.458  13.223 -0.6154  0.8856 -0.0144
17900TIP3    H175115   1.352   1.520  13.232 -1.8667 -0.7745  2.1833
17900TIP3    H275116   1.393   1.394  13.159 -0.6204  0.7897  0.0836
17901TIP3   OH275117   4.936   3.358   3.953 -0.2084  0.4170  0.2544
17901TIP3    H175118   4.997   3.288   3.974  0.2893  0.7169 -0.1617
17901TIP3    H275119   4.949   3.423   4.022 -0.4062  0.2658  0.4350
17902TIP3   OH275120   4.458   2.054   6.031 -0.0070  0.4777 -0.2105
17902TIP3    H175121   4.491   1.995   6.099  1.6030  1.9398  0.3283
17902TIP3    H275122   4.368   2.073   6.058  0.5057  0.7862  1.3574
17903TIP3   OH275123   5.410   2.293  14.719  0.1900  0.6892 -0.5119
17903TIP3    H175124   5.474   2.361  14.696 -0.1898  0.8510 -1.1273
17903TIP3    H275125   5.332   2.315  14.667 -0.1358  0.1124 -0.2786
17904TIP3   OH275126   1.299   4.125  16.876 -0.0763  0.6821  0.4683
17904TIP3    H175127   1.229   4.078  16.831  1.7049  0.6064 -2.5429
17904TIP3    H275128   1.267   4.215  16.884 -0.6363  0.5928 -0.6078
17905TIP3   OH275129   0.584   1.226  12.160 -0.0463  0.8889 -0.4300
17905TIP3    H175130   0.595   1.258  12.071 -0.0416 -1.1692 -1.2214
17905TIP3    H275131   0.672   1.199  12.187 -0.3589 -0.3842 -0.6069
17906TIP3   OH275132   1.255   2.179  11.689 -0.1741 -0.6651  0.3797
17906TIP3    H175133   1.182   2.241  11.695  0.4886  0.0501  1.2608
17906TIP3    H275134   1.263   2.160  11.596  1.5999  3.0596 -0.4147
17907TIP3   OH275135   4.004   1.622   0.584  0.2927 -0.1569 -0.0315
17907TIP3    H175136   4.023   1.552   0.521 -0.7209 -1.2132  0.7984
17907TIP3    H275137   3.934   1.673   0.541  1.1185  0.4599 -0.6911
17908TIP3   OH275138   4.953   0.269   2.489  0.4785 -0.3255 -0.1976
17908TIP3    H175139   4.981   0.247   2.578  2.3411 -0.3520 -0.7645
17908TIP3    H275140   5.033   0.296   2.444 -0.5820  0.6171 -1.6123
17909TIP3   OH275141   5.928   1.259   4.381  0.5662  1.0433 -0.1246
17909TIP3    H175142   5.892   1.200   4.447  0.8071  0.8886 -0.1300
17909TIP3    H275143   5.970   1.201   4.318  1.0464  1.2361  0.0148
17910TIP3   OH275144   0.485   6.685  13.083  0.4140 -0.0362 -0.1852
17910TIP3    H175145   0.423   6.633  13.031 -0.6401 -0.8877  1.8377
17910TIP3    H275146   0.570   6.666  13.044 -0.3685 -0.1607 -1.9748
17911TIP3   OH275147   6.435   5.202   1.126 -0.8277  0.7809 -0.1330
17911TIP3    H175148   6.408   5.207   1.218 -2.7278  0.6393 -0.6471
17911TIP3    H275149   6.492   5.126   1.121  0.8379  1.8602  1.2632
17912TIP3   OH275150   6.626   0.818   3.495 -0.4121  0.0934 -0.4795
17912TIP3    H175151   6.592   0.907   3.489  1.9944  1.1341  0.4159
17912TIP3    H275152   6.658   0.811   3.585 -0.3023 -1.6091 -0.6241
17913TIP3   OH275153   0.535   1.371  15.677 -0.5144 -0.3837 -0.5345
17913TIP3    H175154   0.458   1.405  15.632 -0.9865 -2.0306 -1.0403
17913TIP3    H275155   0.596   1.348  15.607 -0.3414 -0.8543 -0.2371
17914TIP3   OH275156   3.816   2.237  12.574 -0.4286  0.0451 -0.0129
17914TIP3    H175157   3.831   2.165  12.513  0.0510 -0.5153  0.7506
17914TIP3    H275158   3.731   2.273  12.548 -0.6095 -0.7065 -0.4933
17915TIP3   OH275159   1.736   6.755   4.603 -0.1208  0.1136 -0.1538
17915TIP3    H175160   1.777   6.755   4.689  1.8819 -1.8639 -0.9899
17915TIP3    H275161   1.649   6.717   4.618  0.7868 -1.7158  0.8182
17916TIP3   OH275162   5.896   5.689  11.969  0.0771 -0.7613  0.4415
17916TIP3    H175163   5.812   5.709  11.926 -1.2893  1.6926  3.7874
17916TIP3    H275164   5.961   5.738  11.918 -1.0799  0.1607 -0.2118
17917TIP3   OH275165   3.730   2.644   3.229 -0.3313 -0.5276 -0.6536
17917TIP3    H175166   3.797   2.662   3.163 -0.3062 -0.8733 -0.7218
17917TIP3    H275167   3.647   2.667   3.186 -0.2699 -0.2373 -0.6183
17918TIP3   OH275168   3.532   3.970   2.589  0.4211  0.2906  0.0260
17918TIP3    H175169   3.485   3.903   2.539  2.3665 -1.7437  0.7749
17918TIP3    H275170   3.604   3.998   2.532  0.0201  1.3135 -0.0151
17919TIP3   OH275171   0.172   1.431   6.517 -0.3549 -0.5800  0.2583
17919TIP3    H175172   0.251   1.379   6.531 -0.2233 -0.8185 -1.2244
17919TIP3    H275173   0.192   1.516   6.556 -0.4620 -1.4867  2.4386
17920TIP3   OH275174   4.043   1.586  11.451  0.4004 -0.1362 -0.5963
17920TIP3    H175175   4.066   1.552  11.537  1.7065 -1.6167 -1.4705
17920TIP3    H275176   4.093   1.667  11.442  0.9368 -0.4351 -0.2949
17921TIP3   OH275177   6.247   4.617  14.204  1.2331  0.3829 -0.2874
17921TIP3    H175178   6.190   4.688  14.235 -0.1354 -0.2597 -1.2296
17921TIP3    H275179   6.253   4.631  14.110  0.7682 -0.8446 -0.5196
17922TIP3   OH275180   1.909   0.606  16.704  0.2176 -0.2646 -0.1346
17922TIP3    H175181   1.939   0.648  16.784 -0.2347  0.1581 -0.1845
17922TIP3    H275182   1.855   0.533  16.733 -1.3627  0.8880 -0.0259
17923TIP3   OH275183   4.597   4.039   2.718  0.5778  0.1175  0.4692
17923TIP3    H175184   4.633   3.951   2.726 -0.3571 -0.3719 -0.4684
17923TIP3    H275185   4.512   4.034   2.760  0.4993  0.5596  0.3694
17924TIP3   OH275186   3.442   5.023  16.147 -0.3381 -0.0294 -0.3566
17924TIP3    H175187   3.420   4.942  16.193 -0.0211 -0.0449 -0.2316
17924TIP3    H275188   3.517   5.000  16.092  0.2178  0.3674  0.2286
17925TIP3   OH275189   6.057   5.148  11.410  0.1943  0.2336  0.0862
17925TIP3    H175190   6.029   5.128  11.321 -1.5812  1.6574  0.2545
17925TIP3    H275191   6.022   5.236  11.427  0.7658  0.1350  2.0682
17926TIP3   OH275192   3.050   6.471  16.493  0.4560 -0.5349 -0.0067
17926TIP3    H175193   2.968   6.433  16.463  0.3797 -0.2291 -0.1919
17926TIP3    H275194   3.025   6.559  16.523  0.4904 -0.8939  1.1251
17927TIP3   OH275195   6.751   2.658   2.363  0.2124 -0.6135 -0.1976
17927TIP3    H175196   6.788   2.628   2.280 -0.5818  0.6105 -1.0212
17927TIP3    H275197   6.750   2.753   2.357 -1.2077 -0.5483  0.6135
17928TIP3   OH275198   5.462   1.249   0.598  0.2647  0.3006  0.7870
17928TIP3    H175199   5.367   1.242   0.605  0.2616  1.2935  2.2043
17928TIP3    H275200   5.491   1.162   0.570 -1.0215 -0.0925  0.6202
17929TIP3   OH275201   6.529   2.886   1.627 -0.1335  0.3917 -0.4750
17929TIP3    H175202   6.547   2.799   1.661  0.9524  0.6234 -0.4023
17929TIP3    H275203   6.446   2.912   1.667 -1.2920 -1.2247 -1.7271
17930TIP3   OH275204   0.368   5.400  12.071  0.2843 -0.4859 -0.0408
17930TIP3    H175205   0.330   5.480  12.108 -1.3287  0.3194 -3.1109
17930TIP3    H275206   0.457   5.425  12.047  0.5683 -0.3461  1.0931
17931TIP3   OH275207   2.636   0.705   2.044  0.0755 -1.0103  0.0779
17931TIP3    H175208   2.697   0.778   2.054 -0.7105 -0.5427  1.8631
17931TIP3    H275209   2.679   0.631   2.087 -0.2287 -0.8996  0.5849
17932TIP3   OH275210   1.848   1.845  10.817  0.3839 -0.3176  0.4835
17932TIP3    H175211   1.782   1.914  10.825  0.2277 -0.4225  0.0976
17932TIP3    H275212   1.838   1.813  10.728  0.7891 -0.5055  0.5069
17933TIP3   OH275213   4.437   6.637   1.461 -0.5230 -0.1618 -0.6322
17933TIP3    H175214   4.485   6.703   1.511  0.9278 -1.8145  0.2393
17933TIP3    H275215   4.365   6.686   1.421 -0.2927  1.6880  1.0511
17934TIP3   OH275216   1.165   6.022  11.358 -0.2151  0.0315  0.0003
17934TIP3    H175217   1.078   6.063  11.364  0.0478  0.7076 -0.7389
17934TIP3    H275218   1.183   6.017  11.264  0.0882 -1.1094  0.0982
17935TIP3   OH275219   1.466   0.780  15.141  0.3721 -0.0260 -0.1051
17935TIP3    H175220   1.386   0.832  15.127  1.4155  1.4479 -0.8528
17935TIP3    H275221   1.477   0.777  15.236  0.4706  1.4482 -0.0526
17936TIP3   OH275222   5.391   4.125   3.574  0.4346 -0.0635 -0.1184
17936TIP3    H175223   5.479   4.164   3.567  0.3956 -0.0047 -0.2847
17936TIP3    H275224   5.379   4.110   3.668  0.7744 -0.4177 -0.1310
17937TIP3   OH275225   6.489   1.650  15.450  0.0065  0.2234  0.1101
17937TIP3    H175226   6.424   1.698  15.399 -0.0857 -0.3309 -0.2982
17937TIP3    H275227   6.444   1.569  15.475  1.0089 -0.8313 -1.4075
17938TIP3   OH275228   6.668   3.422   4.933  0.1860  0.1255 -0.1893
17938TIP3    H175229   6.597   3.366   4.965  0.0408 -0.4295 -1.4106
17938TIP3    H275230   6.741   3.405   4.993 -0.3376 -0.2132  0.3622
17939TIP3   OH275231   1.861   4.762   2.887 -0.2166  0.2275 -0.8591
17939TIP3    H175232   1.772   4.747   2.855 -1.2435  1.3011  1.3224
17939TIP3    H275233   1.860   4.733   2.978  1.7258  0.1454 -0.8064
17940TIP3   OH275234   4.615   5.362  12.553 -0.4680 -0.3869 -0.0572
17940TIP3    H175235   4.529   5.327  12.527 -0.4169 -0.9556  0.4940
17940TIP3    H275236   4.676   5.291  12.534  0.1174  0.5462 -1.8134
17941TIP3   OH275237   1.553   2.727  12.626  0.1201 -0.7312 -0.4299
17941TIP3    H175238   1.508   2.747  12.708 -0.4133 -2.0609 -0.3766
17941TIP3    H275239   1.574   2.813  12.588 -2.3899 -0.0489 -0.4228
17942TIP3   OH275240   5.017   5.143  15.584 -0.0879  0.4994  0.4735
17942TIP3    H175241   4.972   5.098  15.655 -2.2547 -1.7838 -2.1037
17942TIP3    H275242   5.084   5.081  15.555 -0.0046  0.9031 -0.2094
17943TIP3   OH275243   1.981   2.179  13.644 -0.4709  0.2347 -0.4884
17943TIP3    H175244   1.932   2.259  13.624 -1.4908 -0.1497  0.3627
17943TIP3    H275245   1.931   2.109  13.601 -1.7795 -0.3978  1.8913
17944TIP3   OH275246   3.532   3.413  11.325  0.2323 -0.0928 -0.0138
17944TIP3    H175247   3.568   3.349  11.388 -2.0184 -1.5560 -0.1179
17944TIP3    H275248   3.494   3.481  11.380  0.3982 -0.1297  0.1505
17945TIP3   OH275249   3.690   1.973  13.005 -0.0594  0.1953  0.6573
17945TIP3    H175250   3.626   1.902  13.014 -0.0706 -0.1005 -1.2741
17945TIP3    H275251   3.775   1.928  12.999 -0.0427  0.3321 -0.3264
17946TIP3   OH275252   4.330   3.623   5.663 -0.1702 -0.2688  0.4132
17946TIP3    H175253   4.410   3.656   5.623 -1.4821  2.9995  0.1976
17946TIP3    H275254   4.312   3.682   5.735 -2.2806 -1.0141  0.5869
17947TIP3   OH275255   5.868   5.199   5.599 -0.2917 -0.0992 -0.0827
17947TIP3    H175256   5.789   5.215   5.548  0.2288  0.1328 -0.8522
17947TIP3    H275257   5.921   5.141   5.543  0.8945  1.2644 -0.4531
17948TIP3   OH275258   3.035   4.531   1.809  0.0085 -0.0589  0.3732
17948TIP3    H175259   2.977   4.456   1.797 -0.0206  0.0401 -0.1540
17948TIP3    H275260   3.079   4.515   1.893 -0.9317 -0.0274  0.8826
17949TIP3   OH275261   3.971   6.652  11.206  0.0327  0.0919 -0.0146
17949TIP3    H175262   3.884   6.693  11.206  0.5469  1.2756 -1.2738
17949TIP3    H275263   3.963   6.580  11.144 -0.3177 -0.4524  0.6514
17950TIP3   OH275264   3.103   4.039   0.438  0.3474 -0.2265  0.0100
17950TIP3    H175265   3.109   4.020   0.532 -0.4390 -1.0405 -0.0982
17950TIP3    H275266   3.027   4.096   0.430 -0.1690 -0.9389 -0.2404
17951TIP3   OH275267   1.138   5.925   5.218  0.0028  0.0523  0.0811
17951TIP3    H175268   1.177   5.985   5.154  0.9412 -0.1126  0.4843
17951TIP3    H275269   1.045   5.948   5.218  0.2221  0.9912 -0.3301
17952TIP3   OH275270   2.419   0.150  14.875 -0.1043 -0.0643 -0.3685
17952TIP3    H175271   2.461   0.098  14.943 -1.3334  0.1889  0.6102
17952TIP3    H275272   2.402   0.088  14.804  1.0614 -0.3574 -0.4090
17953TIP3   OH275273   1.384   4.334   1.313  0.4591 -0.3921 -0.1441
17953TIP3    H175274   1.343   4.322   1.398 -1.0494  0.6937 -0.6753
17953TIP3    H275275   1.472   4.297   1.323  0.1870 -0.6089  1.7519
17954TIP3   OH275276   1.510   2.098   6.124  0.2274  0.2662  0.2096
17954TIP3    H175277   1.577   2.163   6.140  0.0347  0.6808 -0.6222
17954TIP3    H275278   1.427   2.145   6.137  0.0902  0.1376 -0.1767
17955TIP3   OH275279   4.359   2.881  10.982  0.4680 -0.1872 -0.4019
17955TIP3    H175280   4.347   2.787  10.967 -2.4670  0.0026  0.1176
17955TIP3    H275281   4.272   2.919  10.968  1.1145  2.1928  1.3397
17956TIP3   OH275282   5.962   1.108   2.593 -0.1448  0.2064  0.4404
17956TIP3    H175283   6.056   1.095   2.607 -0.4010 -1.1501  1.0253
17956TIP3    H275284   5.933   1.157   2.670 -0.0837 -0.2001  0.7241
17957TIP3   OH275285   6.743   3.246  12.781 -0.1466  0.6215  0.0763
17957TIP3    H175286   6.739   3.168  12.838  1.5549  1.1129  0.9459
17957TIP3    H275287   6.656   3.285  12.789 -0.9925 -1.0832 -0.2494
17958TIP3   OH275288   1.993   5.813   2.961  0.1109  0.4450 -0.1829
17958TIP3    H175289   1.952   5.881   3.014  0.1059  0.1070  0.2532
17958TIP3    H275290   2.004   5.853   2.874  1.1018  1.3795  0.3526
17959TIP3   OH275291   1.935   2.901   0.927  0.0389  0.0373 -0.1763
17959TIP3    H175292   2.015   2.850   0.939  0.1739 -0.1281 -1.6246
17959TIP3    H275293   1.957   2.988   0.960  0.2276 -0.4609  1.0813
17960TIP3   OH275294   6.699   1.952   0.630 -0.3304  0.0055 -0.3598
17960TIP3    H175295   6.685   1.857   0.633  0.6345 -0.1454 -0.2510
17960TIP3    H275296   6.747   1.971   0.711 -0.3918  0.5652 -0.4524
17961TIP3   OH275297   0.285   0.012  13.367 -0.2209 -0.6155  0.7338
17961TIP3    H175298   0.312  -0.057  13.307 -1.7389 -0.7804  0.2040
17961TIP3    H275299   0.245  -0.035  13.441 -0.4520 -0.3345  0.7904
17962TIP3   OH275300   0.910   4.052  12.019  0.2834 -0.4378 -0.9297
17962TIP3    H175301   0.931   4.025  12.108 -2.0097  1.4044  0.2891
17962TIP3    H275302   0.984   4.107  11.992 -0.0592  0.9693  0.8338
17963TIP3   OH275303   5.595   4.525   0.046  0.1407  0.1708 -0.0199
17963TIP3    H175304   5.640   4.592  -0.005 -2.6844 -0.2839 -3.4797
17963TIP3    H275305   5.614   4.443   0.000  0.1294 -0.8224  1.6684
17964TIP3   OH275306   2.773   4.879   6.225 -0.2991 -0.1227  0.5808
17964TIP3    H175307   2.849   4.888   6.168 -0.6526  1.0263  0.2684
17964TIP3    H275308   2.738   4.792   6.205  1.2457 -0.9168  1.1551
17965TIP3   OH275309   6.385   5.933   1.847 -0.1785  0.1912  0.1008
17965TIP3    H175310   6.349   5.880   1.775  0.1388 -0.1207  0.1681
17965TIP3    H275311   6.476   5.904   1.854 -0.3946 -0.2844  1.0888
17966TIP3   OH275312   4.607   3.025   1.233 -0.0619  0.6923  0.1306
17966TIP3    H175313   4.633   3.114   1.211  1.3676  0.5726  1.1743
17966TIP3    H275314   4.600   3.025   1.329 -1.5515  0.0480  0.0584
17967TIP3   OH275315   1.723   2.149  12.626  0.0218 -0.1348  0.5543
17967TIP3    H175316   1.643   2.188  12.661 -0.0571  0.5321 -0.3163
17967TIP3    H275317   1.765   2.108  12.701 -2.1032 -2.2601  0.7275
17968TIP3   OH275318   6.476   5.444  11.092  0.2704  0.3159  0.1000
17968TIP3    H175319   6.454   5.524  11.141 -1.7139 -1.0735  1.6702
17968TIP3    H275320   6.397   5.390  11.100  1.7176 -1.9961 -0.5169
17969TIP3   OH275321   2.246   6.377   1.859 -0.3367 -0.0666 -0.0040
17969TIP3    H175322   2.175   6.440   1.855  0.5413  1.1415  1.9432
17969TIP3    H275323   2.318   6.419   1.812 -0.2605 -0.3749 -0.1663
17970TIP3   OH275324   2.409   4.354   2.678 -0.7198  0.2979 -0.2949
17970TIP3    H175325   2.370   4.306   2.751  0.3039  1.3596  1.0228
17970TIP3    H275326   2.474   4.294   2.642 -2.7545 -1.0946 -1.8598
17971TIP3   OH275327   2.866   3.973   0.851 -0.0927  0.9098 -0.4651
17971TIP3    H175328   2.796   3.916   0.883 -0.9596  1.7082 -0.8955
17971TIP3    H275329   2.869   4.045   0.915  1.3191  0.1926  0.3485
17972TIP3   OH275330   0.224   4.901   0.288  0.4068 -0.3424  0.1492
17972TIP3    H175331   0.147   4.906   0.231  0.8201 -1.2536 -0.5137
17972TIP3    H275332   0.233   4.807   0.308  1.2090 -0.2173  0.4002
17973TIP3   OH275333   5.869   0.079  16.176  0.2547 -0.2712 -0.2210
17973TIP3    H175334   5.867   0.120  16.090 -0.2113 -0.8541 -0.4912
17973TIP3    H275335   5.881   0.152  16.237 -2.8859  0.5881 -0.4889
17974TIP3   OH275336   2.692   0.675  12.513  0.0585  1.0283 -0.3201
17974TIP3    H175337   2.746   0.675  12.434  1.1832  0.5490  0.4265
17974TIP3    H275338   2.604   0.698  12.482  0.4827  0.8720 -1.7003
17975TIP3   OH275339   2.508   1.064  16.503  1.0142 -0.7705  0.0664
17975TIP3    H175340   2.435   1.005  16.490  0.0902 -0.1059  1.8471
17975TIP3    H275341   2.469   1.152  16.498  1.9375 -0.3748 -0.3333
17976TIP3   OH275342   6.154   6.099  11.065 -0.1700  0.3225 -0.4701
17976TIP3    H175343   6.227   6.159  11.052  0.6437 -0.6979 -0.7364
17976TIP3    H275344   6.189   6.012  11.043 -1.7755 -0.0569 -1.7607
17977TIP3   OH275345   0.410   4.850  13.185 -0.0083  0.2749 -0.3670
17977TIP3    H175346   0.325   4.891  13.204 -0.1584  0.1260 -0.7126
17977TIP3    H275347   0.473   4.922  13.195 -0.1389  0.3115  0.1999
17978TIP3   OH275348   1.221   1.922   4.491  0.3585  0.1363  0.4665
17978TIP3    H175349   1.166   1.930   4.569 -0.7920  0.3911 -0.3397
17978TIP3    H275350   1.307   1.954   4.518 -0.5048  2.0448  1.1355
17979TIP3   OH275351   0.661   0.351  14.538  0.2153 -0.0511 -0.2285
17979TIP3    H175352   0.728   0.371  14.604 -0.2489  0.7009  0.0270
17979TIP3    H275353   0.694   0.273  14.493  1.9377  1.0781 -1.0309
17980TIP3   OH275354   5.487   6.276  16.509  0.3474 -0.1563  0.0263
17980TIP3    H175355   5.495   6.206  16.573  0.0322 -0.9738 -0.8109
17980TIP3    H275356   5.574   6.283  16.470  0.2635 -0.3851 -0.2020
17981TIP3   OH275357   2.171   0.760  11.829  0.0025  0.3567 -0.2049
17981TIP3    H175358   2.191   0.850  11.802  0.7327  0.2655  0.0007
17981TIP3    H275359   2.119   0.724  11.757  1.5427  0.2584 -1.3158
17982TIP3   OH275360   1.029   1.613  16.909 -0.2371  0.4020  0.0452
17982TIP3    H175361   1.120   1.642  16.918 -0.3297  0.1313  2.5322
17982TIP3    H275362   0.993   1.668  16.839  1.5956  1.1205 -0.3814
17983TIP3   OH275363   4.649   1.627  16.047 -0.4201  0.2231  0.0976
17983TIP3    H175364   4.576   1.686  16.033  1.2226  2.2079 -0.6066
17983TIP3    H275365   4.673   1.596  15.960  0.8146  1.2074  0.0605
17984TIP3   OH275366   4.614   0.489  16.968 -0.5833 -0.2952 -0.4693
17984TIP3    H175367   4.628   0.454  16.880 -0.9156  0.9227 -1.0255
17984TIP3    H275368   4.645   0.579  16.963 -1.0225 -0.0754  0.5351
17985TIP3   OH275369   3.556   6.089   0.391 -0.0547 -0.4556 -0.8817
17985TIP3    H175370   3.478   6.044   0.422 -0.9481  0.5480 -1.5662
17985TIP3    H275371   3.574   6.155   0.457  1.1899 -1.7023  0.0683
17986TIP3   OH275372   1.706   3.607   1.244  0.8155  0.1480  0.3516
17986TIP3    H175373   1.733   3.516   1.233  1.3626  0.3859 -0.3486
17986TIP3    H275374   1.614   3.602   1.269  1.5125 -0.7057  3.1102
17987TIP3   OH275375   5.676   6.336  14.742  0.0336 -0.1035 -0.5488
17987TIP3    H175376   5.750   6.342  14.803  0.3072  0.5755 -0.9392
17987TIP3    H275377   5.696   6.259  14.688 -0.5409 -1.1104  0.6323
17988TIP3   OH275378   5.326   1.503   1.878  0.3349 -0.6469 -0.2329
17988TIP3    H175379   5.321   1.421   1.929  1.4418  0.2482  1.4220
17988TIP3    H275380   5.310   1.572   1.943  0.2556  0.4903 -1.4331
17989TIP3   OH275381   0.706   1.981  12.452  0.8452 -0.0033 -0.6572
17989TIP3    H175382   0.739   2.070  12.443  0.4986  0.6443  3.1152
17989TIP3    H275383   0.615   1.986  12.423  1.2011  0.4705 -1.7813
17990TIP3   OH275384   5.096   4.740  12.465  0.3871  0.2092 -0.0149
17990TIP3    H175385   5.051   4.701  12.541  1.8097 -0.4735  0.5064
17990TIP3    H275386   5.097   4.834  12.484 -0.5395  0.2004  0.1110
17991TIP3   OH275387   1.772   2.134   2.969  0.2399  0.1178  0.6508
17991TIP3    H175388   1.684   2.131   2.933  0.5255 -0.9542 -0.0020
17991TIP3    H275389   1.767   2.082   3.049  0.0590  0.8879  1.1505
17992TIP3   OH275390   3.728   4.850  13.233 -0.1541 -0.0269 -0.4418
17992TIP3    H175391   3.652   4.904  13.213 -0.0618 -0.0465 -0.8387
17992TIP3    H275392   3.702   4.802  13.312 -0.0176  1.0215  0.2635
17993TIP3   OH275393   0.673   3.848   3.101 -0.2587  0.2262 -0.0758
17993TIP3    H175394   0.627   3.769   3.071  1.1629 -0.8621  0.5036
17993TIP3    H275395   0.628   3.920   3.056 -2.1213 -0.8192 -0.0047
17994TIP3   OH275396   3.302   6.768   6.050  0.4701  0.5560 -0.6766
17994TIP3    H175397   3.378   6.814   6.086  1.4039 -1.1535 -0.3872
17994TIP3    H275398   3.236   6.772   6.119  0.7854  0.8395 -0.3878
17995TIP3   OH275399   6.338   0.047  12.133 -0.2078  0.3043  0.2246
17995TIP3    H175400   6.433   0.043  12.133 -0.1022  1.8357 -1.4054
17995TIP3    H275401   6.314   0.064  12.224  1.1083  0.5657  0.5293
17996TIP3   OH275402   0.762   1.891   1.434  0.3205 -0.2990 -0.4243
17996TIP3    H175403   0.802   1.899   1.521 -2.6947  1.5523  0.9957
17996TIP3    H275404   0.820   1.939   1.376  0.2355  2.3833  1.5272
17997TIP3   OH275405   2.158   4.071   4.471 -0.4018 -0.2623 -0.2816
17997TIP3    H175406   2.240   4.117   4.452 -0.1743 -0.0284  1.1608
17997TIP3    H275407   2.175   3.981   4.442 -0.0792  0.0444 -1.1055
17998TIP3   OH275408   5.881   5.656  11.329  0.1661 -0.1431  0.0769
17998TIP3    H175409   5.852   5.630  11.242  0.4452 -0.2594  0.0164
17998TIP3    H275410   5.833   5.598  11.388  1.8414 -1.8179 -0.1235
17999TIP3   OH275411   5.206   1.998   5.120 -0.0965  0.7285 -0.4216
17999TIP3    H175412   5.148   1.956   5.057 -0.3690  1.9564 -1.0000
17999TIP3    H275413   5.294   1.982   5.085 -0.0475 -0.9623  0.3549
18000TIP3   OH275414   2.364   0.554   0.321  0.0213  0.7426  0.2171
18000TIP3    H175415   2.303   0.552   0.246  1.3507 -1.2832 -0.9161
18000TIP3    H275416   2.366   0.645   0.348 -2.2752  1.1438 -0.7371
18001TIP3   OH275417   1.255   1.815   0.620  0.6621  0.1860 -0.0542
18001TIP3    H175418   1.290   1.900   0.645  0.0440  0.2712  0.5643
18001TIP3    H275419   1.171   1.835   0.579  0.3039 -0.1454  0.5026
18002TIP3   OH275420   3.460   3.550   4.743  0.1825  0.0879  0.4201
18002TIP3    H175421   3.425   3.470   4.783  0.4029  0.8501  2.2414
18002TIP3    H275422   3.528   3.579   4.804 -0.0914  1.8057 -0.0521
18003TIP3   OH275423   2.175   2.624   1.894  0.3604  0.4199  0.2979
18003TIP3    H175424   2.243   2.652   1.956  0.5430  2.1006 -0.5850
18003TIP3    H275425   2.223   2.613   1.811  0.0489 -1.3656  0.3298
18004TIP3   OH275426   3.108   1.969  16.924  0.1458  0.4928 -0.0460
18004TIP3    H175427   3.099   1.897  16.861  1.2100  0.2015  0.1188
18004TIP3    H275428   3.165   1.934  16.992  0.4055  1.3936  0.2058
18005TIP3   OH275429   2.785   5.827  10.921 -0.5223 -0.3200 -0.0272
18005TIP3    H175430   2.838   5.844  10.998 -0.2077 -0.4439 -0.2140
18005TIP3    H275431   2.771   5.913  10.882 -1.7212 -0.1009  0.8358
18006TIP3   OH275432   0.911   6.389   4.511 -0.5515 -0.4929  0.2415
18006TIP3    H175433   0.878   6.299   4.502 -1.3480 -0.0899 -1.1920
18006TIP3    H275434   0.855   6.428   4.578 -0.5647 -0.8994  0.4744
18007TIP3   OH275435   2.678   0.213   5.842 -0.1895 -0.0908 -0.0122
18007TIP3    H175436   2.702   0.262   5.920  2.3766  1.4624 -1.6319
18007TIP3    H275437   2.678   0.121   5.870  1.8351  0.3297  1.5919
18008TIP3   OH275438   3.153   2.813  13.419  0.0836 -0.4916  0.0631
18008TIP3    H175439   3.166   2.908  13.417 -0.0994 -0.4745 -0.7050
18008TIP3    H275440   3.105   2.794  13.338 -1.5922 -1.0033  1.1371
18009TIP3   OH275441   0.149   4.496  17.138  0.2081 -0.2720  0.2323
18009TIP3    H175442   0.221   4.514  17.198  0.5557 -0.6270 -0.0704
18009TIP3    H275443   0.095   4.430  17.182  0.2410 -0.2374  0.3235
18010TIP3   OH275444   3.630   4.684  13.510  0.3335 -0.2638  0.2511
18010TIP3    H175445   3.650   4.647  13.596  0.2973 -0.2479  0.2664
18010TIP3    H275446   3.646   4.612  13.449 -3.0783 -1.4373  0.5489
18011TIP3   OH275447   3.069   4.506  14.877 -0.3071  0.4447 -0.1379
18011TIP3    H175448   3.134   4.576  14.883  1.3239 -0.9191 -0.9156
18011TIP3    H275449   3.047   4.486  14.968  1.6317 -0.1506  0.2462
18012TIP3   OH275450   6.076   3.657  12.823 -0.2302  0.1891 -0.5375
18012TIP3    H175451   6.036   3.737  12.857 -2.3656 -0.9561 -0.1668
18012TIP3    H275452   6.022   3.634  12.747 -0.7266 -1.7712  0.3528
18013TIP3   OH275453   4.903   6.698  15.162  0.2698  0.1775  0.5533
18013TIP3    H175454   4.855   6.627  15.121 -1.0108  1.0212  0.5184
18013TIP3    H275455   4.983   6.706  15.111  0.3272 -1.0631  0.4157
18014TIP3   OH275456   0.973   2.205  10.701  0.3491  0.5085  0.1479
18014TIP3    H175457   0.988   2.297  10.679  2.1616  0.2319  0.1523
18014TIP3    H275458   1.043   2.157  10.657  0.1659 -0.7583  1.1659
18015TIP3   OH275459   2.949   0.602   5.200  0.1228 -0.2160  0.4247
18015TIP3    H175460   2.880   0.626   5.262  0.0473 -1.8319  1.0171
18015TIP3    H275461   2.955   0.506   5.206 -0.7153 -0.6076 -2.9455
18016TIP3   OH275462   0.316   5.828  14.461 -0.0410  0.3402 -0.7510
18016TIP3    H175463   0.383   5.897  14.453 -0.7605  1.1069 -0.3014
18016TIP3    H275464   0.325   5.777  14.381  0.5984  0.8724 -1.0337
18017TIP3   OH275465   0.297   0.286  13.085 -0.2162  0.3150  0.7056
18017TIP3    H175466   0.370   0.338  13.052 -0.9376  1.3908  0.7494
18017TIP3    H275467   0.331   0.242  13.163  0.6489  0.0374  0.1847
18018TIP3   OH275468   2.033   0.727   4.880 -0.2049 -0.1592  0.1780
18018TIP3    H175469   2.071   0.673   4.810 -0.4048  0.9690 -0.8223
18018TIP3    H275470   2.049   0.676   4.960  0.3089 -1.3294 -0.6372
18019TIP3   OH275471   4.707   1.622  14.966  0.3357  0.7056 -0.2488
18019TIP3    H175472   4.744   1.684  14.903 -0.9572  0.7551 -0.9999
18019TIP3    H275473   4.751   1.539  14.947 -1.2100  0.2956 -2.4350
18020TIP3   OH275474   0.562   5.471  13.807 -0.2013 -0.2811  0.0604
18020TIP3    H175475   0.581   5.565  13.813 -1.0613 -0.1836  1.8904
18020TIP3    H275476   0.467   5.466  13.811 -0.1588 -1.2438 -0.0166
18021TIP3   OH275477   3.679   5.019  12.371  0.1527 -0.1112  0.2620
18021TIP3    H175478   3.589   4.985  12.362 -0.0645  0.8006 -1.3196
18021TIP3    H275479   3.681   5.098  12.317  2.0682 -0.3971 -0.1592
18022TIP3   OH275480   2.166   0.311  15.304 -0.2430  0.4860  0.4999
18022TIP3    H175481   2.196   0.344  15.389 -0.7982  3.2605 -0.3109
18022TIP3    H275482   2.206   0.369  15.240 -2.1109  0.2050 -0.9853
18023TIP3   OH275483   2.738   1.538   0.289 -0.8068  0.1375 -1.2018
18023TIP3    H175484   2.685   1.611   0.319 -0.8234  0.5188 -2.1410
18023TIP3    H275485   2.692   1.504   0.213 -0.9086 -0.9939 -0.6641
18024TIP3   OH275486   1.441   4.151   1.792 -0.9502  0.0497 -0.0791
18024TIP3    H175487   1.410   4.141   1.882 -0.5600  1.8813  0.2972
18024TIP3    H275488   1.535   4.167   1.801 -0.4998 -1.8925 -0.9796
18025TIP3   OH275489   1.066   6.490   3.660  0.1503 -0.7128 -0.3775
18025TIP3    H175490   0.988   6.454   3.618 -1.3085  1.6641  0.0567
18025TIP3    H275491   1.048   6.486   3.754  1.0710 -1.1778 -0.2067
18026TIP3   OH275492   6.303   0.822   1.161  0.5510  0.2962 -0.2969
18026TIP3    H175493   6.214   0.849   1.138  0.2721 -1.3621 -1.3318
18026TIP3    H275494   6.355   0.902   1.156 -1.3353  1.9923  3.2233
18027TIP3   OH275495   6.286   0.933  10.604  0.9716 -0.2751  0.8689
18027TIP3    H175496   6.279   0.922  10.699 -0.4569 -0.5627  0.7429
18027TIP3    H275497   6.260   0.848  10.568 -0.0396  0.3121  0.1834
18028TIP3   OH275498   1.642   6.344  16.179  0.1552  0.0090 -0.0860
18028TIP3    H175499   1.605   6.365  16.265 -0.6563 -2.0035  0.1034
18028TIP3    H275500   1.737   6.340  16.195 -0.0630 -1.4409  1.0025
18029TIP3   OH275501   2.824   2.485   5.130 -0.5002 -0.3414  0.4567
18029TIP3    H175502   2.866   2.499   5.215 -1.2453  1.4848  0.5790
18029TIP3    H275503   2.882   2.528   5.067 -1.5466  1.2357  0.4973
18030TIP3   OH275504   3.190   5.884   3.153  0.6257  0.3868 -0.1315
18030TIP3    H175505   3.167   5.883   3.061 -1.5898  2.1822  0.3111
18030TIP3    H275506   3.220   5.795   3.172 -1.6133 -0.8367 -1.9459
18031TIP3   OH275507   1.003   2.612  15.191 -0.6904 -0.5200  0.1244
18031TIP3    H175508   0.915   2.636  15.162 -1.5027 -2.2354  1.0364
18031TIP3    H275509   1.024   2.532  15.142 -0.0566 -0.6834  0.6414
18032TIP3   OH275510   4.552   2.212  16.759 -0.2415  0.1483  0.1411
18032TIP3    H175511   4.592   2.133  16.795 -2.0165 -0.9533 -0.2116
18032TIP3    H275512   4.458   2.198  16.766 -0.6295  1.4626 -1.5649
18033TIP3   OH275513   4.386   5.979  15.125  0.4125 -0.1912  0.3549
18033TIP3    H175514   4.304   5.932  15.113 -0.1937  0.8004  0.5093
18033TIP3    H275515   4.409   6.010  15.037  0.5603 -0.3675  0.3305
18034TIP3   OH275516   1.274   5.901  16.792  0.3625 -0.0822  0.7271
18034TIP3    H175517   1.332   5.824  16.791  0.6735  0.0857 -2.0356
18034TIP3    H275518   1.186   5.864  16.807  0.8618 -0.5721  2.7114
18035TIP3   OH275519   2.857   0.068   0.467  0.1465 -1.5447 -0.5259
18035TIP3    H175520   2.807   0.032   0.540  1.4056  1.2713  1.8989
18035TIP3    H275521   2.810   0.146   0.441  1.6191 -0.4998 -0.2002
18036TIP3   OH275522   2.708   5.481  12.450 -0.4785 -0.2983 -0.3800
18036TIP3    H175523   2.774   5.540  12.414  0.9303 -1.1087  0.7622
18036TIP3    H275524   2.657   5.453  12.374  1.2853 -0.6218 -1.4895
18037TIP3   OH275525   4.032   6.466   1.869  0.0476  0.0616  0.4291
18037TIP3    H175526   4.001   6.384   1.831 -0.0766 -1.0381  2.7111
18037TIP3    H275527   3.963   6.529   1.851 -1.3762 -1.1636  1.3969
18038TIP3   OH275528   2.233   5.595  16.878 -0.3342 -0.0399 -0.0470
18038TIP3    H175529   2.209   5.676  16.832  0.3009 -0.2551 -0.7805
18038TIP3    H275530   2.326   5.606  16.898 -0.9336  0.7487  2.6730
18039TIP3   OH275531   0.755   3.500   3.357 -0.4237 -0.1884 -0.1873
18039TIP3    H175532   0.743   3.587   3.395  1.1895 -0.7397  1.7904
18039TIP3    H275533   0.701   3.443   3.412  1.2212 -0.8756  0.7932
18040TIP3   OH275534   4.143   5.295  13.038  0.7177  0.1056 -0.1856
18040TIP3    H175535   4.135   5.202  13.016 -1.2442  0.2903 -0.4065
18040TIP3    H275536   4.117   5.300  13.130  0.6850  0.4497 -0.2130
18041TIP3   OH275537   5.865   4.558   3.634  0.7074  0.1593  0.5573
18041TIP3    H175538   5.956   4.575   3.657  0.7941  0.7144 -0.1599
18041TIP3    H275539   5.844   4.624   3.567  0.6277 -1.7105 -1.3682
18042TIP3   OH275540   2.185   0.340   1.658 -0.0069  0.8612 -0.9818
18042TIP3    H175541   2.176   0.434   1.672 -3.0312  0.6512 -0.7792
18042TIP3    H275542   2.148   0.300   1.737  2.2389 -0.5758 -0.5590
18043TIP3   OH275543   5.124   0.925   1.153  0.1554 -0.3449  0.3013
18043TIP3    H175544   5.197   0.863   1.145  0.3002 -0.2559  0.8795
18043TIP3    H275545   5.088   0.931   1.064  0.6683 -0.6115  0.0682
18044TIP3   OH275546   5.265   1.079   3.920  0.4234 -0.4329  0.2671
18044TIP3    H175547   5.223   1.064   3.835  2.1413  0.2610 -0.7349
18044TIP3    H275548   5.281   0.991   3.954  3.2897 -0.9300 -1.9896
18045TIP3   OH275549   0.331   5.541   4.723  0.8879 -0.3169  0.0197
18045TIP3    H175550   0.316   5.530   4.629 -0.2754 -2.0252  0.3500
18045TIP3    H275551   0.279   5.617   4.747 -0.3421 -1.0001 -0.4111
18046TIP3   OH275552   5.550   3.833   2.016 -0.1946  0.1514 -0.1512
18046TIP3    H175553   5.461   3.814   2.045  0.2036  0.3265  1.2678
18046TIP3    H275554   5.539   3.902   1.950 -1.2298 -1.1934 -1.4472
18047TIP3   OH275555   1.576   2.074   4.333  1.0136  0.3444 -0.3115
18047TIP3    H175556   1.672   2.078   4.339  1.1100 -0.1361 -1.3535
18047TIP3    H275557   1.552   2.150   4.281  0.6268  1.6034  1.5945
18048TIP3   OH275558   6.448   2.248  11.935 -0.2046 -0.0195 -0.0976
18048TIP3    H175559   6.403   2.238  11.851  0.1907 -1.7690 -0.1435
18048TIP3    H275560   6.539   2.265  11.910  0.2782 -2.3003 -0.0996
18049TIP3   OH275561   3.193   1.481   4.155 -0.2374  0.5839 -0.5135
18049TIP3    H175562   3.114   1.498   4.205  0.1083 -1.5704  0.9022
18049TIP3    H275563   3.176   1.518   4.068 -3.1733 -0.6615 -0.5503
18050TIP3   OH275564   5.473   5.666   0.530  1.0852  0.8079 -0.2906
18050TIP3    H175565   5.471   5.732   0.599  2.0780  0.2073  0.3270
18050TIP3    H275566   5.486   5.716   0.449 -2.4192  1.7575 -0.4336
18051TIP3   OH275567   1.644   1.474   5.923  0.0133 -0.5116  0.0971
18051TIP3    H175568   1.676   1.477   5.833 -0.4352 -0.3380 -0.0570
18051TIP3    H275569   1.557   1.513   5.919 -0.1749 -0.8786  0.5358
18052TIP3   OH275570   0.062   0.404  15.717 -0.1837  0.0925 -0.8116
18052TIP3    H175571  -0.025   0.367  15.734  1.2924 -3.1311  0.5871
18052TIP3    H275572   0.100   0.346  15.651  2.0957 -0.7874  1.1079
18053TIP3   OH275573   4.337   4.248   6.592 -0.0233  0.6159 -0.2319
18053TIP3    H175574   4.296   4.214   6.512  1.8437 -2.7745  0.0837
18053TIP3    H275575   4.431   4.238   6.577  0.3766 -0.1942  2.3679
18054TIP3   OH275576   0.507   4.762  11.505 -0.5634 -0.2430 -0.1079
18054TIP3    H175577   0.583   4.801  11.547 -0.1189 -0.0725 -1.0485
18054TIP3    H275578   0.437   4.771  11.570  0.2801 -0.7006  0.9065
18055TIP3   OH275579   6.624   3.418  14.531 -0.2285  0.1771  0.1128
18055TIP3    H175580   6.624   3.365  14.610 -0.4366  0.6687  0.4438
18055TIP3    H275581   6.698   3.479  14.542  0.5271 -0.5761 -0.6330
18056TIP3   OH275582   3.549   5.629   2.033 -0.8046 -0.5944  0.0740
18056TIP3    H175583   3.560   5.688   2.107  0.7864 -1.4207  0.5371
18056TIP3    H275584   3.456   5.636   2.010 -0.7432  1.8134  0.3045
18057TIP3   OH275585   1.731   3.360  16.754 -0.3567  0.2888  0.3591
18057TIP3    H175586   1.689   3.386  16.671  0.8224  1.0757 -0.0134
18057TIP3    H275587   1.773   3.277  16.734  0.9232  1.0455 -0.1989
18058TIP3   OH275588   6.755   4.636  15.054  0.3380 -0.2841 -0.3445
18058TIP3    H175589   6.686   4.694  15.021  0.7328 -0.3863 -1.3805
18058TIP3    H275590   6.715   4.549  15.057  0.4188 -0.3426 -0.9391
18059TIP3   OH275591   0.306   6.209  10.928 -0.2768  0.3449 -0.5104
18059TIP3    H175592   0.366   6.216  10.854  0.7612  0.2476  0.3071
18059TIP3    H275593   0.362   6.192  11.003 -1.4716 -1.9132 -0.0392
18060TIP3   OH275594   1.404   5.531  13.328 -0.6797  0.0119  0.3393
18060TIP3    H175595   1.470   5.514  13.395 -0.2528 -1.8425 -0.4788
18060TIP3    H275596   1.437   5.606  13.279 -0.4887  0.7376  1.5420
18061TIP3   OH275597   4.927   6.715  16.226  0.2594 -0.0544  0.6210
18061TIP3    H175598   4.942   6.804  16.195  0.3755 -0.9931 -2.3090
18061TIP3    H275599   5.004   6.666  16.200 -1.0085 -1.5981 -0.4360
18062TIP3   OH275600   2.796   4.346   2.694  0.1561  0.1111  0.2198
18062TIP3    H175601   2.890   4.345   2.713 -0.2354 -0.5011  2.5061
18062TIP3    H275602   2.772   4.254   2.683 -0.5930 -0.0120  2.4071
18063TIP3   OH275603   1.914   1.890  13.643  0.1012 -0.2879 -0.7605
18063TIP3    H175604   1.838   1.862  13.592 -0.5688 -0.5385  0.3476
18063TIP3    H275605   1.930   1.817  13.703  0.2560  0.4142  0.0663
18064TIP3   OH275606   4.356   1.407  16.178 -0.0414  0.0237 -0.3077
18064TIP3    H175607   4.440   1.401  16.132 -0.6646  0.8044 -1.6044
18064TIP3    H275608   4.377   1.390  16.269  0.9651 -3.6062 -1.0754
18065TIP3   OH275609   6.266   5.755   1.657  0.8721 -0.4339 -0.9788
18065TIP3    H175610   6.216   5.693   1.710 -0.7532  0.9458 -0.8033
18065TIP3    H275611   6.226   5.749   1.570  0.1828  0.8649 -0.7742
18066TIP3   OH275612   1.722   6.580   1.029 -0.0880 -0.0006 -0.4914
18066TIP3    H175613   1.794   6.638   1.055  0.0759 -0.2894 -0.2905
18066TIP3    H275614   1.764   6.498   1.005 -0.3469 -0.1561 -0.4211
18067TIP3   OH275615   2.105   6.485  14.505  0.6941 -0.0420  0.2978
18067TIP3    H175616   2.153   6.523  14.432 -0.6531  1.7264  0.2953
18067TIP3    H275617   2.022   6.455  14.468 -0.4433  1.7960  1.2024
18068TIP3   OH275618   0.982   5.350  14.599 -0.6047 -0.7757  0.2948
18068TIP3    H175619   0.939   5.267  14.619  0.2745 -0.7370  2.6700
18068TIP3    H275620   1.054   5.326  14.540 -2.3468 -1.1510 -1.8237
18069TIP3   OH275621   4.897   4.955   2.640  0.5859  0.1810 -0.3440
18069TIP3    H175622   4.822   4.901   2.663  0.0915  1.0762  0.2280
18069TIP3    H275623   4.938   4.976   2.724  1.0555  0.2895 -0.5960
18070TIP3   OH275624   2.851   5.780   1.550  0.1518  0.1324  0.7157
18070TIP3    H175625   2.867   5.839   1.623  0.5095 -0.7864  1.3962
18070TIP3    H275626   2.909   5.811   1.480  1.7591 -0.5599  1.7065
18071TIP3   OH275627   0.584   5.377   3.691 -0.3062  0.2244  0.1106
18071TIP3    H175628   0.516   5.386   3.624  0.5951  2.3100 -0.5933
18071TIP3    H275629   0.666   5.396   3.645  0.5177  0.1350  1.4710
18072TIP3   OH275630   4.155   3.309  14.945 -0.5437 -0.2291  0.4103
18072TIP3    H175631   4.172   3.239  14.883  0.3804 -0.7289  1.1993
18072TIP3    H275632   4.080   3.356  14.909 -0.6837 -1.1465 -0.5223
18073TIP3   OH275633   4.865   1.709   5.419  0.1871 -0.5547  0.0526
18073TIP3    H175634   4.848   1.719   5.513 -1.3860  0.5685 -0.3049
18073TIP3    H275635   4.955   1.739   5.408  0.0205  0.4081  1.0522
18074TIP3   OH275636   2.488   3.329  13.347 -0.0628  0.6392 -0.8637
18074TIP3    H175637   2.445   3.382  13.414 -1.5198 -0.3429 -0.9780
18074TIP3    H275638   2.481   3.240  13.379  2.8969  0.4807 -0.3762
18075TIP3   OH275639   0.062   6.564  12.293  0.1554  0.1468 -0.3679
18075TIP3    H175640  -0.015   6.509  12.305 -0.8033  1.1833 -1.5471
18075TIP3    H275641   0.129   6.504  12.260 -0.1940 -0.7152  0.4397
18076TIP3   OH275642   5.406   3.332  12.039  0.4903  0.2744 -0.7360
18076TIP3    H175643   5.360   3.408  12.002  2.3635  1.2972 -1.1004
18076TIP3    H275644   5.498   3.358  12.040  1.1758 -1.9403 -0.6843
18077TIP3   OH275645   6.163   0.815  13.532  0.2580  0.1002 -0.1907
18077TIP3    H175646   6.199   0.825  13.620  0.5241  0.5333 -0.3495
18077TIP3    H275647   6.235   0.835  13.473  0.3473 -1.1273 -0.5230
18078TIP3   OH275648   5.563   4.754  11.393  0.4049 -0.0735  0.2291
18078TIP3    H175649   5.535   4.740  11.303  3.5177 -2.5079 -0.5626
18078TIP3    H275650   5.509   4.695  11.445 -0.1774 -0.0174 -0.3052
18079TIP3   OH275651   1.913   6.085  12.845 -0.9184  0.4686  0.1585
18079TIP3    H175652   1.963   6.013  12.806  1.0851  2.1549 -0.6218
18079TIP3    H275653   1.922   6.073  12.939  3.3769  2.0253  0.1738
18080TIP3   OH275654   0.320   2.190  13.502 -0.0907 -0.2526  0.2584
18080TIP3    H175655   0.254   2.233  13.556 -0.7579 -0.8978 -0.0323
18080TIP3    H275656   0.271   2.156  13.427  0.6301 -0.4345 -0.1406
18081TIP3   OH275657   6.021   1.861  14.370 -0.2685  0.3468  0.1232
18081TIP3    H175658   6.070   1.781  14.350  0.1248  0.5900  0.1074
18081TIP3    H275659   6.086   1.931  14.366 -0.9757  0.9755 -1.9687
18082TIP3   OH275660   5.682   2.408   0.152  0.5853 -0.3063  0.3759
18082TIP3    H175661   5.771   2.375   0.162  1.3470  1.0120 -1.3553
18082TIP3    H275662   5.651   2.370   0.069  0.4983  1.1428 -0.2957
18083TIP3   OH275663   5.877   5.711   5.599  0.0317 -0.1253  0.5141
18083TIP3    H175664   5.842   5.626   5.572 -0.1548  0.2229 -0.3758
18083TIP3    H275665   5.924   5.693   5.681 -0.2054 -1.0348  0.4616
18084TIP3   OH275666   0.512   5.254   1.505 -0.1034  0.2232 -0.4628
18084TIP3    H175667   0.421   5.248   1.478  0.4152 -0.9821 -2.0741
18084TIP3    H275668   0.522   5.186   1.572 -0.3474  0.2397 -0.4116
18085TIP3   OH275669   4.788   4.018   6.026  0.3217  0.1879 -0.5933
18085TIP3    H175670   4.702   3.978   6.013 -0.1320  1.2249 -0.8652
18085TIP3    H275671   4.829   3.964   6.094 -0.9870  0.3320  0.3545
18086TIP3   OH275672   1.766   0.265  11.130  0.1094 -0.1320 -0.1652
18086TIP3    H175673   1.717   0.313  11.063  0.7891 -0.5062 -0.9459
18086TIP3    H275674   1.757   0.318  11.209  0.2360  0.8999 -0.8296
18087TIP3   OH275675   6.727   0.449  12.086 -0.0888 -0.4561 -0.1856
18087TIP3    H175676   6.770   0.389  12.147  2.6820 -0.0263 -1.5635
18087TIP3    H275677   6.729   0.534  12.130  1.8371 -0.1625 -0.7362
18088TIP3   OH275678   3.272   3.045   1.492  0.5412 -0.5409 -0.1889
18088TIP3    H175679   3.220   3.049   1.412 -0.9423  0.4147  0.7716
18088TIP3    H275680   3.299   3.136   1.507  1.8572 -0.8997 -0.2393
18089TIP3   OH275681   1.232   4.026  15.102 -0.0462  0.5012 -0.1006
18089TIP3    H175682   1.291   4.054  15.032 -0.5205 -0.9159 -1.1240
18089TIP3    H275683   1.145   4.024  15.061 -0.3621 -0.1364  0.5739
18090TIP3   OH275684   0.118   3.619  15.688  0.3358  0.0743 -0.1240
18090TIP3    H175685   0.149   3.529  15.679 -0.3862 -0.3425  1.3206
18090TIP3    H275686   0.072   3.636  15.606 -1.7107 -1.8033  0.5305
18091TIP3   OH275687   1.416   6.016   6.007 -0.1514 -0.3623  0.0029
18091TIP3    H175688   1.374   6.101   5.993 -0.9218 -0.5171  1.2463
18091TIP3    H275689   1.500   6.023   5.962  0.9314  1.9992  2.1683
18092TIP3   OH275690   5.143   4.648   3.971 -0.1375  0.0673 -0.1054
18092TIP3    H175691   5.167   4.723   4.026  0.0077  0.3748 -0.5755
18092TIP3    H275692   5.048   4.654   3.961 -0.4405 -1.1094  1.7007
18093TIP3   OH275693   2.285   2.361   0.711  0.5517 -0.2791 -0.1365
18093TIP3    H175694   2.232   2.284   0.732  0.8340  0.1258  2.2709
18093TIP3    H275695   2.281   2.416   0.789  2.2574  1.0776 -0.9272
18094TIP3   OH275696   1.316   6.537   5.456  0.0614 -0.0349  0.4045
18094TIP3    H175697   1.241   6.590   5.480  0.4726  1.0676 -0.6554
18094TIP3    H275698   1.355   6.582   5.381  1.1545 -1.1611  0.2552
18095TIP3   OH275699   2.541   0.767   6.237  0.0175  0.5128  0.5273
18095TIP3    H175700   2.447   0.760   6.249 -0.1944  1.4230 -0.4667
18095TIP3    H275701   2.576   0.780   6.326 -0.8579  0.9232  0.8199
18096TIP3   OH275702   1.961   5.970   1.784 -0.1536 -0.3908  0.7060
18096TIP3    H175703   1.952   5.875   1.794 -0.8293 -0.4492 -0.3519
18096TIP3    H275704   1.927   5.988   1.697  2.3427  0.5094 -0.1552
18097TIP3   OH275705   5.415   6.248  13.403 -0.1215 -0.1789  0.0507
18097TIP3    H175706   5.343   6.197  13.440 -0.5761  0.5465  0.1761
18097TIP3    H275707   5.435   6.205  13.320 -0.9638 -0.1549 -0.1668
18098TIP3   OH275708   2.749   2.047  11.527  0.0082  0.0088  0.1069
18098TIP3    H175709   2.674   1.992  11.505  1.0091 -1.2312 -0.3128
18098TIP3    H275710   2.775   2.018  11.615  0.6136 -0.2717 -0.1630
18099TIP3   OH275711   6.132   4.465  16.785 -0.0826 -0.4449  0.2374
18099TIP3    H175712   6.085   4.476  16.867 -0.2707  0.0007  0.0698
18099TIP3    H275713   6.212   4.516  16.796  0.6820 -1.7100  0.7620
18100TIP3   OH275714   4.797   0.591  13.873 -0.0559  0.1937 -0.4206
18100TIP3    H175715   4.855   0.666  13.858 -1.0790  1.4491  1.4446
18100TIP3    H275716   4.814   0.566  13.964  0.1383 -1.8009 -0.9422
18101TIP3   OH275717   1.291   0.378   0.898  0.2732  0.2579 -0.0730
18101TIP3    H175718   1.348   0.341   0.966 -0.7714 -0.3546  0.4932
18101TIP3    H275719   1.285   0.310   0.831 -1.8569 -0.8097  1.0885
18102TIP3   OH275720   2.209   5.463  11.401 -0.0532  0.2634 -0.1063
18102TIP3    H175721   2.174   5.375  11.388 -1.7116  0.9477 -0.4550
18102TIP3    H275722   2.297   5.459  11.362  0.5310 -1.6345  1.2606
18103TIP3   OH275723   1.377   2.526   0.670  0.0290  0.0027  0.1938
18103TIP3    H175724   1.388   2.439   0.707  1.3092  0.6871  1.5288
18103TIP3    H275725   1.344   2.511   0.582  0.8808 -1.8632  0.1558
18104TIP3   OH275726   2.241   1.300  12.941 -0.1816 -0.5190 -0.5818
18104TIP3    H175727   2.222   1.321  13.032 -1.8416 -0.8565 -0.8137
18104TIP3    H275728   2.289   1.218  12.944  2.0213  0.7172  0.0799
18105TIP3   OH275729   6.015   6.380   4.244  0.6129 -0.3583 -0.5121
18105TIP3    H175730   6.035   6.312   4.309 -1.1710 -1.9366 -1.5214
18105TIP3    H275731   5.992   6.457   4.297  1.9963 -0.6899  0.6603
18106TIP3   OH275732   2.808   1.011   5.104 -0.0572 -0.4589 -0.3330
18106TIP3    H175733   2.751   1.012   5.027 -1.7694  0.7726  0.8515
18106TIP3    H275734   2.770   0.946   5.162 -0.2178  0.2796  0.4200
18107TIP3   OH275735   2.701   5.752  12.519  0.8035 -0.2752  0.7453
18107TIP3    H175736   2.731   5.784  12.604 -0.3723 -0.1351  1.1243
18107TIP3    H275737   2.715   5.657  12.524  0.0639 -0.3634  1.3927
18108TIP3   OH275738   3.920   6.356   0.790 -0.2782  0.0247 -0.6503
18108TIP3    H175739   3.903   6.450   0.800  1.0489  0.3995 -1.6637
18108TIP3    H275740   3.880   6.316   0.867  1.2160  1.6621  1.0687
18109TIP3   OH275741   0.966   0.722   5.952  0.4443  0.0604 -0.3366
18109TIP3    H175742   0.995   0.635   5.924  0.0679 -0.3742  0.5698
18109TIP3    H275743   1.008   0.734   6.038 -1.2302 -0.1627  0.5518
18110TIP3   OH275744   2.457   6.162   2.522 -0.4157  0.1845 -0.5960
18110TIP3    H175745   2.426   6.072   2.527 -1.8713  0.5742 -1.7231
18110TIP3    H275746   2.492   6.181   2.609 -1.3863 -1.0206  0.0867
18111TIP3   OH275747   1.012   5.025   4.332  0.0149  0.4905  0.2341
18111TIP3    H175748   0.937   5.065   4.375 -0.7648 -0.6921  0.0135
18111TIP3    H275749   1.030   5.083   4.258  1.2593  2.4462  1.9459
18112TIP3   OH275750   3.745   1.372   6.507 -0.1963 -1.1375  0.4361
18112TIP3    H175751   3.652   1.369   6.484 -0.1939  0.6097  0.0144
18112TIP3    H275752   3.775   1.456   6.471  0.9201 -0.4383  2.8142
18113TIP3   OH275753   2.507   3.907  15.116  0.0949 -0.4247  0.1040
18113TIP3    H175754   2.536   3.993  15.148  1.0604 -0.9301  0.6301
18113TIP3    H275755   2.532   3.905  15.024  2.0615 -0.9557  0.6092
18114TIP3   OH275756   6.346   0.229  16.673 -0.4376 -0.1591  0.0347
18114TIP3    H175757   6.343   0.276  16.756 -0.1036 -1.0277  0.5533
18114TIP3    H275758   6.336   0.297  16.607 -3.3176  0.3058  0.8091
18115TIP3   OH275759   2.935   0.241   1.515  0.0883 -0.2818  0.0648
18115TIP3    H175760   2.966   0.180   1.448  0.5431  0.2351 -0.2072
18115TIP3    H275761   3.015   0.273   1.557 -0.1167  0.4188 -0.0641
18116TIP3   OH275762   3.109   4.973   5.052  0.0842  0.3684  0.1766
18116TIP3    H175763   3.179   5.037   5.052 -0.0827  0.6413 -1.8639
18116TIP3    H275764   3.148   4.894   5.013 -0.3952  0.0952  0.2365
18117TIP3   OH275765   1.436   4.958  13.873  0.6334 -0.3369 -0.0152
18117TIP3    H175766   1.347   4.938  13.901  0.7759  1.4031  1.8757
18117TIP3    H275767   1.425   5.024  13.804  0.4357 -1.1706 -0.7960
18118TIP3   OH275768   2.592   2.883  15.954 -0.2551 -0.2204  0.3103
18118TIP3    H175769   2.498   2.864  15.954 -0.3980  0.3921 -0.9154
18118TIP3    H275770   2.620   2.866  15.864  0.7360 -0.0298  0.5722
18119TIP3   OH275771   3.282   4.978   5.496  0.5279 -0.3006  1.2974
18119TIP3    H175772   3.330   5.005   5.417 -0.3303  1.3454  1.2959
18119TIP3    H275773   3.221   4.912   5.464  1.3503 -0.8949  0.9146
18120TIP3   OH275774   0.130   0.312  10.921  0.1549 -0.6124  0.5496
18120TIP3    H175775   0.191   0.344  10.854 -0.4368  0.2228  0.3999
18120TIP3    H275776   0.055   0.370  10.915  0.2034 -0.3541  2.1249
18121TIP3   OH275777   1.716   5.898   0.661  0.0201 -0.2189  0.2232
18121TIP3    H175778   1.706   5.990   0.637 -0.6150 -0.1123  0.8334
18121TIP3    H275779   1.710   5.850   0.579  0.7879  0.3038 -0.1546
18122TIP3   OH275780   5.333   2.771  13.750 -0.1554  0.3814 -0.3455
18122TIP3    H175781   5.350   2.820  13.831 -2.3412 -1.6480  1.4881
18122TIP3    H275782   5.251   2.808  13.717  0.3905  0.7512 -1.3223
18123TIP3   OH275783   2.223   2.720  13.517 -0.9347  0.1688 -0.1215
18123TIP3    H175784   2.159   2.768  13.465 -1.2288 -0.6125 -0.4980
18123TIP3    H275785   2.304   2.726  13.466 -1.1314 -0.2813 -0.4968
18124TIP3   OH275786   0.165   3.492   5.141  0.6602  0.2909  0.0075
18124TIP3    H175787   0.105   3.506   5.214  2.8335 -0.8650  2.1604
18124TIP3    H275788   0.126   3.419   5.092 -0.2602  0.3190  0.6729
18125TIP3   OH275789   0.368   3.135   3.781  0.2601 -0.0123 -0.1405
18125TIP3    H175790   0.435   3.203   3.781  0.2098  0.0406 -0.4275
18125TIP3    H275791   0.409   3.061   3.737  1.1265 -1.0023  2.2418
18126TIP3   OH275792   4.238   2.537   1.660  0.0815  0.2444  0.0203
18126TIP3    H175793   4.321   2.578   1.635  0.1068  0.9471  1.1709
18126TIP3    H275794   4.241   2.450   1.620  0.3350  1.0914 -1.8828
18127TIP3   OH275795   3.393   4.485  14.329 -0.5117  0.6921 -0.3437
18127TIP3    H175796   3.436   4.568  14.350  0.4308 -0.5509  3.4762
18127TIP3    H275797   3.308   4.490  14.373  0.0578 -0.7596  1.0040
18128TIP3   OH275798   4.826   2.645   6.168  0.4190  0.6550  0.8724
18128TIP3    H175799   4.857   2.660   6.079 -0.9385  1.8875  0.5832
18128TIP3    H275800   4.833   2.730   6.211 -2.0180  0.8945  0.9282
18129TIP3   OH275801   0.630   3.788  10.421 -0.4855  0.0302 -0.0103
18129TIP3    H175802   0.650   3.713  10.477  1.7510  1.1774  0.8499
18129TIP3    H275803   0.628   3.863  10.480 -2.3573  0.7472 -0.9036
18130TIP3   OH275804   4.216   1.030   4.352 -0.2106  0.3723 -0.3614
18130TIP3    H175805   4.225   1.055   4.444  2.1622  1.1876 -0.7438
18130TIP3    H275806   4.234   1.111   4.303 -1.3783 -0.0574 -1.5539
18131TIP3   OH275807   2.971   5.359   2.497 -0.0822 -0.2458 -0.8626
18131TIP3    H175808   2.969   5.394   2.586 -4.5059 -3.4378  0.6278
18131TIP3    H275809   2.921   5.422   2.445 -0.0365  0.1381 -0.4458
18132TIP3   OH275810   4.241   0.211  11.915 -0.1228 -0.2435 -0.3907
18132TIP3    H175811   4.269   0.153  11.986 -1.1052 -0.8080 -0.4416
18132TIP3    H275812   4.145   0.204  11.916 -0.1517 -0.2049 -1.7215
18133TIP3   OH275813   3.946   6.777   2.531  0.3655 -0.1094 -0.3040
18133TIP3    H175814   3.905   6.839   2.470  0.6161  0.4186  0.0555
18133TIP3    H275815   3.962   6.699   2.478  0.1864  0.1888 -0.8078
18134TIP3   OH275816   3.072   4.130  16.884 -0.2337 -0.1021 -0.6750
18134TIP3    H175817   3.039   4.201  16.938 -2.4635 -0.2955 -1.7111
18134TIP3    H275818   3.051   4.051  16.933 -0.3019 -0.1829 -0.8345
18135TIP3   OH275819   0.486   6.039  15.060  0.1912  0.3266  0.1099
18135TIP3    H175820   0.432   6.009  14.987  0.3333  2.0775 -0.7716
18135TIP3    H275821   0.527   5.959  15.094 -1.2626 -0.7474 -0.5676
18136TIP3   OH275822   1.099   0.489   1.919  0.2219  0.3696  1.0255
18136TIP3    H175823   1.144   0.549   1.979 -0.9072  1.2273  1.0674
18136TIP3    H275824   1.068   0.546   1.848 -0.5442 -0.2338  0.8644
18137TIP3   OH275825   0.289   2.802  10.733  0.2233  0.0710 -0.4307
18137TIP3    H175826   0.325   2.714  10.748 -1.8274 -0.6050  0.9223
18137TIP3    H275827   0.293   2.814  10.638  1.6019 -0.9796 -0.5398
18138TIP3   OH275828   3.336   5.365   0.449  0.0997 -0.7010  0.4579
18138TIP3    H175829   3.381   5.282   0.434 -0.5515 -0.8216 -0.9365
18138TIP3    H275830   3.347   5.414   0.368  0.3583  0.5441  1.2099
18139TIP3   OH275831   6.274   6.523  15.319  0.0896 -0.1585 -0.3723
18139TIP3    H175832   6.186   6.546  15.349  0.0871 -0.0533 -0.4607
18139TIP3    H275833   6.277   6.427  15.324 -0.0924 -0.1725 -0.5486
18140TIP3   OH275834   2.802   0.994  10.889 -0.6661  0.2616  0.3178
18140TIP3    H175835   2.787   0.954  10.803  1.9476  1.8876 -1.0077
18140TIP3    H275836   2.895   0.977  10.907 -0.6567  1.7493  1.8491
18141TIP3   OH275837   0.811   6.400   0.712 -0.7235  0.6163  0.0191
18141TIP3    H175838   0.820   6.484   0.667  0.3968  0.3479 -0.2688
18141TIP3    H275839   0.722   6.371   0.690 -0.3153  0.6249 -1.8095
18142TIP3   OH275840   6.409   2.484  13.972 -0.5600 -0.3606 -0.3812
18142TIP3    H175841   6.323   2.443  13.964 -0.0304 -1.6530  0.2977
18142TIP3    H275842   6.429   2.480  14.066  0.0674  0.3244 -0.4720
18143TIP3   OH275843   5.209   5.731   1.293  0.2249  0.1872  0.2750
18143TIP3    H175844   5.257   5.762   1.217 -0.6511 -0.3111 -0.4981
18143TIP3    H275845   5.239   5.787   1.365  3.0657 -1.0033  0.1927
18144TIP3   OH275846   1.649   1.548   1.196  0.0281 -0.1593 -0.4236
18144TIP3    H175847   1.633   1.487   1.268 -0.7917 -0.1482 -0.5850
18144TIP3    H275848   1.674   1.630   1.239 -1.0161  0.0140 -0.1144
18145TIP3   OH275849   2.734   6.523  13.963  0.1432  0.8732 -0.7694
18145TIP3    H175850   2.791   6.517  13.886 -0.6091  1.9179 -1.4456
18145TIP3    H275851   2.649   6.493  13.932  0.0628  0.3738 -0.0740
18146TIP3   OH275852   4.133   6.198  12.827 -0.0026 -0.1520  0.0958
18146TIP3    H175853   4.041   6.222  12.824 -0.2599 -0.8660  1.4630
18146TIP3    H275854   4.133   6.105  12.851  1.0131 -0.9249 -2.4885
18147TIP3   OH275855   4.939   5.549  15.026  0.2979  0.6760 -0.3953
18147TIP3    H175856   4.944   5.491  14.950  2.0817  0.8449 -0.4523
18147TIP3    H275857   5.025   5.543  15.067 -0.1486  1.7299  0.7669
18148TIP3   OH275858   2.246   3.753   0.947 -0.3502 -0.4753 -0.5455
18148TIP3    H175859   2.291   3.811   1.008  0.8654 -0.1281 -1.7576
18148TIP3    H275860   2.176   3.806   0.910  0.5601  0.1354 -1.4134
18149TIP3   OH275861   1.083   2.959  16.332  0.3317  0.0346  0.4838
18149TIP3    H175862   1.164   2.947  16.381 -0.8250  0.0179  2.4987
18149TIP3    H275863   1.030   3.016  16.387 -1.1812 -0.2633 -0.5996
18150TIP3   OH275864   0.344   2.413   1.353  0.6800 -0.2257  0.3169
18150TIP3    H175865   0.351   2.318   1.346 -0.9207 -0.3496  0.1813
18150TIP3    H275866   0.289   2.440   1.280 -0.0150  0.6476  1.1324
18151TIP3   OH275867   4.728   3.629   6.060  0.2388 -0.3801 -0.0220
18151TIP3    H175868   4.700   3.715   6.030  0.0656 -0.0555  1.0069
18151TIP3    H275869   4.812   3.645   6.103  0.2570 -0.7426  0.0796
18152TIP3   OH275870   1.776   2.744   6.278  0.4129 -0.0115  0.2292
18152TIP3    H175871   1.683   2.723   6.289  0.8145 -1.0548  2.1725
18152TIP3    H275872   1.820   2.691   6.345  2.4024  0.5664 -0.5520
18153TIP3   OH275873   2.605   3.535   4.947  0.4778 -0.4111  0.0944
18153TIP3    H175874   2.526   3.521   4.894 -1.9695 -1.0477  3.5816
18153TIP3    H275875   2.582   3.607   5.007  2.2839 -1.0568  1.6826
18154TIP3   OH275876   2.706   2.186  14.875  0.1960  0.1836 -0.6726
18154TIP3    H175877   2.717   2.264  14.929 -1.8838  1.2285 -1.6366
18154TIP3    H275878   2.754   2.206  14.794  0.1525  0.2145 -0.6904
18155TIP3   OH275879   0.995   6.248  11.148 -0.1587  0.6648  0.3590
18155TIP3    H175880   1.021   6.309  11.218  0.8668 -0.7260  1.2465
18155TIP3    H275881   0.921   6.200  11.185  1.4429 -1.2672  1.2693
18156TIP3   OH275882   2.299   5.392  15.932  0.1848 -0.4587 -0.0322
18156TIP3    H175883   2.286   5.363  16.022 -0.3275 -3.4475 -0.9779
18156TIP3    H275884   2.393   5.382  15.917 -0.0108 -1.9971 -0.4071
18157TIP3   OH275885   4.048   0.971   2.393  0.3075  0.3939  0.6864
18157TIP3    H175886   4.128   0.986   2.341  0.8759 -0.1253  1.3878
18157TIP3    H275887   4.074   0.992   2.482 -0.4575  0.5866  0.8624
18158TIP3   OH275888   2.721   1.620  13.918 -0.1520 -0.4339  0.0583
18158TIP3    H175889   2.629   1.621  13.944 -0.7066 -3.0734 -1.4677
18158TIP3    H275890   2.768   1.600  13.999 -1.2024 -1.7384  0.3939
18159TIP3   OH275891   2.706   1.140   1.744  0.5901  0.5191  0.2043
18159TIP3    H175892   2.641   1.202   1.777  0.8996  1.1389 -0.3283
18159TIP3    H275893   2.777   1.195   1.711 -0.9307  0.1497 -4.3040
18160TIP3   OH275894   6.131   6.628   2.487  0.9486 -0.7246 -0.1932
18160TIP3    H175895   6.048   6.587   2.462  1.4599 -1.4236 -0.8179
18160TIP3    H275896   6.160   6.674   2.408  0.9971 -0.2072  0.1227
18161TIP3   OH275897   5.380   2.946  15.319  0.1364  0.2184  0.3541
18161TIP3    H175898   5.354   2.857  15.293  0.0338 -0.8667  3.6979
18161TIP3    H275899   5.297   2.993  15.330  0.1812  0.6871 -1.0676
18162TIP3   OH275900   3.152   6.328  12.940 -0.5730 -0.5805  0.1516
18162TIP3    H175901   3.103   6.310  13.021  0.3135  1.6981  1.2771
18162TIP3    H275902   3.235   6.283  12.952  0.5224  1.6679  1.6891
18163TIP3   OH275903   0.293   2.202   2.441  0.5244  0.2398  0.5212
18163TIP3    H175904   0.223   2.137   2.444  0.0046  0.6879 -0.9782
18163TIP3    H275905   0.250   2.286   2.453  0.9279  0.4568  0.4842
18164TIP3   OH275906   0.033   5.178   5.317  0.0671 -0.7067 -0.3014
18164TIP3    H175907   0.001   5.233   5.246 -0.7541 -0.3807  0.3001
18164TIP3    H275908  -0.034   5.109   5.325 -0.3258 -0.2266  0.7328
18165TIP3   OH275909   2.031   6.208  14.941  0.2714  0.0563 -0.4265
18165TIP3    H175910   1.982   6.133  14.975 -0.0354 -0.1984 -1.4027
18165TIP3    H275911   2.025   6.274  15.010 -0.1866 -0.5025  0.0808
18166TIP3   OH275912   3.875   3.491  11.266  0.1813  0.7834 -0.9722
18166TIP3    H175913   3.911   3.549  11.334  0.7299 -1.7756  1.0847
18166TIP3    H275914   3.949   3.472  11.209  0.1650  1.5518 -1.2582
18167TIP3   OH275915   2.785   6.393   5.035  0.1228  0.0439 -0.2125
18167TIP3    H175916   2.789   6.392   4.940  2.6886  1.2787 -0.2156
18167TIP3    H275917   2.762   6.483   5.057 -2.3800 -0.6856  0.3773
18168TIP3   OH275918   1.797   5.123  14.647  0.3237 -0.1212 -0.3099
18168TIP3    H175919   1.734   5.088  14.710  0.6621 -1.4942 -0.6935
18168TIP3    H275920   1.747   5.184  14.593 -0.5577 -0.8411 -0.3151
18169TIP3   OH275921   0.491   6.491  16.681 -0.3430 -0.1466 -0.6400
18169TIP3    H175922   0.559   6.533  16.629  0.5497 -1.4975 -0.6124
18169TIP3    H275923   0.421   6.472  16.618 -0.9820  1.7373 -0.5684
18170TIP3   OH275924   6.461   6.644   6.569  0.0396  0.0831  0.0333
18170TIP3    H175925   6.538   6.700   6.559 -0.5031  0.9130  0.3583
18170TIP3    H275926   6.486   6.579   6.634  0.7566 -0.2024 -0.5176
18171TIP3   OH275927   4.344   1.310   3.088  0.3615 -0.2109  0.5252
18171TIP3    H175928   4.319   1.401   3.106 -0.5862 -0.6171  1.3705
18171TIP3    H275929   4.438   1.307   3.105  0.6452  0.8854 -0.7014
18172TIP3   OH275930   5.558   3.792  12.453  0.0828 -0.6732 -0.3772
18172TIP3    H175931   5.554   3.703  12.488 -0.1737 -0.6378 -0.3165
18172TIP3    H275932   5.486   3.838  12.497 -1.2817 -1.0322 -2.1128
18173TIP3   OH275933   3.974   4.671   3.676  0.5081 -0.4062 -0.4095
18173TIP3    H175934   3.956   4.598   3.617 -0.3235 -0.4817 -0.0657
18173TIP3    H275935   3.981   4.747   3.618 -1.0905 -0.3417 -0.5573
18174TIP3   OH275936   6.209   0.037   3.151  0.3800 -0.1082 -0.1292
18174TIP3    H175937   6.211   0.129   3.178 -0.6688  0.1952 -1.0244
18174TIP3    H275938   6.252   0.036   3.066 -0.0279 -0.3686 -0.3338
18175TIP3   OH275939   4.818   3.983   3.014 -0.0253 -0.6014 -0.2079
18175TIP3    H175940   4.850   4.043   2.946 -1.9049 -1.0762 -1.6060
18175TIP3    H275941   4.740   4.025   3.048  0.6071 -0.6296  1.3509
18176TIP3   OH275942   2.050   5.097  10.789 -0.7115  0.2763  0.1722
18176TIP3    H175943   2.132   5.113  10.742  0.0572  0.7458  1.6078
18176TIP3    H275944   1.993   5.055  10.724  0.8212 -0.5194 -0.7220
18177TIP3   OH275945   5.035   4.891   3.435 -0.0121  0.2060 -0.5544
18177TIP3    H175946   5.117   4.938   3.425  0.1231 -0.2376 -1.6189
18177TIP3    H275947   5.030   4.872   3.529  0.1592  1.8814 -0.1786
18178TIP3   OH275948   4.170   5.676  11.897 -0.2101  0.3587 -0.5376
18178TIP3    H175949   4.139   5.611  11.960 -0.3151 -0.3652 -1.3258
18178TIP3    H275950   4.107   5.673  11.826 -0.7064  1.9545 -0.2047
18179TIP3   OH275951   4.085   6.713   3.903 -0.1962 -0.5058  0.1069
18179TIP3    H175952   4.002   6.757   3.925  0.0458  0.9865 -1.7885
18179TIP3    H275953   4.081   6.700   3.808  1.6939 -0.5387  0.0024
18180TIP3   OH275954   4.062   1.347   4.026  0.2424  0.0470  0.0195
18180TIP3    H175955   3.987   1.375   3.973  2.2376  0.9212 -2.5230
18180TIP3    H275956   4.113   1.427   4.038  1.2636 -0.7188  0.8902
18181TIP3   OH275957   6.203   3.521  13.028  0.1044  0.2800  0.1677
18181TIP3    H175958   6.157   3.574  12.962 -0.2594  0.7573  0.7944
18181TIP3    H275959   6.283   3.569  13.046  0.1266  0.2332  0.1935
18182TIP3   OH275960   3.202   6.200  14.179 -0.7977  0.0396  0.2876
18182TIP3    H175961   3.138   6.182  14.110 -0.8819  2.1293 -0.2479
18182TIP3    H275962   3.176   6.286  14.214  1.0172  0.4003  0.8479
18183TIP3   OH275963   0.271   4.175  14.788 -0.0732 -0.5755 -0.3105
18183TIP3    H175964   0.287   4.249  14.846 -1.8651  1.7195 -2.5410
18183TIP3    H275965   0.329   4.106  14.821  1.4179  1.6504  2.1056
18184TIP3   OH275966   5.719   5.933   5.046  0.8632  0.3853  0.2636
18184TIP3    H175967   5.656   5.994   5.084  0.0998 -0.1183 -0.1423
18184TIP3    H275968   5.730   5.865   5.113  1.0697  0.5387  0.3849
18185TIP3   OH275969   0.210   6.272   4.719  0.0552  0.1266  0.1643
18185TIP3    H175970   0.253   6.186   4.724  0.8198  0.3925 -1.1257
18185TIP3    H275971   0.123   6.258   4.756 -0.9742 -1.9993 -2.6839
18186TIP3   OH275972   4.528   2.232   0.062  0.4443 -0.1687 -0.6011
18186TIP3    H175973   4.466   2.184   0.007 -0.1960  1.5487 -1.4462
18186TIP3    H275974   4.565   2.165   0.120 -1.1424 -1.4973 -1.0317
18187TIP3   OH275975   0.689   1.610   2.894 -0.1894  0.0071 -0.3710
18187TIP3    H175976   0.773   1.572   2.865  0.6998 -0.4291  2.4120
18187TIP3    H275977   0.714   1.692   2.936 -1.1640 -0.0446  0.3317
18188TIP3   OH275978   5.060   4.410  12.402  0.0453  0.6127  0.3562
18188TIP3    H175979   5.098   4.490  12.438 -0.0939  0.6017  0.5255
18188TIP3    H275980   4.969   4.432  12.385  0.1256  0.6434 -0.0646
18189TIP3   OH275981   5.787   1.206  13.625  0.0293  0.5654 -0.0028
18189TIP3    H175982   5.712   1.254  13.590  1.0695  1.3500 -1.2355
18189TIP3    H275983   5.755   1.168  13.707 -1.6043  1.1611 -0.3295
18190TIP3   OH275984   2.169   2.818   1.056 -0.1727  0.5927 -0.2232
18190TIP3    H175985   2.123   2.870   1.121  1.0786  4.1202 -1.8996
18190TIP3    H275986   2.262   2.837   1.070  0.1953  0.5518 -2.2796
18191TIP3   OH275987   3.576   2.633  15.258  0.9723 -0.6687 -0.1876
18191TIP3    H175988   3.486   2.645  15.227  1.8990 -0.2081 -2.9627
18191TIP3    H275989   3.566   2.610  15.351 -2.0527 -1.9068 -0.6865
18192TIP3   OH275990   1.018   5.560  12.494  0.3756 -0.3052 -0.0332
18192TIP3    H175991   0.937   5.566  12.444  0.4261 -0.0211 -0.0808
18192TIP3    H275992   1.085   5.533  12.430  0.1603 -1.3744  0.1703
18193TIP3   OH275993   4.882   3.337  11.926 -0.0514  0.4265  0.2114
18193TIP3    H175994   4.864   3.247  11.954  1.0673 -0.2259 -1.0489
18193TIP3    H275995   4.920   3.379  12.003  0.3124 -0.4669  0.5243
18194TIP3   OH275996   2.812   0.810   4.556  0.3196 -0.1791  0.1133
18194TIP3    H175997   2.806   0.905   4.559 -0.2692 -0.2328  0.8641
18194TIP3    H275998   2.821   0.789   4.463  0.4752  0.6065 -0.0542
18195TIP3   OH275999   0.837   3.117   4.397  0.3199 -0.2443  0.5576
18195TIP3    H176000   0.748   3.107   4.364  0.5513  1.8414 -0.9056
18195TIP3    H276001   0.888   3.143   4.320  1.7945  0.4770  1.7308
18196TIP3   OH276002   4.366   4.455  10.759 -0.7101  0.0318 -0.1662
18196TIP3    H176003   4.425   4.442  10.684  0.6716 -1.0176  1.0440
18196TIP3    H276004   4.418   4.504  10.822 -0.6541 -1.9045  1.4051
18197TIP3   OH276005   0.069   3.525   1.000  0.7103  0.2240 -0.0205
18197TIP3    H176006   0.022   3.451   0.961  0.1898  0.2421  0.5506
18197TIP3    H276007   0.159   3.514   0.971  0.4005  0.0757 -0.9830
18198TIP3   OH276008   0.939   1.254  11.629 -0.4436 -0.0892 -0.6176
18198TIP3    H176009   0.947   1.205  11.547  0.6899 -0.4668 -0.2961
18198TIP3    H276010   0.862   1.217  11.672  1.4742 -3.0704  0.5538
18199TIP3   OH276011   1.476   5.544   5.828 -0.3175 -0.2648 -0.0305
18199TIP3    H176012   1.490   5.635   5.851  4.2857 -0.2735 -1.7046
18199TIP3    H276013   1.521   5.494   5.897  0.7145 -0.9487 -1.1359
18200TIP3   OH276014   5.895   4.057  11.142 -0.3871 -0.4483  0.1835
18200TIP3    H176015   5.826   4.123  11.136 -0.1208 -0.1924 -0.0779
18200TIP3    H276016   5.859   3.981  11.096 -1.5878 -1.2698  2.3389
18201TIP3   OH276017   5.168   4.442   4.693  0.0903  0.5942  0.6791
18201TIP3    H176018   5.245   4.404   4.734  0.7644 -0.2735 -1.2736
18201TIP3    H276019   5.095   4.390   4.726  0.8006 -1.2652 -0.5273
18202TIP3   OH276020   2.410   0.119  13.586 -0.2518 -0.1807  0.1028
18202TIP3    H176021   2.500   0.115  13.553 -0.6331  0.2983 -1.0615
18202TIP3    H276022   2.420   0.120  13.681  0.9503 -0.6092  0.0069
18203TIP3   OH276023   4.804   3.444  14.126  0.1206 -0.2146 -0.3523
18203TIP3    H176024   4.800   3.378  14.194  0.1617 -0.2871 -0.4212
18203TIP3    H276025   4.771   3.401  14.047 -2.5759  0.6170  0.2086
18204TIP3   OH276026   6.220   2.445   5.911 -0.3079  0.4432 -0.2184
18204TIP3    H176027   6.214   2.496   5.992  1.6305  0.0312  0.2278
18204TIP3    H276028   6.231   2.354   5.940  0.7603  0.3286 -0.9019
18205TIP3   OH276029   6.597   2.645  12.086 -0.1385 -0.1288 -0.6497
18205TIP3    H176030   6.626   2.647  11.995  0.7233  1.0019 -0.3636
18205TIP3    H276031   6.549   2.727  12.098  0.3604  0.0696  0.0997
18206TIP3   OH276032   6.260   1.486  16.407  0.2227 -0.9080 -0.0510
18206TIP3    H176033   6.345   1.522  16.382 -0.0269 -1.3169 -1.5520
18206TIP3    H276034   6.268   1.392  16.389  0.2522 -1.3811  2.1055
18207TIP3   OH276035   1.705   4.693  12.702  0.4193  0.5234  0.0505
18207TIP3    H176036   1.693   4.625  12.635  0.7679 -0.1023  0.6099
18207TIP3    H276037   1.791   4.729  12.684  0.5659  0.2684  0.2363
18208TIP3   OH276038   0.788   5.514   5.519 -0.1725 -0.0596  0.3553
18208TIP3    H176039   0.793   5.609   5.510  0.1836 -0.2678 -2.7162
18208TIP3    H276040   0.880   5.485   5.515 -0.3656 -0.6037 -0.2912
18209TIP3   OH276041   0.406   0.192  11.749 -0.5143  0.0800 -0.8844
18209TIP3    H176042   0.349   0.268  11.739 -1.8041 -0.9152 -1.4359
18209TIP3    H276043   0.464   0.214  11.822 -2.3296  0.7123  0.4339
18210TIP3   OH276044   0.931   2.705  11.833  0.1012 -0.2364 -0.1911
18210TIP3    H176045   0.843   2.730  11.805 -0.1635 -0.2001  0.6363
18210TIP3    H276046   0.980   2.787  11.831  0.0669 -0.2243 -0.4972
18211TIP3   OH276047   4.967   5.098  14.973 -0.5289 -0.0074 -0.1368
18211TIP3    H176048   4.892   5.118  14.917 -1.7770 -1.4449  0.9291
18211TIP3    H276049   4.962   5.004  14.988  2.3126 -0.4086 -1.1194
18212TIP3   OH276050   2.899   6.411   4.782  0.2339 -0.5355 -0.0720
18212TIP3    H176051   2.923   6.321   4.807  0.8932 -0.2994  0.1682
18212TIP3    H276052   2.972   6.439   4.726  1.5997  0.9168  2.2772
18213TIP3   OH276053   6.570   1.087   3.082 -0.1872 -0.1588  0.1174
18213TIP3    H176054   6.557   1.082   3.177  0.5810 -0.7218  0.1951
18213TIP3    H276055   6.594   0.998   3.056 -0.1080  0.0566 -0.5651
18214TIP3   OH276056   5.899   0.201  11.788 -0.6283 -0.0819  0.1833
18214TIP3    H176057   5.876   0.272  11.847 -0.9061  1.6507 -1.9172
18214TIP3    H276058   5.876   0.233  11.701  1.0038 -1.9996 -1.0366
18215TIP3   OH276059   3.991   5.288   5.109  0.4451  0.2019  0.7222
18215TIP3    H176060   3.926   5.341   5.064  0.6729  0.3003  0.5034
18215TIP3    H276061   3.958   5.280   5.199 -0.0973 -0.1403  0.4980
18216TIP3   OH276062   6.759   6.464   4.551 -0.5585 -0.0119 -0.3246
18216TIP3    H176063   6.808   6.396   4.505 -1.3115 -1.6807  1.2337
18216TIP3    H276064   6.670   6.457   4.515 -0.6310  0.1858 -0.1842
18217TIP3   OH276065   5.542   4.659   1.988  0.6781  0.0676  0.5725
18217TIP3    H176066   5.637   4.671   1.986  0.4903  1.8769 -1.3370
18217TIP3    H276067   5.507   4.748   1.996 -0.8680 -0.3249 -1.2232
18218TIP3   OH276068   0.262   1.749   1.571  0.3500 -0.0359 -0.7606
18218TIP3    H176069   0.197   1.759   1.501  1.9379  1.0646 -2.1491
18218TIP3    H276070   0.256   1.829   1.622  0.2966 -0.1422 -0.5988
18219TIP3   OH276071   2.678   6.704   1.802  0.1439 -0.0660 -0.6560
18219TIP3    H176072   2.679   6.793   1.765  1.4202  0.9373  1.6375
18219TIP3    H276073   2.769   6.676   1.800  0.3076  0.0902  1.7131
18220TIP3   OH276074   1.589   4.880   3.293 -0.2754 -0.6875  0.0324
18220TIP3    H176075   1.614   4.889   3.385  0.2786  2.4158 -0.3190
18220TIP3    H276076   1.564   4.969   3.266 -2.0678 -1.8083 -2.3816
18221TIP3   OH276077   6.008   6.636  16.781  0.5993  0.1071  0.6020
18221TIP3    H176078   6.066   6.647  16.705  0.8206  1.3301  0.9194
18221TIP3    H276079   5.935   6.584  16.749  1.0556 -0.0133 -0.2572
18222TIP3   OH276080   1.550   0.761  14.461  0.1923 -0.3342 -0.0982
18222TIP3    H176081   1.602   0.681  14.473 -1.2268 -1.0116  2.0906
18222TIP3    H276082   1.530   0.790  14.550 -0.5393  1.6858 -0.8653
18223TIP3   OH276083   0.071   2.529   3.551 -0.3721  0.1699 -0.4025
18223TIP3    H176084   0.008   2.553   3.483  1.1904  0.5395 -1.7566
18223TIP3    H276085   0.143   2.487   3.505  0.8897  0.7199  0.9760
18224TIP3   OH276086   2.691   4.537   0.575 -0.9149 -0.1397 -0.1242
18224TIP3    H176087   2.692   4.494   0.490  0.6751  1.5040 -1.0239
18224TIP3    H276088   2.616   4.499   0.621 -0.1536 -3.1043 -1.1464
18225TIP3   OH276089   4.439   5.343  11.527  0.3612  0.1776 -0.4136
18225TIP3    H176090   4.453   5.283  11.454  1.6332 -0.0557 -0.0159
18225TIP3    H276091   4.420   5.286  11.602 -1.1744  0.4237 -0.5791
18226TIP3   OH276092   6.557   5.461  14.293 -0.5147  0.6829 -0.1528
18226TIP3    H176093   6.619   5.523  14.332  0.9509 -0.0640 -1.1675
18226TIP3    H276094   6.544   5.493  14.204 -0.3987  0.0229 -0.4157
18227TIP3   OH276095   5.164   1.874  13.171  0.4176  0.0544 -0.5545
18227TIP3    H176096   5.219   1.938  13.215  1.1087  0.2143 -1.6327
18227TIP3    H276097   5.208   1.856  13.088  0.1234 -1.6416 -0.3863
18228TIP3   OH276098   3.710   1.204  11.972  0.1075  0.0375 -0.1842
18228TIP3    H176099   3.646   1.165  12.032  0.0945 -1.2070 -0.9740
18228TIP3    H276100   3.794   1.168  12.000  0.2979  0.5801 -0.0321
18229TIP3   OH276101   2.732   3.022   1.593  0.2322 -0.0628  0.2053
18229TIP3    H176102   2.670   2.995   1.661  1.4059 -0.6000  1.1099
18229TIP3    H276103   2.757   2.939   1.550 -1.4828  0.3801 -1.8285
18230TIP3   OH276104   3.769   4.277  15.741 -0.8128  0.3994  0.1508
18230TIP3    H176105   3.854   4.246  15.710 -1.1773  0.3000 -0.7975
18230TIP3    H276106   3.779   4.372  15.748 -0.2735  0.2855  1.2141
18231TIP3   OH276107   3.174   4.127  11.862 -0.0434  0.4473 -0.3774
18231TIP3    H176108   3.126   4.210  11.858 -1.5891 -0.4384 -0.9915
18231TIP3    H276109   3.265   4.151  11.841 -0.4958  1.9496 -0.7491
18232TIP3   OH276110   3.336   0.193  10.741 -0.1500  0.0814 -0.2698
18232TIP3    H176111   3.309   0.105  10.715 -1.3194  0.4963 -0.4965
18232TIP3    H276112   3.420   0.180  10.786 -1.1830 -1.3807  1.3808
18233TIP3   OH276113   5.840   5.395   0.632 -0.0633 -0.5640  0.7207
18233TIP3    H176114   5.847   5.312   0.583 -0.7736 -1.9385  2.8112
18233TIP3    H276115   5.747   5.405   0.650  0.0769  0.4386  0.9554
18234TIP3   OH276116   1.568   1.524  12.347 -0.5300 -0.1530  0.8386
18234TIP3    H176117   1.581   1.610  12.386  0.6425 -0.7426  1.8245
18234TIP3    H276118   1.549   1.542  12.255  0.8480  1.1377  0.7644
18235TIP3   OH276119   5.542   6.485  15.429  0.1680 -0.2312 -0.2481
18235TIP3    H176120   5.587   6.550  15.375  0.8568 -1.1410 -0.8100
18235TIP3    H276121   5.544   6.405  15.376 -0.7208 -0.6912  0.3937
18236TIP3   OH276122   4.109   5.654  15.213 -0.6588  0.5900  0.6962
18236TIP3    H176123   4.166   5.637  15.138 -1.2758 -1.1615  0.5625
18236TIP3    H276124   4.166   5.644  15.289 -0.5519 -0.1902  0.5276
18237TIP3   OH276125   4.732   6.226   2.614  0.3437  0.4741 -0.2475
18237TIP3    H176126   4.736   6.317   2.584 -0.5871  0.9538  0.9794
18237TIP3    H276127   4.690   6.231   2.700  0.9272 -1.0536  0.1605
18238TIP3   OH276128   4.135   2.593  12.807  0.1980 -0.2380 -0.2331
18238TIP3    H176129   4.088   2.565  12.728 -1.4609 -0.9378  0.9453
18238TIP3    H276130   4.156   2.511  12.852  2.6210  0.0495 -0.6962
18239TIP3   OH276131   6.177   1.717  12.478 -0.3214 -0.2569 -0.0258
18239TIP3    H176132   6.120   1.772  12.424 -0.5263 -2.1899 -1.8630
18239TIP3    H276133   6.257   1.706  12.426 -0.2501 -1.6272  0.3542
18240TIP3   OH276134   1.829   1.517  12.092 -0.2699  0.4997 -0.4851
18240TIP3    H176135   1.825   1.589  12.155  1.6460 -1.0872  1.6141
18240TIP3    H276136   1.738   1.493  12.077 -0.8139  0.8905  1.8064
18241TIP3   OH276137   6.433   1.819   2.645 -0.8558  0.1110 -0.1938
18241TIP3    H176138   6.458   1.773   2.725 -1.3467  2.4051  1.3867
18241TIP3    H276139   6.410   1.907   2.675 -0.9292  1.0938 -2.9045
18242TIP3   OH276140   6.085   6.141  12.380 -0.0714  0.4583 -0.3911
18242TIP3    H176141   6.178   6.159  12.392  0.5503 -1.7870 -1.3512
18242TIP3    H276142   6.071   6.057  12.422 -1.7870  0.9267  0.0555
18243TIP3   OH276143   4.578   0.896   3.864  0.4261  0.1939  0.4570
18243TIP3    H176144   4.501   0.910   3.809  0.3403 -1.3063  0.1580
18243TIP3    H276145   4.649   0.878   3.802  0.3106 -1.5927  0.8045
18244TIP3   OH276146   3.069   3.733   2.516 -0.4025  0.0843  0.2744
18244TIP3    H176147   3.031   3.699   2.435 -0.9047 -0.0955  0.5850
18244TIP3    H276148   3.162   3.745   2.496 -0.1040 -1.9277  0.3025
18245TIP3   OH276149   5.728   1.743   5.623  0.3248  0.4952 -0.4626
18245TIP3    H176150   5.730   1.647   5.626  1.0059  0.5355  1.0192
18245TIP3    H276151   5.776   1.765   5.543  1.0488 -0.3866 -0.2880
18246TIP3   OH276152   2.039   2.837  15.142  0.0597 -0.2399 -0.3565
18246TIP3    H176153   2.100   2.834  15.069 -1.6767 -0.0254 -1.9058
18246TIP3    H276154   1.956   2.807  15.104 -0.6339 -1.3405  1.8456
18247TIP3   OH276155   1.157   2.020  16.931  0.1788 -0.0097  0.2649
18247TIP3    H176156   1.203   2.083  16.875  0.1078 -1.4362 -1.5167
18247TIP3    H276157   1.110   2.074  16.995  0.0281  1.7552 -1.2397
18248TIP3   OH276158   1.226   0.557   3.231  0.0006  0.4800  0.2390
18248TIP3    H176159   1.274   0.639   3.241  2.3248 -0.5985 -1.1103
18248TIP3    H276160   1.199   0.556   3.140 -0.5667  0.0230  0.4063
18249TIP3   OH276161   1.614   5.010  15.907 -0.4894  0.1293 -0.1248
18249TIP3    H176162   1.655   4.994  15.822 -1.2842 -0.5925 -0.3829
18249TIP3    H276163   1.527   4.970  15.900 -0.4856 -0.1285  1.1011
18250TIP3   OH276164   5.786   3.307  15.491  0.4592  0.0489  0.2306
18250TIP3    H176165   5.703   3.264  15.471 -0.6074  0.5902  3.0346
18250TIP3    H276166   5.818   3.262  15.570  3.9628 -1.5336 -1.8518
18251TIP3   OH276167   4.939   4.879   1.433  0.2765  0.1848  0.2545
18251TIP3    H176168   4.860   4.837   1.467 -0.2980  0.0360 -1.1928
18251TIP3    H276169   4.973   4.930   1.507 -0.0791 -1.2839  1.4688
18252TIP3   OH276170   1.256   0.723   2.971 -0.3532  0.3470  0.3846
18252TIP3    H176171   1.216   0.691   2.890  0.0141 -0.6834  0.5933
18252TIP3    H276172   1.181   0.747   3.026 -0.6453 -0.0512  0.1697
18253TIP3   OH276173   1.244   2.744  13.755  0.7711  0.6067  0.3617
18253TIP3    H176174   1.334   2.768  13.775  0.9696 -0.7155  1.1644
18253TIP3    H276175   1.193   2.778  13.829  0.7323  0.6438  0.3177
18254TIP3   OH276176   2.187   2.735   2.421 -0.1689  0.1840 -0.1318
18254TIP3    H176177   2.152   2.793   2.489  2.3541 -0.5776  1.9675
18254TIP3    H276178   2.277   2.718   2.448  0.9077 -0.3864 -3.5882
18255TIP3   OH276179   4.356   4.766  13.777  0.3223  0.1957 -0.4871
18255TIP3    H176180   4.391   4.819  13.849 -0.0139  0.7140 -0.7015
18255TIP3    H276181   4.371   4.676  13.804  0.7159  0.3960 -0.0247
18256TIP3   OH276182   3.462   4.551  15.345  0.0152  0.0299 -0.0590
18256TIP3    H176183   3.557   4.556  15.352  0.1052  1.2366 -1.5234
18256TIP3    H276184   3.443   4.458  15.340  1.2048 -0.1968 -0.6626
18257TIP3   OH276185   2.845   3.338  13.321 -0.4522  0.8617  0.0833
18257TIP3    H176186   2.933   3.311  13.347  0.3291  0.4692 -2.5835
18257TIP3    H276187   2.800   3.256  13.299 -1.5192  1.0610  1.4077
18258TIP3   OH276188   0.553   0.645  13.256  0.5992  0.1158 -0.2259
18258TIP3    H176189   0.577   0.608  13.341 -1.2088  1.2447  0.8376
18258TIP3    H276190   0.576   0.738  13.263  2.1841 -0.1067 -1.7195
18259TIP3   OH276191   6.436   1.789  16.168 -0.0273 -0.1080  0.3867
18259TIP3    H176192   6.505   1.845  16.204  0.8181 -0.5169 -0.5512
18259TIP3    H276193   6.403   1.839  16.093  2.1835 -1.6672 -1.7933
18260TIP3   OH276194   1.439   4.388   1.640  0.0194 -0.5331  0.1643
18260TIP3    H176195   1.514   4.434   1.602  0.9277 -2.6625 -0.7821
18260TIP3    H276196   1.474   4.348   1.720 -0.7461  0.3198  0.9547
18261TIP3   OH276197   6.480   6.015  14.391  0.1377  0.0523  0.1125
18261TIP3    H176198   6.493   6.044  14.300 -0.3970 -0.9345 -0.2868
18261TIP3    H276199   6.534   6.075  14.443  0.5301  0.5644 -0.8659
18262TIP3   OH276200   0.791   2.418  11.953 -0.0242 -0.0735 -0.0037
18262TIP3    H176201   0.884   2.406  11.935  0.0241 -0.7637  0.6565
18262TIP3    H276202   0.780   2.513  11.959  0.6192  0.0165 -0.1533
18263TIP3   OH276203   2.441   5.905   0.057  0.2784  0.7223  0.2140
18263TIP3    H176204   2.434   5.909  -0.039  1.0808  0.5400  0.1378
18263TIP3    H276205   2.447   5.996   0.084  2.6001  0.7372 -0.1466
18264TIP3   OH276206   5.323   5.028   4.698  0.3385 -0.1317 -0.4798
18264TIP3    H176207   5.311   4.977   4.778 -0.9231  1.4551  0.3881
18264TIP3    H276208   5.249   5.003   4.643 -0.7976  1.3390  0.3085
18265TIP3   OH276209   2.518   4.572   5.578 -0.2703  0.2284 -0.3404
18265TIP3    H176210   2.429   4.574   5.544  0.0680 -2.1287 -1.5718
18265TIP3    H276211   2.562   4.503   5.528  1.8406  0.3116  1.2340
18266TIP3   OH276212   5.144   5.884   0.506  0.0942 -0.0672  0.5138
18266TIP3    H176213   5.113   5.798   0.534 -0.1736  0.4537  1.8903
18266TIP3    H276214   5.206   5.865   0.435  0.1248 -1.4008  0.8685
18267TIP3   OH276215   1.848   0.429  12.867  0.1100  0.4173 -0.2130
18267TIP3    H176216   1.863   0.397  12.778 -0.6043  0.9347 -0.5377
18267TIP3    H276217   1.890   0.515  12.869  2.6622 -0.7824  0.8836
18268TIP3   OH276218   2.981   2.945  15.151 -0.2555  0.3259 -0.4201
18268TIP3    H176219   2.990   3.040  15.159 -1.6241  0.4068  0.3418
18268TIP3    H276220   2.895   2.925  15.188  0.5227 -1.3589  0.6055
18269TIP3   OH276221   2.969   0.831  16.354 -0.2516 -0.4919 -0.1335
18269TIP3    H176222   3.056   0.791  16.353 -0.4355 -0.9231  0.4942
18269TIP3    H276223   2.972   0.894  16.426 -0.3831 -0.3384 -0.2605
18270TIP3   OH276224   2.958   3.462   4.508 -0.1643 -0.2488  0.2171
18270TIP3    H176225   2.918   3.505   4.584  0.6205 -0.3965  0.7332
18270TIP3    H276226   3.039   3.510   4.493 -1.1386  0.8987 -1.6665
18271TIP3   OH276227   0.853   2.355  15.366  0.3209 -0.6789  0.5160
18271TIP3    H176228   0.846   2.401  15.283 -1.3058 -0.0228  0.9861
18271TIP3    H276229   0.910   2.409  15.419  0.0993 -0.2872  0.3559
18272TIP3   OH276230   5.804   0.917   6.407 -0.0837 -0.2377 -0.4330
18272TIP3    H176231   5.839   0.970   6.479 -0.4011 -0.6987  0.0701
18272TIP3    H276232   5.870   0.850   6.392 -0.0502 -0.1841 -0.5255
18273TIP3   OH276233   1.012   2.634  13.164  0.3736  0.9943 -0.4331
18273TIP3    H176234   0.952   2.657  13.236 -1.1735  0.9215 -1.6438
18273TIP3    H276235   1.073   2.571  13.204  0.5666  2.1455  1.2058
18274TIP3   OH276236   6.272   3.653  15.421  0.3551  0.3922  0.4440
18274TIP3    H176237   6.235   3.569  15.448 -0.1438 -0.3449 -2.2883
18274TIP3    H276238   6.316   3.685  15.500 -1.8452 -1.0303  2.4231
18275TIP3   OH276239   0.781   3.651   5.492  0.0260 -0.5651  0.0789
18275TIP3    H176240   0.716   3.606   5.546 -0.6339 -0.3925 -0.5541
18275TIP3    H276241   0.737   3.732   5.465  1.3003  0.6614  1.4612
18276TIP3   OH276242   3.071   6.449   4.031 -0.2841 -0.4216 -0.1011
18276TIP3    H176243   3.046   6.359   4.050  1.1593 -0.3392  2.8387
18276TIP3    H276244   3.163   6.443   4.005  1.0712  0.3285  3.8278
18277TIP3   OH276245   5.048   6.555  15.662 -0.6653  0.3002  0.1765
18277TIP3    H176246   5.035   6.546  15.757 -1.1659 -2.2746 -0.0759
18277TIP3    H276247   4.994   6.486  15.624 -0.1839  1.0512 -1.9976
18278TIP3   OH276248   0.037   0.151   4.838  0.1975 -0.0698 -0.2624
18278TIP3    H176249   0.120   0.129   4.882 -0.0270  1.3431  0.9165
18278TIP3    H276250   0.007   0.230   4.881 -1.3237 -0.0366 -1.3163
18279TIP3   OH276251   3.780   6.109  11.246  0.8653 -0.0902  0.0553
18279TIP3    H176252   3.797   6.202  11.260  0.4180 -0.3271  2.8261
18279TIP3    H276253   3.697   6.093  11.291 -1.0002 -1.1886 -3.4404
18280TIP3   OH276254   3.418   3.823  13.696  0.3820  0.0514 -0.5391
18280TIP3    H176255   3.373   3.894  13.741  0.7715 -1.3465  2.3053
18280TIP3    H276256   3.491   3.800  13.754  0.2690 -2.6465 -1.3008
18281TIP3   OH276257   2.396   6.686   0.348 -0.2359  0.7130  0.4170
18281TIP3    H176258   2.480   6.731   0.349 -0.2713  0.8582 -0.9076
18281TIP3    H276259   2.336   6.749   0.308 -0.2948 -0.4412 -1.4737
18282TIP3   OH276260   2.857   3.533  16.042  0.0948  0.2793  0.3504
18282TIP3    H176261   2.780   3.589  16.052  0.0902  0.4450 -0.5362
18282TIP3    H276262   2.863   3.518  15.947 -0.1669 -1.5763  0.5816
18283TIP3   OH276263   1.299   6.787  15.415  0.1822 -0.5399 -0.2853
18283TIP3    H176264   1.354   6.731  15.361 -0.5517  0.9629 -2.7040
18283TIP3    H276265   1.217   6.739  15.423 -0.3448  0.0102 -2.1065
18284TIP3   OH276266   5.058   4.293  15.650 -0.1166 -0.2456  0.0840
18284TIP3    H176267   5.014   4.371  15.618  1.7775  0.6422 -0.5003
18284TIP3    H276268   5.050   4.299  15.746 -0.5057  0.3424  0.0189
18285TIP3   OH276269   3.438   3.708  14.267  0.1881 -0.2542 -0.0291
18285TIP3    H176270   3.350   3.734  14.295 -0.0392 -1.5293  0.4890
18285TIP3    H276271   3.481   3.791  14.245 -1.3254  0.3475 -0.8702
18286TIP3   OH276272   5.118   0.476  11.666  0.3921  0.2651  0.5386
18286TIP3    H176273   5.187   0.520  11.716  0.3588 -0.7992  1.5503
18286TIP3    H276274   5.164   0.438  11.590  0.5169  1.4935 -0.0248
18287TIP3   OH276275   0.486   2.716   5.010  0.5396 -0.0950 -0.0216
18287TIP3    H176276   0.471   2.665   5.089  0.1051  1.7691  1.1815
18287TIP3    H276277   0.567   2.682   4.973  1.3684 -0.2640  1.8788
18288TIP3   OH276278   3.839   3.327  13.550 -0.6825  0.0971 -0.2992
18288TIP3    H176279   3.860   3.417  13.526  1.0256 -0.5002 -1.2095
18288TIP3    H276280   3.873   3.274  13.477 -2.2589 -1.2471 -0.1239
18289TIP3   OH276281   6.777   3.864  11.432  0.1320  0.2609  0.0581
18289TIP3    H176282   6.761   3.798  11.365 -0.2470  0.4719 -0.0659
18289TIP3    H276283   6.871   3.862  11.447  0.2043  0.1373 -0.4025
18290TIP3   OH276284   2.309   6.181  16.154 -0.4409  0.1488  0.2546
18290TIP3    H176285   2.357   6.168  16.072  1.1896  0.3378  1.1331
18290TIP3    H276286   2.303   6.093  16.192 -1.5570 -0.0007 -0.2408
18291TIP3   OH276287   5.917   6.440   1.651 -0.2275  0.8202 -0.4351
18291TIP3    H176288   5.981   6.510   1.639 -2.9144  3.4784 -0.3022
18291TIP3    H276289   5.871   6.463   1.732 -1.7302 -0.6733 -0.8156
18292TIP3   OH276290   3.683   6.090  15.122  0.0963 -0.1405 -0.2067
18292TIP3    H176291   3.655   6.019  15.179 -0.7356  0.2661 -0.0872
18292TIP3    H276292   3.626   6.083  15.045 -1.0884  1.3175  0.4796
18293TIP3   OH276293   4.973   3.402  14.813 -0.2268  0.2844 -0.0964
18293TIP3    H176294   4.935   3.489  14.821  0.2776  0.4650  0.4333
18293TIP3    H276295   5.058   3.408  14.858 -0.1862 -0.4773 -0.0437
18294TIP3   OH276296   4.603   5.832   0.735 -0.8254  0.2422 -0.7301
18294TIP3    H176297   4.535   5.841   0.802 -0.4883 -0.5237 -0.2723
18294TIP3    H276298   4.555   5.817   0.653 -1.2391  1.1284 -0.6629
18295TIP3   OH276299   5.602   5.151   4.671 -0.0666  0.5137  0.4435
18295TIP3    H176300   5.519   5.103   4.665 -0.9239  1.3655  3.6750
18295TIP3    H276301   5.667   5.088   4.641 -1.4903 -1.5863  1.4573
18296TIP3   OH276302   4.176   3.606   5.085 -0.4193 -0.9188  0.4717
18296TIP3    H176303   4.164   3.667   5.158 -2.0695 -0.2961 -0.2531
18296TIP3    H276304   4.156   3.521   5.122 -1.7102 -0.5514  0.6824
18297TIP3   OH276305   6.469   6.162   0.424 -0.3837  0.0630 -0.0365
18297TIP3    H176306   6.414   6.084   0.433 -0.9135  0.4400  0.0744
18297TIP3    H276307   6.421   6.231   0.470  0.9267  0.0548  1.4317
18298TIP3   OH276308   4.063   2.213  16.012 -0.3675  0.4896 -0.1078
18298TIP3    H176309   3.987   2.269  16.025 -0.0655  1.1649 -1.1569
18298TIP3    H276310   4.123   2.238  16.083  0.8776  3.4719 -1.9827
18299TIP3   OH276311   5.556   1.749   0.672 -0.0022 -0.2026  0.2237
18299TIP3    H176312   5.617   1.801   0.621  0.9004 -1.5283 -0.1062
18299TIP3    H276313   5.510   1.812   0.727 -1.2776  1.3268 -2.4489
18300TIP3   OH276314   0.158   5.961   4.889  0.6932 -0.4514  0.2312
18300TIP3    H176315   0.248   5.992   4.892  0.3959  0.3917  0.9182
18300TIP3    H276316   0.160   5.886   4.830  1.3523  1.1497 -1.8809
18301TIP3   OH276317   2.174   1.452  13.858 -0.0795 -0.5094 -0.0968
18301TIP3    H176318   2.211   1.364  13.874 -1.8108 -1.2832 -0.1652
18301TIP3    H276319   2.097   1.456  13.914 -1.6405 -0.1282 -2.1796
18302TIP3   OH276320   3.813   2.785   0.572  0.2491 -0.4342  0.4021
18302TIP3    H176321   3.778   2.697   0.581  2.4675 -1.3366  0.6149
18302TIP3    H276322   3.893   2.786   0.624  0.1382  1.8091  0.6523
18303TIP3   OH276323   5.678   2.132  11.672 -0.2119  0.2678  0.5280
18303TIP3    H176324   5.711   2.121  11.761 -2.0244 -0.5071  1.1533
18303TIP3    H276325   5.711   2.055  11.625  0.7479  0.6781  0.5135
18304TIP3   OH276326   1.546   4.068  16.962  0.2263  0.3238  0.4454
18304TIP3    H176327   1.455   4.092  16.942 -0.1964 -0.6315  1.1532
18304TIP3    H276328   1.586   4.053  16.876 -0.9253 -1.4827  0.1676
18305TIP3   OH276329   1.811   3.659  16.645 -0.7575  0.3811  0.0851
18305TIP3    H176330   1.797   3.730  16.583 -0.3020 -0.7130 -1.3304
18305TIP3    H276331   1.816   3.580  16.591  0.9498 -0.4731  1.3843
18306TIP3   OH276332   3.962   0.069  16.545  0.3027 -0.1884 -0.4122
18306TIP3    H176333   3.886   0.060  16.488  0.7373  0.0428 -1.0459
18306TIP3    H276334   3.940   0.140  16.605 -0.4929 -0.9893  0.2699
18307TIP3   OH276335   0.762   4.487  13.117  0.2613 -0.0889 -0.3815
18307TIP3    H176336   0.759   4.582  13.132  0.9931 -0.0717 -0.3124
18307TIP3    H276337   0.745   4.477  13.024  0.3460  0.1239 -0.4200
18308TIP3   OH276338   1.254   4.759   0.102 -0.2306  0.0573 -0.0641
18308TIP3    H176339   1.333   4.787   0.057 -0.8975 -1.3193 -2.2174
18308TIP3    H276340   1.192   4.831   0.088 -0.3877 -0.3010 -1.2552
18309TIP3   OH276341   4.255   4.186  15.203  0.3241  0.2258 -0.5360
18309TIP3    H176342   4.285   4.103  15.241 -1.2953  0.2273  0.8921
18309TIP3    H276343   4.166   4.197  15.238  0.6196  2.7287 -0.3952
18310TIP3   OH276344   4.821   2.064   0.607  0.1837 -0.0973 -0.1087
18310TIP3    H176345   4.866   2.068   0.522  1.1385  1.2205  0.4252
18310TIP3    H276346   4.729   2.075   0.586  0.1350 -2.0123 -1.1557
18311TIP3   OH276347   5.028   2.510   2.424 -0.3462 -0.1196  0.4222
18311TIP3    H176348   5.109   2.555   2.448 -0.2371 -0.0306 -0.1014
18311TIP3    H276349   4.959   2.564   2.463 -0.2256  0.6021 -0.3206
18312TIP3   OH276350   1.677   1.913  17.089  0.1305  0.0819 -0.6150
18312TIP3    H176351   1.652   1.922  16.997 -0.5524 -1.7421 -0.6541
18312TIP3    H276352   1.634   1.832  17.118  0.9793  0.1866  1.0902
18313TIP3   OH276353   6.223   5.928   5.016 -1.1029  0.0418 -0.1655
18313TIP3    H176354   6.236   6.022   5.032  0.6463  0.1118 -1.6794
18313TIP3    H276355   6.311   5.892   5.009 -1.5798 -0.8152 -4.2630
18314TIP3   OH276356   6.320   4.045  11.866 -0.4353 -0.1877 -0.4705
18314TIP3    H176357   6.357   4.116  11.814 -2.3476  1.9641  0.9297
18314TIP3    H276358   6.270   3.993  11.803 -1.6756  1.6232 -1.0442
18315TIP3   OH276359   6.102   4.108   3.055  0.2600  0.4687  0.1577
18315TIP3    H176360   6.164   4.037   3.036 -1.1806  0.0265 -3.7885
18315TIP3    H276361   6.154   4.188   3.046  1.1938  0.0451  1.4884
18316TIP3   OH276362   3.915   4.459  14.612  0.4847  0.0457  1.1246
18316TIP3    H176363   3.989   4.516  14.592 -0.5261  0.5444 -1.5490
18316TIP3    H276364   3.849   4.518  14.649 -0.9203  1.0273 -2.5037
18317TIP3   OH276365   3.264   4.109  15.782 -0.3657 -0.8520 -0.1736
18317TIP3    H176366   3.238   4.061  15.860  2.8031 -1.0969  0.8476
18317TIP3    H276367   3.264   4.044  15.712 -2.3287 -0.8264 -0.2428
18318TIP3   OH276368   3.616   2.883  14.525 -0.4611 -0.0800  0.3310
18318TIP3    H176369   3.694   2.937  14.534 -2.1667  2.9894 -1.5596
18318TIP3    H276370   3.564   2.903  14.602 -1.5074  1.9517 -0.8008
18319TIP3   OH276371   1.743   1.799  16.028 -0.1069  0.4269 -0.1103
18319TIP3    H176372   1.827   1.756  16.045  1.2451  1.1913 -3.9562
18319TIP3    H276373   1.765   1.876  15.977 -3.1771  0.5153 -1.5368
18320TIP3   OH276374   6.778   0.758  12.810  0.0238  0.7777  0.2799
18320TIP3    H176375   6.811   0.845  12.835  0.9646  0.4811  0.1264
18320TIP3    H276376   6.739   0.723  12.890  0.3746  1.0220  0.5622
18321TIP3   OH276377   1.547   5.734   6.084 -0.2929  0.1037 -0.6043
18321TIP3    H176378   1.636   5.763   6.107 -0.1911  0.1100 -0.9913
18321TIP3    H276379   1.549   5.639   6.098  0.1659 -0.0840 -1.8087
18322TIP3   OH276380   0.757   4.184   0.415 -0.0694 -0.1736 -0.4040
18322TIP3    H176381   0.845   4.147   0.410  1.0169  2.2202 -0.4826
18322TIP3    H276382   0.747   4.208   0.507  0.0793  1.1150 -0.7052
18323TIP3   OH276383   6.011   0.709   0.251 -0.1862 -0.0655  0.2579
18323TIP3    H176384   6.010   0.792   0.298 -1.8940  0.5724 -0.8327
18323TIP3    H276385   6.100   0.704   0.214 -0.4220  1.9399 -0.7483
18324TIP3   OH276386   5.269   0.126  15.793 -0.2484  0.3850 -0.1285
18324TIP3    H176387   5.301   0.216  15.798 -1.9265  0.9865  0.3721
18324TIP3    H276388   5.180   0.134  15.759 -0.4580 -1.0893  0.0261
18325TIP3   OH276389   0.947   0.902   3.782  0.0796 -0.3059 -0.2798
18325TIP3    H176390   0.995   0.893   3.865 -0.8515  0.8168  0.4143
18325TIP3    H276391   0.908   0.816   3.768 -0.2253 -0.3501  0.7660
18326TIP3   OH276392   1.271   6.361  13.740 -0.6048 -0.2336  0.3693
18326TIP3    H176393   1.333   6.415  13.691  0.2232 -1.6605 -0.2521
18326TIP3    H276394   1.265   6.402  13.826 -0.8622  1.4331 -0.3963
18327TIP3   OH276395   6.328   4.542   6.373 -0.0975 -0.6400 -0.2961
18327TIP3    H176396   6.337   4.450   6.348 -0.3827 -0.6077 -0.5208
18327TIP3    H276397   6.329   4.589   6.290 -0.9062 -0.5185 -0.2457
18328TIP3   OH276398   3.111   0.511  12.545  0.1194  0.0881  0.5357
18328TIP3    H176399   3.123   0.442  12.611  1.3955  0.2901  0.5542
18328TIP3    H276400   3.110   0.464  12.461  0.4243 -0.0161  0.5871
18329TIP3   OH276401   6.663   3.145   0.908  0.2475  0.7042  0.3780
18329TIP3    H176402   6.707   3.062   0.926 -0.5039  0.1765 -0.1587
18329TIP3    H276403   6.703   3.207   0.969 -0.8364 -0.5686  2.5078
18330TIP3   OH276404   4.631   0.913  11.532 -0.2040 -0.0687  0.1700
18330TIP3    H176405   4.666   0.993  11.571  1.2638 -0.6536  0.1271
18330TIP3    H276406   4.699   0.847  11.548 -1.5936 -1.4505  0.6698
18331TIP3   OH276407   5.088   0.681   4.645 -0.2129  0.0460 -0.0840
18331TIP3    H176408   5.048   0.745   4.705 -1.2472 -0.6846  0.0319
18331TIP3    H276409   5.168   0.723   4.615 -1.3434  1.8154 -0.7712
18332TIP3   OH276410   1.206   6.000   0.534 -0.6541 -0.4952 -0.0608
18332TIP3    H176411   1.288   6.006   0.584 -0.5963 -1.1508 -0.0648
18332TIP3    H276412   1.137   6.012   0.600 -0.5569  1.8271 -0.3250
18333TIP3   OH276413   0.088   3.522   4.552 -0.1087  0.0512  0.3238
18333TIP3    H176414   0.103   3.615   4.535  0.0070  0.2041  1.2377
18333TIP3    H276415   0.154   3.498   4.617 -1.0335 -0.3124  1.1578
18334TIP3   OH276416   2.357   2.786   5.097  0.3185 -0.1156 -0.1181
18334TIP3    H176417   2.418   2.730   5.144 -0.5442 -0.1790  0.9674
18334TIP3    H276418   2.270   2.756   5.125 -0.1936  0.5708 -0.9151
18335TIP3   OH276419   6.163   2.313   6.365  0.2725  0.0668  0.3933
18335TIP3    H176420   6.188   2.339   6.276 -2.7968  0.6280 -0.4058
18335TIP3    H276421   6.188   2.221   6.371  0.3245 -0.0438 -1.1291
18336TIP3   OH276422   3.427   6.783   1.370 -0.1831 -0.2796  0.3160
18336TIP3    H176423   3.475   6.824   1.298  2.3181 -1.0412  1.4694
18336TIP3    H276424   3.365   6.724   1.326  0.4438  0.1740 -1.2341
18337TIP3   OH276425   1.815   2.060  10.597  0.1197 -0.3591  0.3400
18337TIP3    H176426   1.788   1.972  10.570 -0.0171 -0.0546 -0.5410
18337TIP3    H276427   1.815   2.111  10.516  0.5362  0.3687  0.7905
18338TIP3   OH276428   5.755   0.675  10.457  0.1494  0.7197  0.4397
18338TIP3    H176429   5.699   0.599  10.445 -0.6977  1.0519  2.0327
18338TIP3    H276430   5.714   0.724  10.528  0.2384  3.0624 -0.9996
18339TIP3   OH276431   0.295   2.756  11.701 -0.0363  0.5370 -0.5214
18339TIP3    H176432   0.249   2.687  11.751 -0.0857  1.0562  0.1614
18339TIP3    H276433   0.291   2.726  11.610  0.3887 -0.6186 -0.1738
18340TIP3   OH276434   1.636   5.412   3.883  0.2926  0.3670 -0.2668
18340TIP3    H176435   1.709   5.379   3.832  0.6965  0.1961  0.4162
18340TIP3    H276436   1.676   5.457   3.958 -0.2876  0.5649 -0.0622
18341TIP3   OH276437   2.838   6.303   2.314  0.1281  0.0239  0.1261
18341TIP3    H176438   2.878   6.335   2.234  1.6323 -0.0257  0.8224
18341TIP3    H276439   2.754   6.267   2.286  1.4755 -1.8628 -1.7579
18342TIP3   OH276440   1.311   2.737  13.465 -0.7040  0.0033  0.3226
18342TIP3    H176441   1.284   2.733  13.557  2.1630  1.0664  1.3252
18342TIP3    H276442   1.365   2.816  13.460 -0.9297  0.0681 -2.3650
18343TIP3   OH276443   6.777   5.595   0.621 -0.1284 -0.1560 -0.1051
18343TIP3    H176444   6.712   5.666   0.611 -0.3618 -0.5475 -1.5293
18343TIP3    H276445   6.862   5.639   0.613 -0.2729 -0.0196 -1.0610
18344TIP3   OH276446   5.574   6.487   0.552  0.0367 -0.0908  0.0991
18344TIP3    H176447   5.549   6.412   0.499  2.7614 -0.9923 -0.0485
18344TIP3    H276448   5.558   6.563   0.495  0.2947 -0.8203 -0.9729
18345TIP3   OH276449   4.779   1.424   3.308  0.3499 -0.5348 -0.0294
18345TIP3    H176450   4.833   1.375   3.370  1.2697 -0.0833 -0.4708
18345TIP3    H276451   4.809   1.514   3.315 -0.1570 -0.3215 -0.4905
18346TIP3   OH276452   0.328   2.787  15.177 -0.1416 -0.1522  0.1812
18346TIP3    H176453   0.381   2.855  15.135  1.0277 -0.1436  1.5990
18346TIP3    H276454   0.335   2.806  15.271  0.0850 -2.1049  0.6015
18347TIP3   OH276455   1.734   3.750  11.657 -0.4927 -0.6030 -0.3181
18347TIP3    H176456   1.785   3.831  11.652  0.4732 -1.1640  0.1040
18347TIP3    H276457   1.800   3.680  11.656 -1.2097 -1.3382  1.1087
18348TIP3   OH276458   3.477   0.855   2.730  0.5619  0.1384 -0.2298
18348TIP3    H176459   3.460   0.769   2.769 -1.6077  1.5295  2.1229
18348TIP3    H276460   3.445   0.847   2.640 -0.5865 -1.1944  0.2694
18349TIP3   OH276461   1.885   2.261   4.129 -0.1593  0.1010  0.1358
18349TIP3    H176462   1.907   2.299   4.214  1.4244  1.4185 -0.8097
18349TIP3    H276463   1.899   2.332   4.067 -0.7998 -0.9871 -1.2983
18350TIP3   OH276464   1.614   5.863   4.701  0.3129  0.3864  0.4704
18350TIP3    H176465   1.647   5.847   4.789  1.5481 -2.1110 -0.3416
18350TIP3    H276466   1.531   5.816   4.696  2.4296 -3.7543 -0.9382
18351TIP3   OH276467   2.539   5.197  14.985 -0.0545 -0.1984 -0.5135
18351TIP3    H176468   2.506   5.107  14.993 -1.0840  0.3277  2.1949
18351TIP3    H276469   2.531   5.217  14.892 -0.5764 -2.6079 -1.0644
18352TIP3   OH276470   3.153   0.364  17.057  0.1707  0.2532 -0.0801
18352TIP3    H176471   3.182   0.419  16.985  0.9345 -0.6954 -0.5226
18352TIP3    H276472   3.232   0.350  17.110 -0.3871  0.9615  0.9728
18353TIP3   OH276473   0.691   4.970   4.269 -0.2271 -0.0968 -0.1074
18353TIP3    H176474   0.671   5.061   4.293 -0.1028  0.2721 -1.3420
18353TIP3    H276475   0.757   4.943   4.333  0.7286  1.1397 -0.5193
18354TIP3   OH276476   5.381   3.350   5.540 -0.5042 -0.3145 -0.6443
18354TIP3    H176477   5.348   3.426   5.589  1.1754  0.5914 -0.8587
18354TIP3    H276478   5.396   3.283   5.607 -0.1538  0.2090 -0.1960
18355TIP3   OH276479   4.149   5.505   4.269 -0.4840  0.0680  0.1080
18355TIP3    H176480   4.204   5.546   4.335 -2.2360  0.0572  1.6718
18355TIP3    H276481   4.120   5.577   4.212  1.2116  0.0438 -0.8500
18356TIP3   OH276482   4.664   1.310   5.011 -0.2021 -0.3356 -0.5340
18356TIP3    H176483   4.589   1.307   4.953 -1.9467 -0.2297  1.5946
18356TIP3    H276484   4.636   1.365   5.084  1.3215 -1.6370  1.1316
18357TIP3   OH276485   2.152   1.653   2.347 -0.3677 -0.3809 -0.4897
18357TIP3    H176486   2.107   1.657   2.432  1.1576 -0.6496  0.3675
18357TIP3    H276487   2.212   1.727   2.349  1.8162 -2.0841 -0.0546
18358TIP3   OH276488   6.647   5.064  14.624 -0.8487 -0.4414 -0.0439
18358TIP3    H176489   6.739   5.072  14.648 -0.2005 -1.8275 -1.8339
18358TIP3    H276490   6.599   5.076  14.706  0.8161  1.6453  0.7162
18359TIP3   OH276491   3.773   4.203   2.683  0.3808  0.2202  0.2343
18359TIP3    H176492   3.847   4.153   2.651  0.0638  0.9727 -1.8608
18359TIP3    H276493   3.701   4.140   2.688  0.8826 -0.2811  1.2176
18360TIP3   OH276494   2.524   1.328   1.809 -0.3103 -0.3389  0.0305
18360TIP3    H176495   2.556   1.416   1.827 -1.3444 -0.0978  0.7218
18360TIP3    H276496   2.487   1.298   1.891 -0.1398 -1.3592 -0.2488
18361TIP3   OH276497   6.148   6.291   0.368  0.2223 -0.3021  0.5387
18361TIP3    H176498   6.229   6.321   0.410  0.1577 -0.4397  0.7579
18361TIP3    H276499   6.154   6.326   0.279 -0.2039  1.0242  0.9987
18362TIP3   OH276500   1.918   3.998   0.529  0.0690 -0.2872 -0.0503
18362TIP3    H176501   1.997   4.032   0.486 -0.1518 -0.2686 -0.4464
18362TIP3    H276502   1.902   3.914   0.485  0.5930 -0.9046  0.8985
18363TIP3   OH276503   1.469   0.856  11.780 -0.0181  0.1774  0.4536
18363TIP3    H176504   1.543   0.910  11.753  0.9593 -1.1187  0.4842
18363TIP3    H276505   1.394   0.916  11.779  1.0608  1.5695  0.6593
18364TIP3   OH276506   5.589   5.285   3.249  0.0361  0.1630 -0.5004
18364TIP3    H176507   5.538   5.328   3.180  0.1177  1.3185  0.1299
18364TIP3    H276508   5.558   5.325   3.330  1.4814  0.4243 -0.0504
18365TIP3   OH276509   3.536   3.811  16.750  0.3471  0.2930  0.0211
18365TIP3    H176510   3.469   3.825  16.683  0.9541  1.2490 -0.3957
18365TIP3    H276511   3.603   3.759  16.705  0.0277 -0.4459  0.3680
18366TIP3   OH276512   3.022   4.833  15.313  0.2463 -0.2166 -0.6253
18366TIP3    H176513   2.949   4.776  15.338 -0.3849  1.0629  0.5577
18366TIP3    H276514   2.985   4.921  15.312  2.0215  0.6469  1.3136
18367TIP3   OH276515   0.957   4.971   2.628  0.0061 -0.1814 -0.3664
18367TIP3    H176516   0.897   4.935   2.693  1.4037 -0.7105  0.6927
18367TIP3    H276517   1.043   4.940   2.655  0.8137  0.8234 -1.6402
18368TIP3   OH276518   4.340   0.783  12.941 -0.1604  0.2856 -0.1079
18368TIP3    H176519   4.378   0.846  12.880  2.2084 -0.5831  0.3654
18368TIP3    H276520   4.381   0.699  12.918 -1.6882 -0.6970  0.5917
18369TIP3   OH276521   6.614   4.418   4.118 -0.0878  0.6500  0.2940
18369TIP3    H176522   6.628   4.502   4.162  0.3371  0.4575  0.5298
18369TIP3    H276523   6.659   4.354   4.174 -0.5337  0.2447  0.1938
18370TIP3   OH276524   4.625   5.678  17.088  0.4202  0.1096 -0.3584
18370TIP3    H176525   4.577   5.621  17.148 -0.3208  2.8824  1.9026
18370TIP3    H276526   4.715   5.646  17.091  0.4151  0.1501  2.3238
18371TIP3   OH276527   4.234   4.285  14.934  0.0457  0.4012  0.0634
18371TIP3    H176528   4.191   4.226  14.995  0.8626 -0.2646  0.0151
18371TIP3    H276529   4.239   4.369  14.981 -0.8366  0.3636  0.2512
18372TIP3   OH276530   6.783   3.590   4.056 -0.4156  0.5026  0.2518
18372TIP3    H176531   6.804   3.568   4.146 -0.8859  1.1543  0.5281
18372TIP3    H276532   6.722   3.663   4.062 -0.4756  0.5403 -0.5928
18373TIP3   OH276533   3.341   0.252   2.892  0.4866 -0.2038 -0.1558
18373TIP3    H176534   3.272   0.202   2.937  0.5524 -0.5177 -0.3984
18373TIP3    H276535   3.320   0.243   2.799 -0.2924  1.3596 -0.1725
18374TIP3   OH276536   3.161   0.594   0.898 -0.1180  0.3244 -0.9558
18374TIP3    H176537   3.167   0.629   0.809 -0.2212 -0.3862 -1.2477
18374TIP3    H276538   3.137   0.502   0.886  0.5330  0.0459 -0.2172
18375TIP3   OH276539   0.695   6.768  12.923 -0.0601 -0.1246 -0.1522
18375TIP3    H176540   0.778   6.763  12.970  1.4012  1.3723 -2.3644
18375TIP3    H276541   0.667   6.859  12.935  0.3441  0.2866 -2.0545
18376TIP3   OH276542   6.762   2.992   3.883  0.5186 -0.1619 -0.3978
18376TIP3    H176543   6.841   2.940   3.869  1.4427  1.3056 -0.9011
18376TIP3    H276544   6.776   3.035   3.967 -0.4671 -1.0886  0.2630
18377TIP3   OH276545   2.058   0.666  16.967  0.0724 -0.3762  0.7441
18377TIP3    H176546   2.106   0.638  17.046 -0.2318 -2.4544  0.2509
18377TIP3    H276547   1.991   0.725  17.001  0.3138 -0.7634  1.9841
18378TIP3   OH276548   3.703   0.268  15.908  0.4167  0.5760 -0.0192
18378TIP3    H176549   3.703   0.176  15.882 -1.6204 -0.0697  1.9227
18378TIP3    H276550   3.764   0.310  15.848  2.2394 -2.2113 -0.2976
18379TIP3   OH276551   6.078   4.451  17.053  0.3277  0.3315  0.0198
18379TIP3    H176552   6.055   4.458  17.145 -1.1599 -2.6109  0.0067
18379TIP3    H276553   6.166   4.413  17.053 -0.1118 -0.7295  0.2929
18380TIP3   OH276554   4.636   2.015   1.545 -0.8822 -0.1277 -0.7028
18380TIP3    H176555   4.614   2.107   1.564  1.1537  0.1373  0.7044
18380TIP3    H276556   4.689   2.019   1.466  1.7268  0.3426  0.9570
18381TIP3   OH276557   2.196   1.646  16.932 -0.1456 -0.4094  0.7699
18381TIP3    H176558   2.276   1.606  16.966  1.5583  2.1380 -0.0180
18381TIP3    H276559   2.166   1.703  17.002 -0.5136 -0.3258  0.5446
18382TIP3   OH276560   0.679   0.416   0.171  0.2482 -0.1797  0.2115
18382TIP3    H176561   0.768   0.417   0.137  0.8347  1.2702  1.6489
18382TIP3    H276562   0.689   0.433   0.265 -1.4834 -1.0145  0.5894
18383TIP3   OH276563   2.973   2.410   4.722  0.6581  0.4393 -0.1572
18383TIP3    H176564   2.939   2.371   4.803 -2.0309  1.6596 -0.5888
18383TIP3    H276565   3.015   2.491   4.751 -1.6239  1.6434 -0.0438
18384TIP3   OH276566   4.852   0.684  11.648  0.1943  0.1397 -0.5402
18384TIP3    H176567   4.910   0.660  11.720  1.3859 -0.4740 -1.6656
18384TIP3    H276568   4.898   0.755  11.602  0.1149 -0.4192 -1.5072
18385TIP3   OH276569   3.969   4.235   1.303 -0.0347  0.5085 -0.7070
18385TIP3    H176570   4.054   4.232   1.348 -0.1739  1.0038 -0.4016
18385TIP3    H276571   3.981   4.179   1.226  0.8409  1.2477 -1.1252
18386TIP3   OH276572   4.420   0.254  16.254 -0.2999  0.1327 -0.2665
18386TIP3    H176573   4.376   0.327  16.299  0.2237  1.3236 -1.6122
18386TIP3    H276574   4.420   0.280  16.162  1.9368 -0.5171 -0.4853
18387TIP3   OH276575   0.553   3.824  16.725 -0.5167  0.0739  0.1563
18387TIP3    H176576   0.499   3.903  16.728 -0.9175 -0.1893 -0.0679
18387TIP3    H276577   0.528   3.781  16.643 -0.5172 -0.4443  0.4261
18388TIP3   OH276578   6.217   0.163   5.198 -0.4459 -0.0293 -0.4649
18388TIP3    H176579   6.123   0.142   5.206 -0.5758  0.7173  0.0448
18388TIP3    H276580   6.223   0.254   5.225  0.7715 -0.7292  1.8530
18389TIP3   OH276581   0.247   4.375  12.073 -0.0721  0.0035  0.7381
18389TIP3    H176582   0.223   4.414  11.989  0.4180  1.9233  1.4378
18389TIP3    H276583   0.225   4.442  12.138  2.1591 -0.2741  1.8887
18390TIP3   OH276584   1.924   5.118  14.965 -0.9096  0.1617  0.6545
18390TIP3    H176585   1.832   5.142  14.972 -1.2087  0.0007 -2.0479
18390TIP3    H276586   1.955   5.160  14.885  0.3137 -2.8298 -0.6083
18391TIP3   OH276587   3.552   6.316   0.627  0.2397  0.0093  0.2513
18391TIP3    H176588   3.508   6.385   0.677  2.4628  0.4394  1.7350
18391TIP3    H276589   3.565   6.245   0.690  1.6532 -0.0893 -0.1145
18392TIP3   OH276590   1.082   0.953   4.056 -0.5368  1.0413  0.4321
18392TIP3    H176591   1.137   0.889   4.100 -0.0947  2.1402  1.5290
18392TIP3    H276592   1.138   0.991   3.989 -1.5558 -1.4890 -2.0882
18393TIP3   OH276593   6.703   4.226  12.875  0.0531 -0.3424 -0.1499
18393TIP3    H176594   6.610   4.243  12.858  0.1763  0.5768  0.0687
18393TIP3    H276595   6.741   4.212  12.788 -0.5079 -1.9311 -0.1601
18394TIP3   OH276596   0.227   5.622  11.590  0.4193 -0.6821  0.2748
18394TIP3    H176597   0.157   5.665  11.638  0.0512 -2.5669  1.5147
18394TIP3    H276598   0.220   5.657  11.501 -1.5202 -0.1763  0.5907
18395TIP3   OH276599   1.019   1.355  15.505 -0.3617  0.2621  0.5434
18395TIP3    H176600   0.993   1.382  15.593  1.0362 -1.7735  1.6760
18395TIP3    H276601   1.111   1.332  15.513 -0.5383 -1.2501 -1.1079
18396TIP3   OH276602   2.504   5.164   2.364 -0.1653 -0.2712  0.3254
18396TIP3    H176603   2.454   5.083   2.354 -0.8906  0.2032  0.0645
18396TIP3    H276604   2.445   5.233   2.336  0.2617  0.4099  1.0419
18397TIP3   OH276605   3.173   0.143  15.326 -0.5682  0.5251  0.1267
18397TIP3    H176606   3.232   0.219  15.326 -0.3989  0.5006 -2.7610
18397TIP3    H276607   3.148   0.132  15.235 -1.7267 -2.0623  0.6646
18398TIP3   OH276608   2.237   4.128  11.781 -0.1522 -0.0813  0.5780
18398TIP3    H176609   2.164   4.105  11.838 -1.4411 -1.1960 -1.3776
18398TIP3    H276610   2.260   4.046  11.738  1.0916  0.6175 -0.1536
18399TIP3   OH276611   1.290   1.001   2.737  0.3995  0.5594 -0.2736
18399TIP3    H176612   1.344   1.071   2.701 -0.1100  0.2717 -1.6791
18399TIP3    H276613   1.201   1.022   2.707  0.3880 -1.2412 -1.6921
18400TIP3   OH276614   3.371   4.042  15.214 -0.1486 -0.1845 -0.1902
18400TIP3    H176615   3.377   3.950  15.241 -1.4479 -0.1690  0.2153
18400TIP3    H276616   3.340   4.038  15.124  1.4487 -0.1590 -0.7798
18401TIP3   OH276617   0.511   1.455  11.141 -0.0527  0.3095  0.5153
18401TIP3    H176618   0.599   1.451  11.102  0.6533  1.4511  1.9149
18401TIP3    H276619   0.520   1.413  11.227 -1.1184 -0.3820  0.3166
18402TIP3   OH276620   4.845   6.560   5.475  0.6431 -0.4200  0.0462
18402TIP3    H176621   4.820   6.609   5.396  1.1782  0.4284  0.3858
18402TIP3    H276622   4.831   6.621   5.547 -0.3204 -1.3567  0.6892
18403TIP3   OH276623   5.402   0.554  11.332 -0.1510 -0.0104  0.1785
18403TIP3    H176624   5.418   0.620  11.399  1.0963  1.4987 -1.5212
18403TIP3    H276625   5.488   0.534  11.295 -0.7706 -0.8987 -0.8712
18404TIP3   OH276626   1.556   3.330  17.201 -0.4867 -0.1473  0.4998
18404TIP3    H176627   1.528   3.421  17.212 -1.8034 -0.3724 -0.5720
18404TIP3    H276628   1.613   3.332  17.124  0.2593 -0.1038  1.0420
18405TIP3   OH276629   1.774   2.784   1.768 -0.6276 -0.5231  0.0049
18405TIP3    H176630   1.776   2.800   1.862  1.0052  0.4241 -0.1656
18405TIP3    H276631   1.797   2.691   1.759  0.8044 -0.2290  0.4748
18406TIP3   OH276632   1.004   1.300  14.650  0.2304 -0.0777  0.0661
18406TIP3    H176633   1.075   1.349  14.692  0.3155  0.1765 -0.3703
18406TIP3    H276634   0.964   1.363  14.590 -1.0828  0.1241  1.1067
18407TIP3   OH276635   3.183   1.762  16.056  0.2151  0.5064 -0.0822
18407TIP3    H176636   3.168   1.671  16.033  2.0802  0.3581 -0.8950
18407TIP3    H276637   3.279   1.770  16.062  0.0713  1.5638  3.4704
18408TIP3   OH276638   1.474   1.627   0.523 -0.5244 -0.4877 -0.4691
18408TIP3    H176639   1.419   1.695   0.562 -0.0798 -0.9948  1.1201
18408TIP3    H276640   1.413   1.559   0.495 -1.0219  0.7593 -2.5814
18409TIP3   OH276641   3.249   3.923   3.991 -0.0793  0.4755 -0.1722
18409TIP3    H176642   3.325   3.947   3.938 -0.6150  0.7616 -0.8297
18409TIP3    H276643   3.202   4.005   4.003  0.4718  0.5739  1.4851
18410TIP3   OH276644   3.903   5.997   1.309 -0.4019 -0.0264  0.5750
18410TIP3    H176645   3.899   5.979   1.215 -0.0715  0.0405  0.5480
18410TIP3    H276646   3.818   5.969   1.342  0.9235 -4.2700  0.9922
18411TIP3   OH276647   1.474   6.102   2.984  0.0716 -0.3418  0.0548
18411TIP3    H176648   1.398   6.124   3.038 -0.1003 -0.2505 -0.2208
18411TIP3    H276649   1.549   6.130   3.036  0.0403 -2.1792  1.1979
18412TIP3   OH276650   4.763   2.814  16.155 -0.4727 -0.3495  0.1285
18412TIP3    H176651   4.831   2.796  16.219  0.4391  1.1440 -0.3925
18412TIP3    H276652   4.689   2.847  16.207  0.0172  0.1992  0.4860
18413TIP3   OH276653   5.605   0.886  12.366 -0.7397  0.3729  0.3778
18413TIP3    H176654   5.524   0.838  12.386  0.9573 -2.1284  1.6864
18413TIP3    H276655   5.620   0.940  12.443 -0.1180 -0.7358  1.0545
18414TIP3   OH276656   3.288   4.645   3.048 -0.0814  0.8318  0.4436
18414TIP3    H176657   3.240   4.646   2.965 -0.6539  0.6202  0.7593
18414TIP3    H276658   3.329   4.558   3.051  2.7680  1.9985 -1.1502
18415TIP3   OH276659   0.174   1.962   1.773 -0.4407  0.0764  0.4946
18415TIP3    H176660   0.131   1.886   1.813  1.4043 -0.5456  1.4439
18415TIP3    H276661   0.150   2.036   1.828 -1.4109  0.0024  0.1790
18416TIP3   OH276662   6.131   5.834   1.369  0.0566 -0.0990 -0.2009
18416TIP3    H176663   6.128   5.928   1.356  0.0777 -0.2551 -1.4723
18416TIP3    H276664   6.052   5.801   1.328  1.6133 -0.9148 -2.7670
18417TIP3   OH276665   3.916   0.308   5.193 -0.1025  0.3215 -0.2003
18417TIP3    H176666   3.870   0.352   5.264  0.2016 -0.2486  0.3561
18417TIP3    H276667   3.851   0.299   5.124 -0.3672  0.9858 -0.0503
18418TIP3   OH276668   0.512   1.683   1.103 -0.5544 -0.0012 -0.2020
18418TIP3    H176669   0.534   1.655   1.014 -1.7795  0.0797 -0.5477
18418TIP3    H276670   0.555   1.768   1.113 -2.1458  0.9945 -1.5060
18419TIP3   OH276671   5.293   4.763  12.777 -0.2758  0.0979  0.2254
18419TIP3    H176672   5.222   4.757  12.842 -1.4762 -0.8764 -1.1128
18419TIP3    H276673   5.313   4.856  12.772 -0.5497  0.2536  1.5710
18420TIP3   OH276674   3.855   6.361   4.592 -0.1970 -0.3366  0.0111
18420TIP3    H176675   3.906   6.429   4.637  0.2741  0.0330 -1.0402
18420TIP3    H276676   3.875   6.280   4.639  1.5195 -0.2288 -0.4763
18421TIP3   OH276677   1.121   1.064  12.830  0.5076  0.2857 -0.3114
18421TIP3    H176678   1.175   1.027  12.900  0.7015 -1.2074 -1.2173
18421TIP3    H276679   1.172   1.137  12.796  1.0685  0.1093  0.1347
18422TIP3   OH276680   4.261   1.813  13.962 -0.3690  0.1859 -0.2314
18422TIP3    H176681   4.203   1.794  14.035 -2.0026 -0.1852 -1.5446
18422TIP3    H276682   4.210   1.871  13.906  0.3972 -0.3956 -1.5891
18423TIP3   OH276683   1.788   6.414  14.788 -0.2912 -0.4098  0.6685
18423TIP3    H176684   1.871   6.373  14.764 -0.6204 -0.4510 -0.4686
18423TIP3    H276685   1.812   6.480  14.853  0.5546 -0.7998  0.7660
18424TIP3   OH276686   0.958   2.957  13.052  0.7398  0.1099  0.1683
18424TIP3    H176687   0.931   2.884  13.108 -1.6632  2.2900  2.1522
18424TIP3    H276688   0.922   2.937  12.966 -0.7952 -0.5961  0.9335
18425TIP3   OH276689   1.904   5.658   2.723  0.1254  0.3292  0.2060
18425TIP3    H176690   1.986   5.707   2.717  0.9947 -1.2674 -3.5488
18425TIP3    H276691   1.844   5.703   2.665 -0.8906  0.0389  0.9949
18426TIP3   OH276692   1.964   3.497   3.490 -0.5141  0.3170 -0.0485
18426TIP3    H176693   1.918   3.421   3.526  0.7411  0.1038  1.1752
18426TIP3    H276694   2.051   3.463   3.465 -0.7783  0.8238 -1.8126
18427TIP3   OH276695   1.590   1.325  14.490  0.3346  0.4972  0.2559
18427TIP3    H176696   1.605   1.375  14.410  0.7867 -1.5726 -1.0333
18427TIP3    H276697   1.517   1.370  14.534  1.7495  3.1852  0.0462
18428TIP3   OH276698   1.926   2.502   2.061 -0.2373  0.1595  0.0706
18428TIP3    H176699   1.883   2.436   2.008  1.1223  0.7078 -1.8419
18428TIP3    H276700   2.010   2.517   2.017  0.0591  2.1804  1.1855
18429TIP3   OH276701   2.308   2.042   4.307 -0.3277  0.0020  0.4035
18429TIP3    H176702   2.375   1.976   4.286 -1.4672 -0.8318 -0.7568
18429TIP3    H276703   2.298   2.035   4.402  1.2451  0.1711  0.6045
18430TIP3   OH276704   2.389   3.607   3.017 -0.1212  0.0243  0.0289
18430TIP3    H176705   2.460   3.551   3.048  3.0770  3.0842 -1.0799
18430TIP3    H276706   2.326   3.547   2.978  2.5654 -2.8373 -0.2814
18431TIP3   OH276707   6.101   1.837   3.096  0.0792 -0.2037 -0.2747
18431TIP3    H176708   6.098   1.749   3.058  1.7037 -1.0697  1.4614
18431TIP3    H276709   6.045   1.833   3.173  0.7612  0.0374  0.2498
18432TIP3   OH276710   3.889   3.716  14.629  0.2221  0.5744 -0.2555
18432TIP3    H176711   3.859   3.712  14.720  0.6420  2.3809  0.0176
18432TIP3    H276712   3.902   3.810  14.613 -1.4423  0.4783 -2.7228
18433TIP3   OH276713   4.416   0.038   5.626  0.3919 -0.4675  0.5861
18433TIP3    H176714   4.413   0.033   5.721  0.8535  1.6321  0.7775
18433TIP3    H276715   4.354   0.107   5.604  0.5481 -0.6802 -0.6061
18434TIP3   OH276716   0.357   0.357  16.568 -0.0029 -0.4517  0.2553
18434TIP3    H176717   0.336   0.284  16.509  0.4486 -1.9139  1.8090
18434TIP3    H276718   0.429   0.402  16.525  0.2442 -1.4241 -0.3921
18435TIP3   OH276719   4.222   5.121  14.770 -0.0866 -1.0486  0.3496
18435TIP3    H176720   4.200   5.086  14.683  1.9100 -0.2508 -0.5257
18435TIP3    H276721   4.254   5.045  14.819  1.2725 -1.0481 -0.5029
18436TIP3   OH276722   2.057   4.486  14.289  0.4207  0.0575 -0.2058
18436TIP3    H176723   2.082   4.473  14.198 -0.4172 -0.4501 -0.3675
18436TIP3    H276724   2.081   4.404  14.332 -0.5732 -0.2767 -0.2803
18437TIP3   OH276725   5.440   3.972   5.094  0.6611  0.3205 -0.4611
18437TIP3    H176726   5.436   4.027   5.172  1.3171 -1.6268  1.0052
18437TIP3    H276727   5.518   4.002   5.047  0.6815  1.0076 -0.0041
18438TIP3   OH276728   3.067   6.217  13.899  0.0940  0.2459  0.1171
18438TIP3    H176729   3.118   6.298  13.903  1.5841 -0.5679 -1.0668
18438TIP3    H276730   3.017   6.224  13.818  0.5658 -0.1862 -0.2183
18439TIP3   OH276731   0.540   6.012  16.873  0.5751 -0.1850  0.4119
18439TIP3    H176732   0.554   5.917  16.870 -1.2104 -0.4913  0.3654
18439TIP3    H276733   0.468   6.023  16.935  0.9105  1.1641  0.5713
18440TIP3   OH276734   5.334   2.810  12.079  0.1329  0.3552 -0.1260
18440TIP3    H176735   5.353   2.729  12.031  1.3167  0.2859  0.4222
18440TIP3    H276736   5.269   2.784  12.145  0.9758 -0.3201  0.4651
18441TIP3   OH276737   4.339   3.027   2.302 -0.0765 -0.1998  0.2271
18441TIP3    H176738   4.262   3.080   2.323  1.0337  2.1264 -1.1234
18441TIP3    H276739   4.310   2.966   2.235 -0.3338  2.2007 -1.9939
18442TIP3   OH276740   2.666   0.227   3.034  0.5143  0.2110 -0.0848
18442TIP3    H176741   2.714   0.235   3.117 -0.7610 -1.5444  0.8791
18442TIP3    H276742   2.575   0.213   3.060  0.1919 -1.1080 -1.7621
18443TIP3   OH276743   6.442   4.929   1.746 -0.0175 -0.2650 -0.3793
18443TIP3    H176744   6.434   5.023   1.757  1.4909 -0.1827  0.2132
18443TIP3    H276745   6.381   4.892   1.810 -0.9309  0.2857 -0.9038
18444TIP3   OH276746   1.601   4.092   0.049 -0.5981 -0.0386 -0.3341
18444TIP3    H176747   1.643   4.044   0.120 -1.0720  0.9481  0.6419
18444TIP3    H276748   1.531   4.034   0.019 -1.1538  0.0088  0.8197
18445TIP3   OH276749   5.780   6.645  16.302 -0.4418 -0.1449  0.2855
18445TIP3    H176750   5.811   6.707  16.235 -0.8564  0.6678  0.8287
18445TIP3    H276751   5.699   6.610  16.266 -1.6887  1.6997  1.1240
18446TIP3   OH276752   2.871   3.681   3.034  0.1652 -0.0006 -0.5407
18446TIP3    H176753   2.955   3.654   2.995  0.6710  1.3500 -0.4286
18446TIP3    H276754   2.856   3.769   2.999 -1.3792 -0.3426 -0.8046
18447TIP3   OH276755   3.949   5.139   1.005  0.0178 -0.1921  0.1427
18447TIP3    H176756   3.914   5.090   0.931  1.4915 -1.1933  0.0607
18447TIP3    H276757   3.910   5.226   0.997 -2.1192 -1.1047 -0.1082
18448TIP3   OH276758   2.811   1.331  16.672 -0.0445 -0.6120 -0.3254
18448TIP3    H176759   2.852   1.245  16.663 -1.3825 -1.1268 -1.9235
18448TIP3    H276760   2.783   1.354  16.584  0.4642  1.5994  0.0229
18449TIP3   OH276761   6.200   5.033   2.702 -0.3608 -0.1629  0.3205
18449TIP3    H176762   6.281   4.982   2.708 -0.5521 -0.6526 -0.9105
18449TIP3    H276763   6.201   5.088   2.780  1.5851  0.4558 -0.0632
18450TIP3   OH276764   5.667   6.567  12.521  0.2392 -0.5917 -0.0377
18450TIP3    H176765   5.687   6.597  12.433  3.0787 -2.5140 -0.2022
18450TIP3    H276766   5.581   6.527  12.514 -1.8700  3.5494 -0.6672
18451TIP3   OH276767   5.460   4.178  10.622  0.3869 -0.6532  0.6101
18451TIP3    H176768   5.487   4.228  10.545 -1.2020 -2.3864 -1.1841
18451TIP3    H276769   5.464   4.241  10.694  0.3096  1.5160 -1.1763
18452TIP3   OH276770   1.332   4.334  13.442 -0.1276  0.2189 -0.2016
18452TIP3    H176771   1.330   4.297  13.354 -0.9676 -0.6950  0.1928
18452TIP3    H276772   1.305   4.425  13.431  0.6998  0.3865 -1.0016
18453TIP3   OH276773   4.815   3.679   5.440 -0.0676 -0.0751 -0.2382
18453TIP3    H176774   4.826   3.643   5.353 -2.8801 -1.5827 -0.0576
18453TIP3    H276775   4.848   3.769   5.433  1.4513 -0.7205 -2.3170
18454TIP3   OH276776   2.582   1.569   5.508 -0.0502  0.2907 -0.1614
18454TIP3    H176777   2.666   1.552   5.551 -0.1553 -2.2992 -0.8584
18454TIP3    H276778   2.589   1.660   5.478  0.7125  1.6756  3.6240
18455TIP3   OH276779   5.583   6.383   3.452 -0.0628  0.8431  0.0649
18455TIP3    H176780   5.518   6.346   3.512  1.1191 -0.3961  0.6089
18455TIP3    H276781   5.620   6.457   3.500  0.6579  0.0447  0.7603
18456TIP3   OH276782   3.175   4.976  16.906  0.0814 -0.0727 -0.3380
18456TIP3    H176783   3.258   4.995  16.861 -0.2096 -0.7564 -1.1704
18456TIP3    H276784   3.183   4.885  16.934  0.5256  0.5069  1.6129
18457TIP3   OH276785   4.168   1.994   6.397 -0.2284 -0.3704  0.2021
18457TIP3    H176786   4.169   2.041   6.313  0.0281  1.6379  1.2508
18457TIP3    H276787   4.086   2.020   6.438  0.8715  0.9288  1.7071
18458TIP3   OH276788   2.053   1.948   0.578  0.1036  0.8558 -0.1997
18458TIP3    H176789   2.030   1.888   0.649 -0.5356 -1.3781 -2.1565
18458TIP3    H276790   2.138   1.917   0.548 -0.4747  0.5438 -1.5890
18459TIP3   OH276791   0.513   2.011   6.401  0.4286  0.3065 -0.3568
18459TIP3    H176792   0.458   2.071   6.351 -0.0807  0.7430  0.6786
18459TIP3    H276793   0.501   2.039   6.492  0.5199 -1.0940  0.1059
18460TIP3   OH276794   0.335   6.321  14.283 -0.2022 -0.0040 -0.2539
18460TIP3    H176795   0.369   6.298  14.370  0.7819 -0.0035 -0.6235
18460TIP3    H276796   0.244   6.292  14.285  0.0311 -0.7426  0.5061
18461TIP3   OH276797   1.164   0.439  12.962 -0.1879  0.1298 -0.0740
18461TIP3    H176798   1.071   0.450  12.982 -0.1074 -0.1676  0.4884
18461TIP3    H276799   1.168   0.367  12.900 -0.3417  0.2018 -0.1662
18462TIP3   OH276800   3.814   2.611   4.966  0.0417 -0.5346  0.5702
18462TIP3    H176801   3.814   2.572   4.879  3.2478  0.5918 -0.0719
18462TIP3    H276802   3.864   2.548   5.020 -1.1287 -0.7854  1.4040
18463TIP3   OH276803   0.466   1.991  12.339  0.9302 -0.3204  0.6580
18463TIP3    H176804   0.453   1.939  12.260 -0.4039 -0.5496  1.0132
18463TIP3    H276805   0.413   2.069  12.326  0.5641 -0.4369  1.3917
18464TIP3   OH276806   2.441   3.390   2.671  0.6893  0.5414  0.2833
18464TIP3    H176807   2.447   3.338   2.751 -0.2803  1.4002  0.9493
18464TIP3    H276808   2.512   3.358   2.615  0.1714 -1.4018  0.6936
18465TIP3   OH276809   5.624   0.590  14.195 -0.5952  0.0437  0.6486
18465TIP3    H176810   5.608   0.673  14.150 -1.0536  0.3016  1.2618
18465TIP3    H276811   5.700   0.553  14.151 -1.2095  0.1273 -0.5414
18466TIP3   OH276812   4.841   2.454   2.677 -0.0008 -0.5041 -0.7950
18466TIP3    H176813   4.929   2.416   2.673 -0.3485 -1.2386 -2.2740
18466TIP3    H276814   4.851   2.533   2.730  1.6762 -0.2660 -1.4028
18467TIP3   OH276815   3.554   5.049  13.149  1.0180 -0.2135 -0.3476
18467TIP3    H176816   3.483   5.074  13.090  1.3472 -1.2821 -1.2338
18467TIP3    H276817   3.629   5.100  13.119  0.6323  0.9992  0.6587
18468TIP3   OH276818   2.768   0.691   1.458 -0.7224 -0.6318 -0.1291
18468TIP3    H176819   2.838   0.643   1.413  0.0402  0.1478  0.1911
18468TIP3    H276820   2.720   0.735   1.388 -0.5122 -0.6850 -0.3090
18469TIP3   OH276821   3.584   1.591   2.095  0.3845 -0.4588  0.0749
18469TIP3    H176822   3.489   1.595   2.109  0.3112 -1.0176 -0.2361
18469TIP3    H276823   3.622   1.603   2.182  0.0510  0.6112  0.0852
18470TIP3   OH276824   0.069   6.144  17.057  0.1122 -0.1314 -0.0565
18470TIP3    H176825   0.070   6.214  17.122  2.1950  1.1801 -1.3943
18470TIP3    H276826   0.012   6.176  16.987  2.1716  0.9796 -1.3280
18471TIP3   OH276827   3.165   2.340  15.815  0.0610 -0.0096 -0.2866
18471TIP3    H176828   3.237   2.294  15.859 -0.2110  0.6510  0.8797
18471TIP3    H276829   3.129   2.275  15.755 -0.0105 -1.1801  0.9612
18472TIP3   OH276830   0.111   2.196  16.428  0.5617  0.3538 -0.1500
18472TIP3    H176831   0.101   2.149  16.510  1.0953  0.5239  0.0141
18472TIP3    H276832   0.074   2.283  16.445 -0.3192  0.0459 -0.4188
18473TIP3   OH276833   1.638   6.514  12.594  0.1806 -0.0252  0.1299
18473TIP3    H176834   1.601   6.433  12.559  0.8536 -1.2049  1.9917
18473TIP3    H276835   1.731   6.510  12.571  0.3529 -0.1335  0.8364
18474TIP3   OH276836   3.488   2.750  12.605  0.0093  1.0142  0.0272
18474TIP3    H176837   3.533   2.826  12.567 -1.6428  1.5667 -0.9247
18474TIP3    H276838   3.395   2.768  12.591 -0.4821 -0.5332  1.0767
18475TIP3   OH276839   1.573   6.247  16.605  1.0543 -0.0416  0.3277
18475TIP3    H176840   1.647   6.224  16.661  0.9346  0.0601  0.5308
18475TIP3    H276841   1.496   6.215  16.653  0.5753  3.2715  2.0851
18476TIP3   OH276842   1.010   4.977   2.363 -0.0204  0.3972 -0.2811
18476TIP3    H176843   0.960   4.993   2.443  0.0503 -1.9517  0.2952
18476TIP3    H276844   1.080   5.042   2.365  0.0859  0.2741  1.6613
18477TIP3   OH276845   6.039   3.521  11.020  0.2639 -0.7122 -0.1613
18477TIP3    H176846   6.068   3.429  11.018 -1.3151 -1.2377 -1.6778
18477TIP3    H276847   5.978   3.525  11.094  0.6089 -0.7929  0.1296
18478TIP3   OH276848   6.216   1.188  10.872  0.3342  0.1333 -0.1935
18478TIP3    H176849   6.210   1.108  10.924  0.0260 -0.4336 -1.0703
18478TIP3    H276850   6.183   1.163  10.785  1.8464  0.7422 -0.9933
18479TIP3   OH276851   6.088   0.156  15.665  0.2882 -0.4212 -0.1910
18479TIP3    H176852   6.000   0.190  15.648  0.1892 -0.2499  0.5925
18479TIP3    H276853   6.073   0.075  15.714  0.5476 -1.0745 -1.1642
18480TIP3   OH276854   2.387   6.087  15.045  0.4165 -0.2732  0.5799
18480TIP3    H176855   2.342   6.010  15.011  0.9382 -0.1489 -0.4218
18480TIP3    H276856   2.329   6.121  15.113 -1.9698  0.9781 -1.9123
18481TIP3   OH276857   6.536   4.671   0.915 -0.5140 -0.3109  0.3556
18481TIP3    H176858   6.519   4.720   0.834  1.1281  2.1607  1.3993
18481TIP3    H276859   6.567   4.586   0.885 -0.3495  0.3886 -1.6090
18482TIP3   OH276860   4.095   2.503   3.007 -0.1341  0.4353  0.2002
18482TIP3    H176861   4.027   2.570   3.009  2.0700  2.8245  0.6738
18482TIP3    H276862   4.119   2.495   2.915 -0.8403 -0.2046  0.0666
18483TIP3   OH276863   4.325   4.289  14.117 -0.2756 -0.4442 -0.5356
18483TIP3    H176864   4.355   4.251  14.034 -0.1345  1.2232 -1.2911
18483TIP3    H276865   4.405   4.313  14.163 -0.3578  1.2405 -1.2116
18484TIP3   OH276866   0.600   4.088   2.943  0.2613  0.8445  0.1575
18484TIP3    H176867   0.513   4.073   2.979 -0.4687  0.2464 -1.7494
18484TIP3    H276868   0.637   4.158   2.998 -2.3526  2.8184 -0.4086
18485TIP3   OH276869   4.787   5.915  12.665  0.0902  0.3877  0.2382
18485TIP3    H176870   4.781   5.841  12.605  0.6498  1.3247 -0.9960
18485TIP3    H276871   4.877   5.946  12.658 -0.6098  2.3783 -0.7465
18486TIP3   OH276872   1.169   3.552  16.706  0.0994 -0.1340  0.0111
18486TIP3    H176873   1.113   3.537  16.782 -0.9908  0.3174 -0.6849
18486TIP3    H276874   1.182   3.647  16.704  1.6659 -0.3036  0.6888
18487TIP3   OH276875   6.357   6.108   2.606  0.8803  0.2234 -0.0554
18487TIP3    H176876   6.442   6.078   2.638  0.5275  1.3930  2.1388
18487TIP3    H276877   6.369   6.202   2.592  0.2340  0.2034 -0.7809
18488TIP3   OH276878   1.860   3.561   4.050 -0.1359 -0.4502 -0.0713
18488TIP3    H176879   1.885   3.644   4.091  0.1194  0.2740 -1.6014
18488TIP3    H276880   1.769   3.549   4.073  0.0486 -0.1520  0.8354
18489TIP3   OH276881   4.662   0.394  12.282 -0.1134 -0.1238  0.4116
18489TIP3    H176882   4.578   0.412  12.323  0.0323 -0.1459  0.7197
18489TIP3    H276883   4.717   0.358  12.352 -0.1920 -1.1544 -0.0413
18490TIP3   OH276884   1.403   1.096  13.535  0.6837 -0.0928  0.3243
18490TIP3    H176885   1.496   1.087  13.557  0.6527 -0.4035  0.3311
18490TIP3    H276886   1.368   1.156  13.600  0.6119 -0.9237  1.0680
18491TIP3   OH276887   1.490   6.407  16.955  0.3159  0.1419  0.2548
18491TIP3    H176888   1.494   6.342  16.886 -0.6057 -0.6792  0.9462
18491TIP3    H276889   1.407   6.452  16.941 -0.0471 -0.2703  1.0183
18492TIP3   OH276890   0.627   4.058   4.800  0.2092  0.0236  0.3172
18492TIP3    H176891   0.670   4.142   4.818  0.0335  0.2228 -0.1826
18492TIP3    H276892   0.535   4.073   4.821  0.6972 -1.1387  3.9121
18493TIP3   OH276893   5.513   3.399   2.884 -0.5251 -0.5656 -0.1531
18493TIP3    H176894   5.431   3.423   2.841 -1.1917 -1.5388  0.5439
18493TIP3    H276895   5.545   3.481   2.922 -2.0634 -0.4637  1.0242
18494TIP3   OH276896   2.827   0.277  15.176 -0.3357  0.3334  0.2198
18494TIP3    H176897   2.812   0.187  15.206  3.5099 -0.3135  0.7773
18494TIP3    H276898   2.848   0.326  15.256  0.2919  1.0420 -0.3554
18495TIP3   OH276899   1.533   3.983  11.370 -0.3058 -0.4580  0.0737
18495TIP3    H176900   1.499   4.072  11.360  0.7743 -0.2215 -1.7532
18495TIP3    H276901   1.628   3.993  11.369 -0.1698 -1.6353 -0.0304
18496TIP3   OH276902   6.658   4.128   2.772  0.3031  0.2086 -0.2714
18496TIP3    H176903   6.730   4.133   2.834  0.1355  1.2409 -0.1382
18496TIP3    H276904   6.650   4.035   2.751 -0.3105 -0.3227  2.0447
18497TIP3   OH276905   3.187   4.601  15.553  0.4644 -0.1680 -0.0493
18497TIP3    H176906   3.198   4.575  15.461 -0.6661 -0.8304 -0.0190
18497TIP3    H276907   3.261   4.562  15.598  2.0321  1.6266 -0.9227
18498TIP3   OH276908   6.622   1.233   4.962 -0.5861 -0.3294 -0.1452
18498TIP3    H176909   6.655   1.322   4.958 -2.0538  0.2615  0.1685
18498TIP3    H276910   6.696   1.178   4.935  0.3232  0.9725 -0.3732
18499TIP3   OH276911   6.491   5.405   3.302  0.4250  0.3630 -0.1314
18499TIP3    H176912   6.442   5.422   3.382  1.1436  0.1965  0.3539
18499TIP3    H276913   6.460   5.472   3.240 -0.6927  0.0085  0.0318
18500TIP3   OH276914   1.645   5.226   5.914 -0.0968  0.0670 -0.6849
18500TIP3    H176915   1.714   5.286   5.941 -1.7322  1.4001  0.8376
18500TIP3    H276916   1.689   5.161   5.860  2.7747 -0.5024  2.0389
18501TIP3   OH276917   4.995   1.914  14.088  0.1824  0.0189  0.3698
18501TIP3    H176918   4.929   1.944  14.026  0.9960 -0.2752 -0.6578
18501TIP3    H276919   4.962   1.943  14.173 -0.6132  1.0199 -0.2546
18502TIP3   OH276920   3.513   2.504  14.536 -0.0546  0.3656 -0.5065
18502TIP3    H176921   3.544   2.421  14.499 -0.3527  0.6975 -1.5408
18502TIP3    H276922   3.533   2.498  14.629  1.8006 -0.0259 -0.8909
18503TIP3   OH276923   5.999   0.534   2.059 -0.0342 -0.1644 -0.2438
18503TIP3    H176924   5.986   0.460   2.117  0.3007  0.0476  0.1022
18503TIP3    H276925   5.936   0.520   1.988  0.8332 -1.4084 -0.8116
18504TIP3   OH276926   3.712   1.341   0.684  0.6020  0.4486 -0.1405
18504TIP3    H176927   3.748   1.271   0.630 -0.4426 -0.1656 -0.0702
18504TIP3    H276928   3.675   1.295   0.760 -1.4365  0.9109 -0.8072
18505TIP3   OH276929   3.988   2.042   0.423  0.3118 -0.5492  0.1541
18505TIP3    H176930   4.036   1.983   0.365  0.4583 -0.7198  0.4451
18505TIP3    H276931   3.986   2.126   0.376 -1.2898 -1.1902 -0.9780
18506TIP3   OH276932   1.259   0.701   4.468  0.1623  0.3769  0.2544
18506TIP3    H176933   1.342   0.653   4.475 -0.1937 -0.5338 -1.2921
18506TIP3    H276934   1.192   0.636   4.488 -0.2450  0.7266  0.0426
18507TIP3   OH276935   5.690   5.282  13.294  0.6593 -0.2095  0.1338
18507TIP3    H176936   5.598   5.310  13.294  1.0489  1.1529  0.8319
18507TIP3    H276937   5.714   5.280  13.386  1.7828  1.0886 -0.0917
18508TIP3   OH276938   1.644   1.413  12.997 -0.4281 -0.1948 -0.2369
18508TIP3    H176939   1.668   1.505  13.003  0.0438 -0.3290 -0.0302
18508TIP3    H276940   1.576   1.401  13.063 -2.1954  0.5305 -1.8328
18509TIP3   OH276941   3.698   1.889   2.669  0.7252 -0.1471  0.1939
18509TIP3    H176942   3.611   1.856   2.646  0.1851  1.0879  0.3892
18509TIP3    H276943   3.681   1.971   2.715  1.9653 -0.4899  1.2971
18510TIP3   OH276944   5.088   4.571  14.792  0.2195 -0.4675  0.7088
18510TIP3    H176945   5.053   4.596  14.707 -0.7127 -2.4470  0.4425
18510TIP3    H276946   5.012   4.540  14.841  1.1036 -1.9138  1.2488
18511TIP3   OH276947   1.148   4.144   3.747 -0.3844  0.0180 -0.0539
18511TIP3    H176948   1.226   4.149   3.802 -1.1062  3.2251  0.8830
18511TIP3    H276949   1.076   4.138   3.809 -1.0367 -0.0984 -0.8112
18512TIP3   OH276950   1.620   1.722   2.419 -0.3583  0.0352  0.1811
18512TIP3    H176951   1.625   1.800   2.364  0.9586  0.9229  1.4842
18512TIP3    H276952   1.558   1.744   2.488  1.9894  1.0786  2.1272
18513TIP3   OH276953   3.997   0.305  12.412  0.4542 -0.2257  0.3884
18513TIP3    H176954   4.087   0.336  12.404  0.3726  0.2492  1.2164
18513TIP3    H276955   3.943   0.382  12.396  0.2508  0.1647  2.6427
18514TIP3   OH276956   5.047   3.353   2.843 -0.2743 -0.1451 -0.3861
18514TIP3    H176957   5.051   3.441   2.807  0.0706  0.1445  0.3430
18514TIP3    H276958   5.115   3.304   2.795  0.6860  0.4248  0.3566
18515TIP3   OH276959   0.367   2.092  11.581 -0.1569 -0.4515 -0.2435
18515TIP3    H176960   0.368   2.002  11.613 -0.6659 -0.8613 -1.3463
18515TIP3    H276961   0.393   2.145  11.657  0.5586 -1.5545  0.3025
18516TIP3   OH276962   1.078   4.669  14.186 -0.2935  0.0726 -0.1462
18516TIP3    H176963   1.058   4.580  14.157 -0.0869 -0.1751  0.4616
18516TIP3    H276964   1.166   4.662  14.224 -1.0238  0.1424  1.6184
18517TIP3   OH276965   4.744   1.890   3.867  0.2011  0.7541  0.0289
18517TIP3    H176966   4.766   1.982   3.878 -1.0950  1.0594  0.1640
18517TIP3    H276967   4.824   1.843   3.893  1.1529  1.8406 -0.7955
18518TIP3   OH276968   3.593   5.035   5.353  0.1592  0.2245 -0.0638
18518TIP3    H176969   3.544   4.963   5.393  0.3174  0.9838  1.5850
18518TIP3    H276970   3.593   5.015   5.259 -0.9074 -1.2316  0.2101
18519TIP3   OH276971   0.659   4.139   3.373  0.0737  0.1348  0.1284
18519TIP3    H176972   0.646   4.044   3.376 -1.7221  0.3086 -0.6558
18519TIP3    H276973   0.668   4.166   3.464  0.5366 -0.7729  0.3582
18520TIP3   OH276974   6.287   2.199  12.152 -0.5932  0.0247 -0.5163
18520TIP3    H176975   6.333   2.194  12.236 -1.4450 -1.7232 -0.1046
18520TIP3    H276976   6.357   2.205  12.087  0.2228 -1.4512  0.1562
18521TIP3   OH276977   5.155   5.129  16.237 -0.2299  0.0848  0.0036
18521TIP3    H176978   5.172   5.101  16.147  0.0555 -2.6536  0.8085
18521TIP3    H276979   5.060   5.140  16.241 -0.1947  0.6812 -0.7425
18522TIP3   OH276980   1.025   1.858  15.261  0.4095 -0.1117 -0.0349
18522TIP3    H176981   0.965   1.932  15.247 -0.2704 -0.7245 -0.4102
18522TIP3    H276982   0.997   1.819  15.344  2.1223  1.3050  1.2918
18523TIP3   OH276983   1.438   4.934   5.664  0.2916 -0.1897 -0.1115
18523TIP3    H176984   1.385   5.011   5.684 -1.1968 -0.9982 -0.7902
18523TIP3    H276985   1.456   4.941   5.570  0.1591 -0.6434 -0.1757
18524TIP3   OH276986   2.843   6.586  13.451 -0.0534  0.0681 -0.4591
18524TIP3    H176987   2.888   6.575  13.368 -1.6357 -1.6268 -1.1676
18524TIP3    H276988   2.767   6.528  13.445 -0.4205  0.1811  2.0182
18525TIP3   OH276989   2.099   4.328   4.747  0.2691  0.1837  0.4548
18525TIP3    H176990   2.058   4.250   4.709  0.0636  0.8852 -0.8279
18525TIP3    H276991   2.193   4.313   4.738  0.2394 -0.1664  0.7304
18526TIP3   OH276992   6.546   0.531  12.608 -0.2171  0.5726  0.4568
18526TIP3    H176993   6.483   0.518  12.679 -0.9321 -0.4007 -0.3243
18526TIP3    H276994   6.631   0.512  12.647 -0.8147 -2.4297  0.4850
18527TIP3   OH276995   1.822   5.211   0.896  0.2760  0.5568 -0.1693
18527TIP3    H176996   1.799   5.130   0.940  1.0194 -0.0013 -0.7726
18527TIP3    H276997   1.902   5.241   0.940 -0.6079  1.5874  0.8047
18528TIP3   OH276998   2.215   5.041  14.096 -0.3326 -0.2121  0.3531
18528TIP3    H176999   2.129   5.071  14.126 -0.3947  0.4609 -0.4699
18528TIP3    H277000   2.196   4.975  14.029 -0.1920 -1.2503  1.2987
18529TIP3   OH277001   5.155   4.633  15.742  0.1416  0.1569 -0.4436
18529TIP3    H177002   5.208   4.565  15.699  0.0873  0.9050 -1.7365
18529TIP3    H277003   5.146   4.602  15.833  1.6552 -0.6401 -0.5359
18530TIP3   OH277004   1.939   0.172   4.415  0.0417 -0.3135 -0.3115
18530TIP3    H177005   1.936   0.142   4.325 -0.0199 -0.8932 -0.1223
18530TIP3    H277006   1.850   0.160   4.447  0.0461 -0.0400 -0.1971
18531TIP3   OH277007   0.854   0.699   4.018  0.2212 -0.1555 -0.0559
18531TIP3    H177008   0.765   0.664   4.010 -0.0322 -0.2618  2.5020
18531TIP3    H277009   0.909   0.636   3.972 -0.7055 -1.7074  0.8941
18532TIP3   OH277010   2.775   5.161   3.560 -0.4352 -0.1708  0.1702
18532TIP3    H177011   2.764   5.184   3.652  1.5494  2.2395 -0.0820
18532TIP3    H277012   2.754   5.241   3.512  0.1268 -0.8977 -1.3731
18533TIP3   OH277013   4.364   0.677  13.473 -0.2609  0.7483 -0.2008
18533TIP3    H177014   4.413   0.598  13.450 -1.3280  0.4790 -1.6885
18533TIP3    H277015   4.329   0.659  13.560  0.0984 -0.1351 -0.2282
18534TIP3   OH277016   2.151   6.749  16.089  0.7296 -0.6053  0.2473
18534TIP3    H177017   2.203   6.671  16.072  0.6246 -0.3587 -1.4016
18534TIP3    H277018   2.215   6.819  16.105  0.9779 -0.2356 -2.0686
18535TIP3   OH277019   3.041   6.282   0.280 -0.2310  0.2103 -0.6643
18535TIP3    H177020   3.083   6.299   0.364 -0.0481  2.1874 -1.1086
18535TIP3    H277021   3.104   6.228   0.232  0.6181  0.8802 -0.3191
18536TIP3   OH277022   1.226   5.244  12.176 -0.5321  0.8314  0.1321
18536TIP3    H177023   1.140   5.259  12.214 -0.2984  0.6882  0.7350
18536TIP3    H277024   1.285   5.236  12.251 -0.0960  0.3090 -0.2494
18537TIP3   OH277025   3.821   1.208   1.315 -0.1364  0.5513 -0.4676
18537TIP3    H177026   3.774   1.220   1.233 -0.7303 -0.0856 -0.2273
18537TIP3    H277027   3.769   1.256   1.379  0.3215  1.0396 -0.4598
18538TIP3   OH277028   0.267   6.659  13.785 -0.4696  0.3169 -0.2994
18538TIP3    H177029   0.232   6.608  13.712 -1.6590  0.0446  0.4250
18538TIP3    H277030   0.189   6.689  13.833  0.2694 -0.2787  1.3696
18539TIP3   OH277031   6.278   6.745  16.625  0.0709  0.5443 -0.7123
18539TIP3    H177032   6.285   6.830  16.668 -2.9555  0.6832 -0.2474
18539TIP3    H277033   6.274   6.765  16.532  0.7966  0.7713 -0.6978
18540TIP3   OH277034   1.946   6.116  16.525 -0.1392 -0.4206  0.1789
18540TIP3    H177035   1.987   6.140  16.442 -0.6372 -0.3801 -0.0580
18540TIP3    H277036   2.004   6.154  16.592  1.0384 -1.6583 -0.0944
18541TIP3   OH277037   3.239   3.795  15.850  0.4814 -0.8154  0.0595
18541TIP3    H177038   3.194   3.871  15.886  0.9330 -0.4395 -0.1464
18541TIP3    H277039   3.170   3.735  15.825  0.1159 -0.4437  0.1729
18542TIP3   OH277040   2.245   5.355  10.445  0.4083 -0.2912 -0.2954
18542TIP3    H177041   2.267   5.268  10.410 -0.3173 -0.1341 -1.1655
18542TIP3    H277042   2.305   5.366  10.519  0.5248 -1.5300 -0.1722
18543TIP3   OH277043   4.002   2.466   0.929  0.5733  0.3589  0.3230
18543TIP3    H177044   3.965   2.448   1.015 -0.4613  0.4592 -0.0877
18543TIP3    H277045   3.946   2.535   0.893  0.6068 -0.1330 -0.6898
18544TIP3   OH277046   6.023   4.768  16.333 -0.1018 -0.0110 -0.9737
18544TIP3    H177047   6.003   4.680  16.363  0.1097 -0.4743 -2.1659
18544TIP3    H277048   6.109   4.787  16.371  0.7127 -1.0586 -2.2248
18545TIP3   OH277049   5.452   2.866  11.165  0.0344 -1.1655 -0.3017
18545TIP3    H177050   5.383   2.887  11.228 -1.3113 -1.5040 -1.6147
18545TIP3    H277051   5.455   2.941  11.107 -1.5696 -2.4908 -2.2207
18546TIP3   OH277052   4.446   5.788  14.380 -0.1209 -0.0106  0.1990
18546TIP3    H177053   4.373   5.740  14.341  0.1692  0.1192 -0.5398
18546TIP3    H277054   4.508   5.720  14.407  0.9932 -0.0917 -2.2443
18547TIP3   OH277055   4.385   5.507   6.405  0.4025 -0.4880  0.0976
18547TIP3    H177056   4.321   5.576   6.389  1.4432  0.3394 -0.6645
18547TIP3    H277057   4.427   5.532   6.487  0.6866 -0.2696 -0.1098
18548TIP3   OH277058   5.117   4.898  15.678 -0.0654  0.3257  0.1680
18548TIP3    H177059   5.138   4.806  15.693  1.7372  0.4426 -1.3814
18548TIP3    H277060   5.168   4.945  15.744  0.5394  0.3117 -0.2836
18549TIP3   OH277061   4.736   6.111  17.177 -0.6135  0.0270 -0.5575
18549TIP3    H177062   4.800   6.129  17.109 -0.0697 -0.9783 -0.3446
18549TIP3    H277063   4.788   6.089  17.254 -1.1657 -2.1126 -0.7304
18550TIP3   OH277064   0.424   4.434  14.448  0.3476  0.2336 -0.4812
18550TIP3    H177065   0.383   4.347  14.439  1.5260 -0.5665  1.2762
18550TIP3    H277066   0.350   4.493  14.460 -0.4720 -0.5420 -1.4351
18551TIP3   OH277067   0.989   4.882   3.729 -0.5096 -0.3984  0.1067
18551TIP3    H177068   1.028   4.801   3.762 -0.2054  0.4059  1.8333
18551TIP3    H277069   0.989   4.941   3.804 -3.0530  0.3890 -0.4067
18552TIP3   OH277070   4.174   5.201   5.725  0.3837  0.0275 -0.3695
18552TIP3    H177071   4.150   5.290   5.700  0.1428  0.8490  2.3918
18552TIP3    H277072   4.098   5.148   5.700  0.2901  0.6780 -1.5253
18553TIP3   OH277073   0.702   1.548   4.455 -0.1535  0.3929 -0.2796
18553TIP3    H177074   0.681   1.501   4.536 -0.5702  0.7844 -0.1537
18553TIP3    H277075   0.641   1.513   4.390 -0.2339  0.5114 -0.2691
18554TIP3   OH277076   2.936   5.149   5.536 -0.4174 -0.1462 -0.2635
18554TIP3    H177077   2.972   5.065   5.566  1.1231  0.3860 -0.5353
18554TIP3    H277078   2.957   5.152   5.443 -1.2061  0.1860 -0.4369
18555TIP3   OH277079   4.469   2.421   1.828  0.0823  0.4286 -0.2526
18555TIP3    H177080   4.521   2.357   1.877  0.6838  0.8641 -0.3076
18555TIP3    H277081   4.527   2.449   1.757 -0.3702  0.6453 -0.5395
18556TIP3   OH277082   6.315   3.733  14.633  0.0735 -0.2076 -0.0011
18556TIP3    H177083   6.377   3.742  14.705  0.0792  1.0915 -0.1334
18556TIP3    H277084   6.367   3.700  14.559  0.7759  1.4425 -0.2876
18557TIP3   OH277085   6.513   2.479  14.242 -0.5294 -0.4699  0.1862
18557TIP3    H177086   6.449   2.481  14.313 -1.8814 -2.8337 -0.8667
18557TIP3    H277087   6.582   2.421  14.273  0.1873  0.5263  0.5291
18558TIP3   OH277088   1.649   6.232  15.217 -0.6206 -0.0337 -0.5982
18558TIP3    H177089   1.672   6.222  15.125 -1.2015  1.7011 -0.9711
18558TIP3    H277090   1.577   6.294  15.217 -0.8497 -0.2524  1.0162
18559TIP3   OH277091   2.659   3.328  15.807  0.0297  0.2159  0.1462
18559TIP3    H177092   2.754   3.321  15.821 -0.1312 -1.7475  0.4497
18559TIP3    H277093   2.621   3.301  15.890 -0.8193  0.5840 -0.1150
18560TIP3   OH277094   2.246   1.564   5.558  0.3051  0.4250  0.3243
18560TIP3    H177095   2.258   1.491   5.497 -1.5051  0.2229  0.1647
18560TIP3    H277096   2.230   1.640   5.503 -2.6405  0.0084  0.4517
18561TIP3   OH277097   6.368   6.536  11.539 -0.6276  0.3431 -0.4047
18561TIP3    H177098   6.329   6.544  11.626 -0.8404  1.2992 -0.5773
18561TIP3    H277099   6.335   6.453  11.506  0.1902 -0.4917  0.7861
18562TIP3   OH277100   2.048   0.385   2.188 -0.0297 -0.1020 -0.2517
18562TIP3    H177101   2.067   0.295   2.162  1.7783 -0.1896  1.2323
18562TIP3    H277102   2.091   0.396   2.273 -1.3390  1.7627  0.2411
18563TIP3   OH277103   5.657   1.167   5.670  0.3818 -0.1346 -0.1433
18563TIP3    H177104   5.697   1.098   5.617  0.5420  0.1616 -0.4160
18563TIP3    H277105   5.563   1.162   5.651  0.0146 -1.9364  1.7759
18564TIP3   OH277106   5.197   1.086  16.282 -0.5696  0.1597  0.3843
18564TIP3    H177107   5.159   1.067  16.368  0.2893  2.1936  1.2751
18564TIP3    H277108   5.122   1.109  16.227 -1.2145 -1.9211  0.3017
18565TIP3   OH277109   2.571   6.396  15.858 -0.2196 -0.5416 -0.4268
18565TIP3    H177110   2.624   6.418  15.781 -0.7441 -0.0486 -0.6555
18565TIP3    H277111   2.610   6.315  15.892  2.2028  1.0152  0.8069
18566TIP3   OH277112   4.549   2.210  10.659  0.0099  0.0450  0.2145
18566TIP3    H177113   4.457   2.185  10.661  0.2681 -1.0551  3.2564
18566TIP3    H277114   4.555   2.284  10.719  0.9202  0.9744 -0.9847
18567TIP3   OH277115   3.117   1.351  13.560 -0.3164 -0.1978 -0.8602
18567TIP3    H177116   3.183   1.286  13.535  0.9224 -0.2526  2.0748
18567TIP3    H277117   3.055   1.303  13.615  0.2434  0.8544  0.7982
18568TIP3   OH277118   2.983   6.778   1.451  0.6604  0.3364 -0.0560
18568TIP3    H177119   2.996   6.737   1.366  0.7095  0.7329 -0.2415
18568TIP3    H277120   3.070   6.780   1.490  0.3251 -1.8559  0.9458
18569TIP3   OH277121   0.438   1.552  11.871 -0.5935 -0.0180  0.2206
18569TIP3    H177122   0.446   1.643  11.843 -0.5514  0.0793  0.5391
18569TIP3    H277123   0.469   1.552  11.962  0.1191 -0.4863 -0.0115
18570TIP3   OH277124   1.756   6.018   5.224 -0.0693  0.8702  0.0801
18570TIP3    H177125   1.799   5.965   5.157 -0.5012  0.8720 -0.2014
18570TIP3    H277126   1.746   5.959   5.299 -2.3596 -0.1177 -0.8908
18571TIP3   OH277127   3.143   5.949  16.118 -0.1430  0.0823  0.0678
18571TIP3    H177128   3.133   5.861  16.153 -2.1870  0.2040 -0.1379
18571TIP3    H277129   3.115   5.942  16.027 -2.5682  1.3629  0.6365
18572TIP3   OH277130   2.652   0.186   1.988 -0.3847 -0.2812 -0.5159
18572TIP3    H177131   2.644   0.277   1.960  1.0078 -0.3398 -1.1987
18572TIP3    H277132   2.663   0.137   1.907  0.0094 -0.9131 -0.0865
18573TIP3   OH277133   3.956   0.460   1.887 -0.0798  0.4943  0.7508
18573TIP3    H177134   4.021   0.506   1.834  0.2622 -0.5277  0.2513
18573TIP3    H277135   3.995   0.457   1.975  1.9537 -2.5746 -0.1008
18574TIP3   OH277136   1.328   0.647   1.491 -0.3437  0.5199  0.0539
18574TIP3    H177137   1.343   0.572   1.549  0.0840  0.3492 -0.2743
18574TIP3    H277138   1.286   0.611   1.414  0.6252  0.4774 -0.4670
18575TIP3   OH277139   6.533   3.194   3.835 -0.5940  0.1368 -0.1926
18575TIP3    H177140   6.600   3.202   3.903 -0.5782 -1.2535 -0.0188
18575TIP3    H277141   6.562   3.119   3.781 -1.5454  0.0765 -0.6381
18576TIP3   OH277142   1.438   6.072  13.909 -0.1525 -0.3821 -0.6871
18576TIP3    H177143   1.524   6.034  13.925  0.4819  1.3217  0.2756
18576TIP3    H277144   1.455   6.147  13.851 -1.0143 -0.1825 -0.6956
18577TIP3   OH277145   2.273   4.185   2.822 -0.3292  0.4901  0.1943
18577TIP3    H177146   2.335   4.124   2.862 -2.2603 -1.8457 -0.1537
18577TIP3    H277147   2.208   4.202   2.891 -0.8431  0.6293 -0.3208
18578TIP3   OH277148   0.594   0.655  14.118  0.2616 -0.6710 -0.0980
18578TIP3    H177149   0.652   0.728  14.095 -1.4555  0.9243  0.4228
18578TIP3    H277150   0.514   0.671  14.067 -0.7182 -1.3218  1.1850
18579TIP3   OH277151   1.459   5.527   1.422 -0.3639 -0.2719 -0.1151
18579TIP3    H177152   1.395   5.456   1.422 -0.8709  0.1797  0.1442
18579TIP3    H277153   1.495   5.527   1.334  0.6159 -1.7122  0.2448
18580TIP3   OH277154   4.064   4.472   4.265  0.4082  0.2102 -0.2612
18580TIP3    H177155   3.973   4.464   4.295  1.3760 -1.4634  2.6513
18580TIP3    H277156   4.088   4.384   4.238  1.3352  0.5161 -0.4473
18581TIP3   OH277157   6.334   4.854   3.497 -0.3347  0.7586  0.0232
18581TIP3    H177158   6.414   4.823   3.454  0.1418  1.1728  0.5863
18581TIP3    H277159   6.264   4.831   3.437  0.2436  0.6748 -0.6312
18582TIP3   OH277160   1.948   5.179  12.971 -0.5926 -0.2434 -0.3266
18582TIP3    H177161   2.001   5.124  13.028 -1.2472 -1.4652 -0.8585
18582TIP3    H277162   1.892   5.229  13.030 -0.1198 -0.2848  0.1625
18583TIP3   OH277163   2.551   1.773  15.390 -0.2606 -0.4075 -0.2467
18583TIP3    H177164   2.624   1.711  15.399 -0.1804 -0.2290  0.3925
18583TIP3    H277165   2.576   1.829  15.317  0.5362  0.0412  0.3573
18584TIP3   OH277166   3.692   5.384   1.959 -0.5345  0.3577 -0.1951
18584TIP3    H177167   3.694   5.300   2.005  2.2647  0.6788  0.4719
18584TIP3    H277168   3.646   5.443   2.018  0.2169 -0.0148  0.7980
18585TIP3   OH277169   2.898   1.336   3.169  0.6644 -0.0191  0.1654
18585TIP3    H177170   2.907   1.430   3.156  1.6519 -0.2754 -1.2931
18585TIP3    H277171   2.884   1.301   3.081  1.8889 -1.3807  0.4600
18586TIP3   OH277172   4.222   5.192  15.155 -0.1140  0.1942 -0.4085
18586TIP3    H177173   4.209   5.271  15.102  0.5723  0.6277  0.0553
18586TIP3    H277174   4.315   5.174  15.147 -0.2638 -0.5651 -0.4864
18587TIP3   OH277175   2.237   3.200   2.786  0.4290  0.5023 -0.2061
18587TIP3    H177176   2.192   3.212   2.702 -0.6156  1.9259  0.5076
18587TIP3    H277177   2.242   3.288   2.823  1.7715  0.0369  0.7884
18588TIP3   OH277178   3.915   5.689  15.036 -0.0735 -0.2609  0.2339
18588TIP3    H177179   3.968   5.673  14.959 -0.7213 -4.1307  0.3723
18588TIP3    H277180   3.975   5.677  15.110  0.0452  1.0911  0.3698
18589TIP3   OH277181   3.865   3.542  10.969 -0.0858  0.2058 -0.0107
18589TIP3    H177182   3.956   3.517  10.983 -0.1962 -0.0634  0.2446
18589TIP3    H277183   3.863   3.575  10.879 -0.4240 -3.1580 -1.3772
18590TIP3   OH277184   1.228   0.421   1.644 -0.3985  0.5683  0.0708
18590TIP3    H177185   1.152   0.471   1.674 -1.2046 -0.3117 -0.4376
18590TIP3    H277186   1.196   0.374   1.567 -0.1622 -1.9261  1.3918
18591TIP3   OH277187   4.489   6.540  13.139 -0.1154 -0.4592 -0.7175
18591TIP3    H177188   4.408   6.588  13.157 -0.4820 -1.2236 -0.2632
18591TIP3    H277189   4.502   6.549  13.045 -0.4060  0.1620 -0.7059
18592TIP3   OH277190   1.288   5.564   0.160  0.0511 -0.1921  0.7731
18592TIP3    H177191   1.198   5.552   0.131  1.1951  0.0257 -3.7377
18592TIP3    H277192   1.294   5.656   0.184 -0.4456  0.5063 -1.5423
18593TIP3   OH277193   1.619   1.223   5.261 -0.3158 -0.6330 -0.2982
18593TIP3    H177194   1.681   1.165   5.216 -1.7278 -1.2203 -1.5551
18593TIP3    H277195   1.558   1.164   5.305  0.8388 -0.0800  2.2903
18594TIP3   OH277196   0.142   1.752   0.234  0.7122  0.1764  0.0311
18594TIP3    H177197   0.111   1.838   0.204 -3.6379 -1.2210 -0.1678
18594TIP3    H277198   0.151   1.761   0.328  0.2236  0.8544  0.0231
18595TIP3   OH277199   1.393   4.773   4.795 -0.1656 -0.1738 -0.0783
18595TIP3    H177200   1.405   4.868   4.794 -0.8049 -0.0347  1.5310
18595TIP3    H277201   1.390   4.747   4.703 -0.3281  1.4164 -0.5413
18596TIP3   OH277202   3.807   2.409   1.486 -0.0736  0.2787 -0.3667
18596TIP3    H177203   3.857   2.413   1.567 -0.8904 -1.2305  0.2515
18596TIP3    H277204   3.734   2.470   1.499 -0.4975 -0.3496  0.2682
18597TIP3   OH277205   2.560   2.992  12.812 -0.4010 -0.1315 -0.0862
18597TIP3    H177206   2.649   2.989  12.776 -0.5953 -0.3151 -0.5530
18597TIP3    H277207   2.551   2.908  12.858  0.0245  0.3094  0.8369
18598TIP3   OH277208   3.607   1.072   2.249 -0.6673  0.2426 -0.6074
18598TIP3    H177209   3.628   1.122   2.328 -1.3988 -0.3364 -0.0339
18598TIP3    H277210   3.674   1.098   2.186 -0.7245  1.5442 -0.1601
18599TIP3   OH277211   3.228   3.670  14.942  0.6546  0.1522 -0.0645
18599TIP3    H177212   3.143   3.707  14.919  0.4685  1.0717  1.9047
18599TIP3    H277213   3.208   3.594  14.997  1.1037 -0.5592 -0.8586
18600TIP3   OH277214   5.100   1.263  13.661 -0.1649  0.2621 -0.1358
18600TIP3    H177215   5.091   1.195  13.728 -2.0147  1.0795  0.5117
18600TIP3    H277216   5.021   1.255  13.608 -0.8183  2.3728  0.4252
18601TIP3   OH277217   6.522   3.985  14.284  0.0361  0.0690 -0.6906
18601TIP3    H177218   6.527   4.049  14.212 -1.3879 -1.5671 -2.3628
18601TIP3    H277219   6.428   3.974  14.299  0.2867 -0.6488  0.5051
18602TIP3   OH277220   2.646   2.282   3.065 -0.2856 -0.0140  0.5233
18602TIP3    H177221   2.582   2.324   3.007  1.2983  1.5513 -0.1762
18602TIP3    H277222   2.614   2.301   3.153 -0.6058  1.0597  0.1933
18603TIP3   OH277223   3.914   0.664  15.529 -0.4671  0.3378 -0.5534
18603TIP3    H177224   3.843   0.721  15.558 -0.3504  0.0695  0.2722
18603TIP3    H277225   3.973   0.722  15.481 -0.2362  0.9753  0.4625
18604TIP3   OH277226   2.288   4.591   0.256 -0.3850 -0.3595  0.2618
18604TIP3    H177227   2.357   4.656   0.240 -0.7850  0.1638  0.6444
18604TIP3    H277228   2.336   4.509   0.269  0.0881 -0.3027 -0.9649
18605TIP3   OH277229   3.143   4.382  13.616 -0.2007  0.4491 -0.2036
18605TIP3    H177230   3.228   4.368  13.658  0.4536  1.3449 -1.1643
18605TIP3    H277231   3.133   4.477  13.612 -1.7603  0.3604  0.8428
18606TIP3   OH277232   0.183   0.411   3.030 -0.2273  0.1504  0.2447
18606TIP3    H177233   0.120   0.387   3.097 -1.5913  1.8697 -0.3356
18606TIP3    H277234   0.152   0.368   2.951 -2.7261  3.4644 -0.8172
18607TIP3   OH277235   2.018   3.599   0.621 -0.5288  0.0222  0.0420
18607TIP3    H177236   1.996   3.509   0.643  1.0664  0.2314  3.1298
18607TIP3    H277237   1.990   3.650   0.698  1.5574  1.6293 -0.1609
18608TIP3   OH277238   1.794   1.868   5.124  0.2643 -0.4829  0.1918
18608TIP3    H177239   1.737   1.791   5.119 -0.2820 -0.0065 -1.6558
18608TIP3    H277240   1.789   1.907   5.037  2.4973  0.2603  0.3374
18609TIP3   OH277241   4.213   2.296   1.539  0.4441  0.7869  0.2636
18609TIP3    H177242   4.290   2.280   1.485  1.3126 -1.8046  2.0632
18609TIP3    H277243   4.145   2.240   1.503  0.7858 -0.3357  1.3073
18610TIP3   OH277244   5.270   0.060   4.413  0.5246 -0.1683  0.7400
18610TIP3    H177245   5.230  -0.025   4.392  0.9570 -0.4809  1.1668
18610TIP3    H277246   5.349   0.063   4.360  0.2568  0.1811  0.3604
18611TIP3   OH277247   0.075   4.351  16.238 -0.1026  0.1567  0.0538
18611TIP3    H177248   0.002   4.311  16.192  0.1400 -0.4842  0.2131
18611TIP3    H277249   0.059   4.446  16.232 -1.6848  0.0153  1.2816
18612TIP3   OH277250   2.809   2.592  14.571 -0.1772  0.6336 -0.2426
18612TIP3    H177251   2.897   2.629  14.578 -1.1673  2.8345  2.0131
18612TIP3    H277252   2.783   2.574  14.661 -1.3133 -1.9771 -0.9956
18613TIP3   OH277253   1.116   3.869  16.992  0.1643 -0.3920 -0.2598
18613TIP3    H177254   1.031   3.847  17.030  0.0287 -0.1405 -0.4126
18613TIP3    H277255   1.133   3.958  17.021 -0.6660  0.3849 -2.0375
18614TIP3   OH277256   1.119   0.253   2.413 -0.0407  0.2028 -0.4144
18614TIP3    H177257   1.075   0.213   2.489 -2.6202 -3.4544 -3.4705
18614TIP3    H277258   1.090   0.344   2.415 -2.1165 -0.3898  1.6165
18615TIP3   OH277259   5.446   5.917   2.262 -0.0585 -0.5092 -0.6318
18615TIP3    H177260   5.449   5.830   2.222 -0.9802  0.2976 -2.5406
18615TIP3    H277261   5.538   5.937   2.283  0.0597 -2.3745  0.9248
18616TIP3   OH277262   2.573   6.187   3.976 -0.3743  0.0856  0.1292
18616TIP3    H177263   2.490   6.209   4.019 -0.2104  1.7201 -0.3266
18616TIP3    H277264   2.639   6.195   4.044 -0.2141  1.9072 -0.2044
18617TIP3   OH277265   6.502   3.591   0.608  0.1538  0.1794  0.5431
18617TIP3    H177266   6.516   3.514   0.662 -0.2699 -0.9066 -0.8431
18617TIP3    H277267   6.530   3.665   0.663  0.1017 -0.9027  2.0682
18618TIP3   OH277268   6.554   3.857  13.432  0.2667  0.1867 -0.5997
18618TIP3    H177269   6.552   3.897  13.519 -0.4472 -1.4170  0.1800
18618TIP3    H277270   6.637   3.885  13.394  0.1915  1.6228  0.2387
18619TIP3   OH277271   5.100   1.382  10.480  0.2126 -0.1898 -1.0152
18619TIP3    H177272   5.184   1.335  10.486  0.5322  0.3986 -0.8146
18619TIP3    H277273   5.120   1.459  10.428 -0.2686 -0.1732 -1.1756
18620TIP3   OH277274   1.332   3.337  13.003  0.0918 -0.1869  0.1928
18620TIP3    H177275   1.244   3.303  12.982 -0.5021  1.2923  0.1967
18620TIP3    H277276   1.390   3.283  12.949 -0.7197 -1.7615  0.8195
18621TIP3   OH277277   1.440   0.104   3.779  0.4602 -0.5833 -0.3921
18621TIP3    H177278   1.514   0.051   3.808  0.7613  0.3324  0.5962
18621TIP3    H277279   1.479   0.172   3.723  0.2393 -0.6564 -0.6381
18622TIP3   OH277280   1.787   2.717   4.883 -0.3488 -0.1648 -0.5886
18622TIP3    H177281   1.746   2.661   4.949 -2.8018  1.6218 -0.4960
18622TIP3    H277282   1.726   2.718   4.810  1.4049 -0.5020 -2.1552
18623TIP3   OH277283   1.194   5.482   5.691  0.2750 -0.3774  0.2675
18623TIP3    H177284   1.213   5.436   5.609 -0.7535  2.0403 -1.4467
18623TIP3    H277285   1.268   5.461   5.748  2.0852 -0.5492 -1.9976
18624TIP3   OH277286   3.673   3.601   0.936  0.6208  0.0066  0.1414
18624TIP3    H177287   3.759   3.584   0.897 -0.0464 -2.0339 -0.5554
18624TIP3    H277288   3.630   3.660   0.875  1.2043  0.3733  0.0727
18625TIP3   OH277289   2.776   4.701  13.848  0.1554  0.2531 -0.2457
18625TIP3    H177290   2.688   4.694  13.884 -0.0506  0.2110 -0.7455
18625TIP3    H277291   2.827   4.744  13.917 -0.5918  1.6108 -0.4906
18626TIP3   OH277292   6.545   4.810  14.970 -0.5220  0.3195 -0.4444
18626TIP3    H177293   6.492   4.754  15.027 -0.2770 -1.7630 -2.1044
18626TIP3    H277294   6.554   4.892  15.018  2.5207 -2.2503  4.2260
18627TIP3   OH277295   6.128   2.330   5.377  0.2807  0.1393  0.1320
18627TIP3    H177296   6.116   2.236   5.391 -1.2011  0.4018  0.7417
18627TIP3    H277297   6.047   2.360   5.338 -0.7897  1.7730  3.2529
18628TIP3   OH277298   5.871   5.038   3.691  0.1006  0.4443 -0.4357
18628TIP3    H177299   5.804   4.978   3.724 -1.4319  0.6936 -2.9088
18628TIP3    H277300   5.953   4.991   3.706 -0.9652 -1.8384 -1.2346
18629TIP3   OH277301   6.124   6.016  13.069 -0.3958 -0.0271 -0.0954
18629TIP3    H177302   6.156   5.960  12.998 -0.3090  0.5753 -0.5462
18629TIP3    H277303   6.149   5.970  13.149  2.6640  0.9026 -0.3903
18630TIP3   OH277304   4.302   3.013   3.297  0.4244  0.1931  0.3610
18630TIP3    H177305   4.278   2.921   3.305 -1.0536  0.3203 -1.7215
18630TIP3    H277306   4.386   3.012   3.252 -0.4613 -0.1732 -1.3790
18631TIP3   OH277307   4.943   5.384  16.922  0.1833  0.0299 -0.0636
18631TIP3    H177308   4.868   5.387  16.862  0.4991  2.1657 -0.4489
18631TIP3    H277309   5.015   5.423  16.871  1.4675 -1.5441  0.4557
18632TIP3   OH277310   0.834   5.701  11.803 -0.0835  0.4267  0.5045
18632TIP3    H177311   0.845   5.724  11.895  1.3849  1.4169  0.1338
18632TIP3    H277312   0.844   5.784  11.757  0.9406 -0.2864 -0.6293
18633TIP3   OH277313   0.772   0.877  12.087 -0.7997  0.4151 -0.4927
18633TIP3    H177314   0.829   0.934  12.035  0.1600 -1.3373 -1.4421
18633TIP3    H277315   0.767   0.920  12.172  1.4141  0.9981 -0.5916
18634TIP3   OH277316   2.186   0.941   4.561 -0.3480  0.7272 -0.4256
18634TIP3    H177317   2.148   1.021   4.524 -0.2227  0.3470 -1.4276
18634TIP3    H277318   2.246   0.910   4.492 -0.4393 -0.2549 -0.0701
18635TIP3   OH277319   1.339   1.051   3.034 -0.3700 -0.2128  0.1028
18635TIP3    H177320   1.294   1.002   2.965 -1.5177  0.3749  0.4033
18635TIP3    H277321   1.344   1.140   3.000  0.9643 -0.3507 -0.0976
18636TIP3   OH277322   2.509   1.629   0.942  0.3627 -0.5019  0.6284
18636TIP3    H177323   2.570   1.664   0.876 -0.0075 -0.3169  0.3817
18636TIP3    H277324   2.494   1.703   1.001  1.8263 -1.0751  1.7673
18637TIP3   OH277325   1.814   5.845  11.251 -0.1696  0.1229 -0.3058
18637TIP3    H177326   1.800   5.928  11.206  0.6300 -0.0331 -0.8709
18637TIP3    H277327   1.906   5.848  11.278 -0.7501  0.4407  1.8033
18638TIP3   OH277328   5.570   4.817   0.963 -0.1908 -0.3818  0.4105
18638TIP3    H177329   5.544   4.906   0.937 -1.9351 -0.8298  0.5089
18638TIP3    H277330   5.655   4.829   1.005 -0.5993  1.3221  0.8507
18639TIP3   OH277331   4.379   2.166   2.212  0.0932  0.6331  0.0790
18639TIP3    H177332   4.309   2.119   2.166 -2.0698  0.5664  3.1094
18639TIP3    H277333   4.363   2.258   2.190 -0.3719  0.5390 -0.0086
18640TIP3   OH277334   2.075   5.161   3.338 -0.1456  0.1323 -0.3628
18640TIP3    H177335   2.090   5.156   3.432  2.5088 -0.1864 -0.7374
18640TIP3    H277336   2.010   5.093   3.320  0.4740 -0.8575  1.0333
18641TIP3   OH277337   2.868   1.239  14.749 -0.4677  0.6601 -0.0566
18641TIP3    H177338   2.873   1.277  14.661  2.7267 -1.0702 -0.7983
18641TIP3    H277339   2.916   1.302  14.804  1.8962 -0.5143 -0.6357
18642TIP3   OH277340   3.629   1.264  12.880 -0.5827  0.7755  0.0885
18642TIP3    H177341   3.612   1.302  12.966  2.6127 -1.0940  1.7118
18642TIP3    H277342   3.560   1.199  12.867 -1.2820  1.3100  1.0522
18643TIP3   OH277343   4.288   3.890  17.093  0.5959 -0.3002  0.1540
18643TIP3    H177344   4.361   3.950  17.075  0.6314 -0.4338 -0.1465
18643TIP3    H277345   4.238   3.934  17.162  0.7225 -0.0081  0.0611
18644TIP3   OH277346   3.356   6.113  13.334  0.3450 -0.8682  0.0044
18644TIP3    H177347   3.428   6.050  13.336 -0.4932 -1.9487 -1.7284
18644TIP3    H277348   3.348   6.139  13.242 -0.1269  0.8800  0.4830
18645TIP3   OH277349   1.299   1.022   2.044 -0.1497  0.0260  0.0720
18645TIP3    H177350   1.350   1.102   2.055  0.4840 -0.3145 -0.3301
18645TIP3    H277351   1.359   0.952   2.069 -0.7196 -0.3209  0.4774
18646TIP3   OH277352   4.327   1.659   3.734  0.1640  0.6215 -0.1419
18646TIP3    H177353   4.410   1.675   3.778 -0.1754  0.6187  0.5105
18646TIP3    H277354   4.276   1.606   3.796 -0.7056  1.4633 -0.1117
18647TIP3   OH277355   1.302   2.803  14.236  0.1196 -0.0094 -0.3584
18647TIP3    H177356   1.358   2.751  14.178 -0.9386 -0.4912 -0.9806
18647TIP3    H277357   1.225   2.822  14.183 -0.2762  0.7036  0.4569
18648TIP3   OH277358   2.643   4.939   3.503 -0.4038  0.4431  0.1336
18648TIP3    H177359   2.696   5.018   3.517 -1.0535  0.7013  1.2378
18648TIP3    H277360   2.708   4.868   3.497  0.1160  0.8459  0.7963
18649TIP3   OH277361   6.315   5.024   6.249 -0.7108  0.2912 -0.3318
18649TIP3    H177362   6.376   4.971   6.197 -2.0379 -0.9796 -0.6707
18649TIP3    H277363   6.273   4.960   6.307  1.1465  1.7205  2.8388
18650TIP3   OH277364   0.874   4.845  16.736  0.1956  0.1021 -0.4419
18650TIP3    H177365   0.914   4.894  16.807  1.2488  2.3238 -2.3990
18650TIP3    H277366   0.938   4.848  16.665 -1.7174  0.0951 -2.2865
18651TIP3   OH277367   2.168   2.898  14.143 -0.5421 -0.3590 -0.3888
18651TIP3    H177368   2.237   2.843  14.105 -0.5240 -0.1362 -0.6822
18651TIP3    H277369   2.190   2.904  14.236  0.3334  0.4458 -0.6367
18652TIP3   OH277370   3.458   6.544   0.188  0.1412  0.1640 -0.7033
18652TIP3    H177371   3.491   6.551   0.099 -1.4975  0.3167 -1.3374
18652TIP3    H277372   3.435   6.452   0.199  1.2265 -0.0482 -0.0843
18653TIP3   OH277373   2.106   0.430  16.600  0.0297 -0.5574 -0.0845
18653TIP3    H177374   2.024   0.479  16.613  0.8081  0.9520 -0.7056
18653TIP3    H277375   2.174   0.489  16.631  0.9144 -1.8533  0.5450
18654TIP3   OH277376   3.490   2.295  14.748 -0.2320  0.7156 -0.0170
18654TIP3    H177377   3.497   2.273  14.655 -0.4753 -0.6703  0.2674
18654TIP3    H277378   3.581   2.309  14.776 -0.2615  2.6298 -0.7761
18655TIP3   OH277379   2.390   0.873  11.536 -0.1599 -0.2325  0.5051
18655TIP3    H177380   2.402   0.951  11.591 -2.9402 -0.6697  1.8841
18655TIP3    H277381   2.350   0.907  11.455 -0.2898 -0.0886  0.6287
18656TIP3   OH277382   0.158   1.086  16.975 -0.5865 -0.4087  0.0554
18656TIP3    H177383   0.227   1.023  16.951  0.9167  0.5534  1.6593
18656TIP3    H277384   0.155   1.146  16.901  0.6716 -0.1792  0.1624
18657TIP3   OH277385   4.002   3.173  12.464 -0.4720  0.2077 -0.4607
18657TIP3    H177386   3.977   3.253  12.418  1.7632  2.0585  1.3205
18657TIP3    H277387   4.094   3.185  12.486 -0.6549 -1.8305  1.9451
18658TIP3   OH277388   5.271   3.929   0.822 -0.4686  0.1730 -0.5388
18658TIP3    H177389   5.188   3.884   0.839 -0.3122 -0.4040 -1.2139
18658TIP3    H277390   5.333   3.889   0.883 -1.0842  1.9743  1.3546
18659TIP3   OH277391   1.146   2.362  15.881 -0.2673  0.0434  0.0949
18659TIP3    H177392   1.218   2.330  15.935 -1.9824 -1.4389  1.6524
18659TIP3    H277393   1.094   2.284  15.861 -1.1121  0.9532 -1.5577
18660TIP3   OH277394   1.147   4.152   1.064 -0.3443 -1.0887 -0.0963
18660TIP3    H177395   1.132   4.132   1.156 -2.0046 -0.8624 -0.2771
18660TIP3    H277396   1.107   4.238   1.051  3.0377  0.6169 -0.2628
18661TIP3   OH277397   6.363   0.298   2.607  0.3386 -0.1234  0.0899
18661TIP3    H177398   6.348   0.229   2.543 -0.1459 -0.7606  0.8780
18661TIP3    H277399   6.389   0.374   2.554 -0.9614 -0.3600 -0.9450
18662TIP3   OH277400   5.527   0.341   5.197  0.2670 -0.3253 -0.2438
18662TIP3    H177401   5.464   0.337   5.125  0.1093 -0.8167 -0.0827
18662TIP3    H277402   5.545   0.434   5.208 -1.0224 -0.1046  0.2059
18663TIP3   OH277403   5.534   3.423   0.900 -0.1920  0.8690 -0.0663
18663TIP3    H177404   5.546   3.508   0.942  0.8766  0.6625  0.0735
18663TIP3    H277405   5.506   3.365   0.971  0.6318  0.7503  0.1712
18664TIP3   OH277406   0.496   1.835  14.899 -0.0723 -0.4354  0.6921
18664TIP3    H177407   0.485   1.776  14.825  1.5608 -1.1319  0.9704
18664TIP3    H277408   0.461   1.919  14.868 -2.5599 -1.5056  0.3398
18665TIP3   OH277409   4.359   5.729   5.353 -0.2165  0.1615 -0.2436
18665TIP3    H177410   4.424   5.757   5.288  0.0536  2.6396  1.0049
18665TIP3    H277411   4.410   5.679   5.417 -0.5605 -2.7590 -2.0172
18666TIP3   OH277412   3.972   2.833   5.353 -0.2351 -0.0441  0.0979
18666TIP3    H177413   3.994   2.825   5.446  0.0377 -0.8516 -0.0302
18666TIP3    H277414   4.035   2.777   5.308 -0.8731 -0.2944 -0.5029
18667TIP3   OH277415   0.921   4.618  16.009 -0.0882 -0.8420  0.3969
18667TIP3    H177416   0.898   4.686  15.945 -2.2300 -0.1983  1.7559
18667TIP3    H277417   0.934   4.540  15.956 -1.0382 -0.1638 -0.9094
18668TIP3   OH277418   0.812   0.491  13.742  0.1262 -0.4229 -0.2478
18668TIP3    H177419   0.862   0.456  13.816  0.9064 -2.3121 -1.5812
18668TIP3    H277420   0.734   0.437  13.738  0.2081 -0.4953 -0.9402
18669TIP3   OH277421   5.867   3.175  15.042 -0.4264  0.2387  0.3490
18669TIP3    H177422   5.819   3.120  15.104 -0.3757  0.9794  1.0521
18669TIP3    H277423   5.841   3.265  15.063 -1.3772  0.4666 -1.5101
18670TIP3   OH277424   4.312   4.301   2.119 -0.2541 -0.3508  0.1160
18670TIP3    H177425   4.254   4.226   2.106 -1.4442  0.4112  0.8190
18670TIP3    H277426   4.310   4.317   2.214  2.4740 -1.3362  0.4081
18671TIP3   OH277427   5.463   5.949  15.516  0.2016  0.2350 -0.2388
18671TIP3    H177428   5.552   5.979  15.537 -0.4415  2.8047 -0.8235
18671TIP3    H277429   5.414   5.958  15.598  0.3820 -0.8748  0.0032
18672TIP3   OH277430   1.519   4.322  15.082  0.0184 -0.2034  0.0029
18672TIP3    H177431   1.456   4.338  15.012 -0.2736 -0.0133  0.3045
18672TIP3    H277432   1.541   4.409  15.116 -0.0517 -0.3077  0.3262
18673TIP3   OH277433   6.004   2.774  13.115  0.1778 -0.1519 -0.0582
18673TIP3    H177434   6.003   2.857  13.163 -0.9376 -0.0767 -0.1928
18673TIP3    H277435   6.074   2.785  13.050  1.1677  0.0426  1.0003
18674TIP3   OH277436   1.104   3.106  11.536  0.1015 -0.1946  0.6485
18674TIP3    H177437   1.060   3.044  11.478  0.5345 -0.3676  0.5078
18674TIP3    H277438   1.188   3.066  11.556  1.6996  1.6336 -1.8529
18675TIP3   OH277439   6.292   1.387  16.994  0.5563 -0.0832  0.1815
18675TIP3    H177440   6.305   1.481  16.981  1.9681 -0.0365  1.6322
18675TIP3    H277441   6.242   1.381  17.075 -0.9671 -0.5767 -0.7514
18676TIP3   OH277442   3.465   0.288  16.701 -0.7843 -0.0305  0.3547
18676TIP3    H177443   3.524   0.345  16.652  1.8370 -1.5344  1.5121
18676TIP3    H277444   3.378   0.326  16.689  0.2373  1.7080 -2.3531
18677TIP3   OH277445   1.640   1.183   4.091 -0.0207 -0.4139 -0.1127
18677TIP3    H177446   1.661   1.271   4.060 -2.3264 -0.1286 -1.0983
18677TIP3    H277447   1.568   1.196   4.153 -0.5993 -1.6116 -0.5091
18678TIP3   OH277448   0.470   1.956  16.273  0.8274 -0.1658  0.1571
18678TIP3    H177449   0.455   1.953  16.179  1.0261  0.6373  0.0915
18678TIP3    H277450   0.556   1.996  16.283  0.9303 -0.4975  0.6760
18679TIP3   OH277451   1.051   2.383  12.484 -0.0516 -0.0384  0.0312
18679TIP3    H177452   1.126   2.428  12.521  0.7446 -1.5881  0.3785
18679TIP3    H277453   1.028   2.316  12.549 -1.2065 -0.1391 -0.4497
18680TIP3   OH277454   2.330   3.064  15.805  0.1489  0.0694  0.7799
18680TIP3    H177455   2.296   2.979  15.778  0.8666  0.7005 -2.4952
18680TIP3    H277456   2.403   3.044  15.863  0.0463 -1.5240  0.3790
18681TIP3   OH277457   6.264   1.540   2.670  0.2141  0.4393  0.4670
18681TIP3    H177458   6.357   1.564   2.680 -0.3859  3.0357  0.4883
18681TIP3    H277459   6.238   1.510   2.757  0.5446  1.7635  1.0588
18682TIP3   OH277460   4.143   3.232   6.603  0.1554  0.5691 -0.0349
18682TIP3    H177461   4.176   3.154   6.648  1.0368 -0.2377 -1.9658
18682TIP3    H277462   4.167   3.305   6.660  2.0819 -0.3180  0.3703
18683TIP3   OH277463   4.371   2.436  13.076  0.9431  0.7251  0.1000
18683TIP3    H177464   4.318   2.382  13.134  0.9568  1.1164  0.4742
18683TIP3    H277465   4.321   2.516  13.065  1.5943  1.2263  0.7048
18684TIP3   OH277466   2.761   5.704   6.438  0.0269 -0.5929  0.7792
18684TIP3    H177467   2.797   5.723   6.524 -1.6561  0.6153  1.2610
18684TIP3    H277468   2.666   5.697   6.452 -0.5881  1.8860 -1.2523
18685TIP3   OH277469   1.726   3.436  11.891  0.2339  0.1408 -0.2374
18685TIP3    H177470   1.796   3.501  11.884  3.1963 -2.6056  1.5039
18685TIP3    H277471   1.702   3.436  11.984  0.8965 -1.7399 -0.0254
18686TIP3   OH277472   1.837   0.913  11.840  0.2632 -0.1097 -0.2728
18686TIP3    H177473   1.882   0.848  11.787  1.2707  1.4097 -1.3676
18686TIP3    H277474   1.797   0.972  11.777 -0.2928  0.5675  0.6795
18687TIP3   OH277475   4.656   0.999  13.940  0.2718 -0.5405  0.1412
18687TIP3    H177476   4.719   1.072  13.939 -0.4616  0.1086  0.4446
18687TIP3    H277477   4.592   1.021  13.873  0.5487 -1.3776 -0.4113
18688TIP3   OH277478   0.234   1.563   1.057  0.5140  0.0764 -0.1313
18688TIP3    H177479   0.259   1.476   1.026  1.1781  0.2866 -0.2008
18688TIP3    H277480   0.314   1.601   1.093 -0.1141  0.0222  1.4563
18689TIP3   OH277481   2.800   1.948   4.697  0.3876  0.1334  0.2903
18689TIP3    H177482   2.874   1.915   4.647  0.6137 -1.1487  1.4204
18689TIP3    H277483   2.838   1.979   4.780 -0.3570 -0.8577  1.0230
18690TIP3   OH277484   5.493   5.141  14.314  0.2912  1.1507  0.1800
18690TIP3    H177485   5.406   5.102  14.306  1.3147 -1.0487 -1.2964
18690TIP3    H277486   5.505   5.190  14.232  1.2167 -0.4128 -0.6785
18691TIP3   OH277487   2.799   5.001   4.367 -0.1898 -0.1659  0.3080
18691TIP3    H177488   2.762   4.954   4.441  0.1957 -1.1544 -0.1137
18691TIP3    H277489   2.825   4.933   4.305  0.5655  0.5882 -0.2340
18692TIP3   OH277490   4.969   0.795  14.007  0.1889  0.1098 -0.3647
18692TIP3    H177491   4.993   0.869  14.062 -1.9743 -0.5390  1.6001
18692TIP3    H277492   5.022   0.722  14.039 -0.7816 -0.1720  0.6429
18693TIP3   OH277493   4.566   6.172  12.782  0.1381 -0.2978 -0.0846
18693TIP3    H177494   4.532   6.088  12.814  2.1000 -0.4594  1.8003
18693TIP3    H277495   4.499   6.236  12.806 -0.7880 -1.1267 -0.3805
18694TIP3   OH277496   1.841   5.175  16.742 -0.4707 -0.6755  0.4190
18694TIP3    H177497   1.902   5.233  16.787 -0.1878 -1.0857  0.5728
18694TIP3    H277498   1.800   5.229  16.675 -1.6432  0.2304  1.8166
18695TIP3   OH277499   5.150   5.627   2.651  0.1112 -0.1044 -0.4572
18695TIP3    H177500   5.218   5.679   2.608 -0.3865  1.1289  0.1780
18695TIP3    H277501   5.172   5.632   2.744 -0.3879 -0.3848 -0.3227
18696TIP3   OH277502   6.671   3.824   4.072 -0.0537 -0.2076 -0.1344
18696TIP3    H177503   6.710   3.895   4.020 -1.5939 -0.4719 -1.7099
18696TIP3    H277504   6.578   3.845   4.076 -0.1007 -0.6421  1.8690
18697TIP3   OH277505   3.686   3.618  14.129  0.3413  0.5076  0.0495
18697TIP3    H177506   3.703   3.528  14.102  0.0505  0.9134 -1.6198
18697TIP3    H277507   3.616   3.610  14.194 -1.2671 -0.3776 -1.6769
18698TIP3   OH277508   0.557   2.189   2.097 -0.4477 -0.0776 -0.2429
18698TIP3    H177509   0.620   2.207   2.167  0.1937  0.0845 -0.8499
18698TIP3    H277510   0.487   2.139   2.140  0.1349 -0.3362  0.4229
18699TIP3   OH277511   0.119   2.053  17.058 -0.2567 -0.0048 -0.1476
18699TIP3    H177512   0.199   2.068  17.108 -0.7244  0.3246  0.5101
18699TIP3    H277513   0.076   2.138  17.056 -0.5951 -0.1865 -0.4893
18700TIP3   OH277514   6.294   5.877   2.096  0.6182  0.5502  0.0826
18700TIP3    H177515   6.285   5.782   2.085  0.6655  0.7600 -2.1541
18700TIP3    H277516   6.314   5.909   2.009 -0.7893  2.8033  0.5202
18701TIP3   OH277517   2.769   4.862  11.683 -0.2085 -0.2345 -0.7119
18701TIP3    H177518   2.791   4.940  11.735  1.7960 -0.4570 -1.1386
18701TIP3    H277519   2.701   4.817  11.733  0.5737  0.3581  0.9239
18702TIP3   OH277520   2.336   1.303   2.799  0.1055  0.8501  0.3406
18702TIP3    H177521   2.272   1.239   2.830  1.1625 -1.0951 -1.2234
18702TIP3    H277522   2.291   1.352   2.731  0.2268 -0.5084 -0.7518
18703TIP3   OH277523   4.058   0.792   0.552  0.4922  0.8071  0.6827
18703TIP3    H177524   4.081   0.749   0.634  0.4840 -1.2662 -0.3324
18703TIP3    H277525   4.124   0.763   0.490 -1.0728  0.0258 -0.7004
18704TIP3   OH277526   1.224   2.439   3.829 -0.7908  0.3536  0.0117
18704TIP3    H177527   1.159   2.453   3.898 -1.5976 -0.3291 -0.5868
18704TIP3    H277528   1.219   2.518   3.775 -1.2565  0.2296 -0.1318
18705TIP3   OH277529   3.605   2.540   1.268  0.1553  0.3700 -0.3135
18705TIP3    H177530   3.537   2.473   1.266 -1.1227  1.6300 -0.6384
18705TIP3    H277531   3.680   2.500   1.224 -1.3595 -0.0334 -2.7274
18706TIP3   OH277532   3.378   1.700  15.791  0.4975 -0.1129 -0.0603
18706TIP3    H177533   3.459   1.684  15.744  1.0243  1.1634  0.3897
18706TIP3    H277534   3.357   1.792  15.774 -0.7709 -0.3781 -0.0444
18707TIP3   OH277535   4.113   5.395   2.689 -0.6828 -0.1699 -0.1755
18707TIP3    H177536   4.071   5.354   2.765 -0.6932  1.9205  1.0068
18707TIP3    H277537   4.052   5.378   2.617 -1.8475 -0.1642  0.7805
18708TIP3   OH277538   2.025   0.220   1.156  0.4334 -0.1998 -0.4109
18708TIP3    H177539   2.055   0.257   1.073  0.3669  0.3137 -0.2072
18708TIP3    H277540   1.960   0.282   1.188 -0.2593 -0.8904 -0.4497
18709TIP3   OH277541   5.715   2.810   5.151  0.1110 -0.6774  0.2029
18709TIP3    H177542   5.644   2.790   5.211 -0.6860  0.1083 -0.4438
18709TIP3    H277543   5.708   2.904   5.136  0.9726 -0.6755 -0.2748
18710TIP3   OH277544   0.991   2.820  11.003  0.2067  0.0258 -0.1781
18710TIP3    H177545   1.076   2.830  11.045  0.0218 -1.6973  0.6722
18710TIP3    H277546   0.937   2.773  11.066 -1.5441  1.4148 -0.5260
18711TIP3   OH277547   4.560   1.826   4.616 -0.4351 -1.4721  0.0776
18711TIP3    H177548   4.472   1.818   4.654 -0.4494 -0.8380  0.1822
18711TIP3    H277549   4.544   1.853   4.525 -0.3373 -0.8296  0.2461
18712TIP3   OH277550   5.320   2.773  14.655  0.3267 -0.3771  0.5951
18712TIP3    H177551   5.350   2.762  14.745  0.5831  0.5204  0.6220
18712TIP3    H277552   5.400   2.767  14.602  0.4181  0.8616  0.5767
18713TIP3   OH277553   2.744   6.398  12.253 -0.3276  0.2245  0.4026
18713TIP3    H177554   2.691   6.386  12.332 -1.8365 -3.0740 -0.9480
18713TIP3    H277555   2.686   6.442  12.191 -0.5112 -0.7211 -0.1123
18714TIP3   OH277556   0.007   2.455   5.136  0.5064 -0.3003  0.5795
18714TIP3    H177557  -0.000   2.371   5.092  1.9381  0.3267 -0.9831
18714TIP3    H277558  -0.069   2.459   5.194 -0.6789 -1.7957 -0.7905
18715TIP3   OH277559   3.312   1.522  14.948  0.6838 -0.3051  0.8011
18715TIP3    H177560   3.300   1.578  14.872  1.3575 -1.1190  0.0794
18715TIP3    H277561   3.359   1.446  14.915 -0.9481 -1.7274  1.5754
18716TIP3   OH277562   0.432   5.429  13.025 -0.3539  0.7396 -0.2737
18716TIP3    H177563   0.493   5.479  12.970  1.8073 -1.7218 -0.3343
18716TIP3    H277564   0.367   5.396  12.963  0.8041 -0.1912 -1.0542
18717TIP3   OH277565   5.099   5.259  14.541 -0.0457 -0.3528 -0.3776
18717TIP3    H177566   5.185   5.249  14.499  0.2476  1.1635 -0.1903
18717TIP3    H277567   5.108   5.213  14.624  1.6190  2.1712  0.9747
18718TIP3   OH277568   6.230   6.028  14.530 -0.4516 -0.1547 -0.4999
18718TIP3    H177569   6.316   6.040  14.489 -1.0995  1.0267 -1.5761
18718TIP3    H277570   6.219   6.106  14.585 -0.9005 -0.2282 -0.4844
18719TIP3   OH277571   1.855   4.880  13.322  0.1207  0.1919  0.2145
18719TIP3    H177572   1.855   4.859  13.229 -2.0747  0.4155  0.1019
18719TIP3    H277573   1.885   4.971  13.326 -1.8091  0.9081 -0.5371
18720TIP3   OH277574   3.436   5.252  13.312 -0.8860 -0.6110  0.0237
18720TIP3    H177575   3.370   5.243  13.244 -2.4852 -3.0712  1.7224
18720TIP3    H277576   3.485   5.170  13.311  2.6275  1.2786 -1.4548
18721TIP3   OH277577   2.215   3.400   3.901  0.0030 -0.4315  0.3490
18721TIP3    H177578   2.180   3.483   3.869 -1.2188 -0.1962  2.1879
18721TIP3    H277579   2.190   3.336   3.833  0.4554  0.5733 -0.7952
18722TIP3   OH277580   1.433   3.982  14.888 -0.5296 -0.1554 -0.2301
18722TIP3    H177581   1.452   3.898  14.846  2.9728  0.3076  0.0717
18722TIP3    H277582   1.495   3.986  14.961 -1.3556  2.2507  0.4157
18723TIP3   OH277583   0.142   5.842  11.002 -0.2356 -0.3396 -0.0953
18723TIP3    H177584   0.060   5.798  11.023 -0.0144 -0.5442  0.3700
18723TIP3    H277585   0.122   5.935  11.011  0.0010 -0.4197  1.7260
18724TIP3   OH277586   3.005   3.358   1.373  0.3461 -0.5900 -0.4509
18724TIP3    H177587   3.017   3.310   1.455 -0.1235 -0.1206 -0.0995
18724TIP3    H277588   3.020   3.450   1.396 -1.0630 -0.2957 -0.5866
18725TIP3   OH277589   1.419   5.410   5.247 -0.5498  0.0697 -0.0245
18725TIP3    H177590   1.396   5.427   5.155 -1.1152  0.4895  0.1887
18725TIP3    H277591   1.418   5.497   5.288  2.3360  0.2706 -0.1818
18726TIP3   OH277592   1.174   3.335  11.240  0.5453 -0.0262  0.5211
18726TIP3    H177593   1.182   3.420  11.283 -0.0562  0.5336 -0.4418
18726TIP3    H277594   1.099   3.345  11.181  0.5284 -1.1970  0.3298
18727TIP3   OH277595   5.534   4.919  14.007  0.1957  0.0459 -0.2209
18727TIP3    H177596   5.578   5.003  14.001  1.3485 -0.4464  0.8249
18727TIP3    H277597   5.590   4.866  14.064  0.1092 -1.8049 -1.7298
18728TIP3   OH277598   0.743   1.216   0.369 -0.1866  0.5150  0.7367
18728TIP3    H177599   0.657   1.249   0.394 -0.4750 -0.3811  0.9562
18728TIP3    H277600   0.802   1.289   0.384 -0.6588  0.6226  2.1925
18729TIP3   OH277601   0.430   3.132   0.138  0.4403  0.0819 -0.1542
18729TIP3    H177602   0.422   3.152   0.231 -2.6022 -1.2594 -0.0186
18729TIP3    H277603   0.404   3.213   0.094 -0.1291  0.1116  0.2186
18730TIP3   OH277604   3.559   6.238   4.424 -0.9900 -0.2924 -0.4709
18730TIP3    H177605   3.626   6.286   4.375  1.7859 -0.9321  2.3509
18730TIP3    H277606   3.524   6.303   4.485 -0.8810 -0.6187 -0.0559
18731TIP3   OH277607   4.150   5.696   0.804 -0.0804 -0.0826  0.0059
18731TIP3    H177608   4.222   5.634   0.796  0.1273  0.2501 -0.8107
18731TIP3    H277609   4.071   5.645   0.784  0.0822 -0.1046 -0.5842
18732TIP3   OH277610   1.920   3.064   5.575 -0.0471  1.3411  0.0139
18732TIP3    H177611   1.917   3.086   5.668  1.1600  0.0792  0.3819
18732TIP3    H277612   1.994   3.114   5.541  0.6521  0.4522  0.1585
18733TIP3   OH277613   3.773   3.631  16.453 -0.2807  0.4037  0.3267
18733TIP3    H177614   3.757   3.639  16.547 -1.1902  0.7606  0.1517
18733TIP3    H277615   3.733   3.709  16.415 -0.3382  0.0248 -0.4030
18734TIP3   OH277616   0.254   6.102   3.400 -0.3342  0.0646 -0.0890
18734TIP3    H177617   0.216   6.072   3.317 -0.3651 -0.7774  0.2204
18734TIP3    H277618   0.182   6.094   3.463 -0.1352  0.1002  0.1456
18735TIP3   OH277619   5.354   1.222   5.115 -0.1672  0.3979 -0.0502
18735TIP3    H177620   5.324   1.291   5.056  2.3400  0.5035 -1.3734
18735TIP3    H277621   5.330   1.141   5.071 -0.9696  0.4297  0.3111
18736TIP3   OH277622   1.929   1.466  14.558 -0.1740  0.3838 -0.4539
18736TIP3    H177623   1.970   1.430  14.637 -0.1092  0.5176 -0.4269
18736TIP3    H277624   1.954   1.405  14.488  0.5134  0.7503 -0.5379
18737TIP3   OH277625   5.624   6.016   4.558  0.4281 -0.4994  0.5370
18737TIP3    H177626   5.533   6.038   4.536  0.0756  0.1454  2.4796
18737TIP3    H277627   5.672   6.028   4.476 -1.4257 -2.0910 -0.8818
18738TIP3   OH277628   1.338   5.288   2.743  0.2496  0.3111  0.3921
18738TIP3    H177629   1.315   5.359   2.803 -1.8995 -2.8693  3.7283
18738TIP3    H277630   1.254   5.252   2.716  1.2621 -1.3448 -0.6911
18739TIP3   OH277631   2.837   3.710   3.965 -0.0602  0.1916  0.0644
18739TIP3    H177632   2.788   3.662   3.898  1.1212 -0.5795 -0.2927
18739TIP3    H277633   2.787   3.698   4.045 -0.8337  0.0511 -0.4289
18740TIP3   OH277634   5.587   6.095   5.941  0.2602  0.5695  0.1556
18740TIP3    H177635   5.631   6.019   5.980  1.7055  0.6581 -1.2243
18740TIP3    H277636   5.494   6.076   5.950  0.5468 -2.2488 -1.7127
18741TIP3   OH277637   6.644   6.643  11.946  0.9583 -0.4793 -0.0014
18741TIP3    H177638   6.612   6.583  12.013  0.8308  0.2540  0.6099
18741TIP3    H277639   6.717   6.689  11.988 -0.2193  1.2319  0.2657
18742TIP3   OH277640   6.089   2.369  12.264  0.2922  0.4349  0.5176
18742TIP3    H177641   6.088   2.349  12.357 -0.8005 -1.2399  0.1879
18742TIP3    H277642   6.165   2.322  12.230  1.0406  1.5227  0.6250
18743TIP3   OH277643   0.715   1.676  13.864  0.0499 -0.2659  0.1482
18743TIP3    H177644   0.740   1.752  13.811 -0.9607 -0.8450 -1.2277
18743TIP3    H277645   0.752   1.694  13.950 -0.0886  1.7550 -0.1580
18744TIP3   OH277646   5.411   2.064  14.887  0.4851 -0.3414  0.0640
18744TIP3    H177647   5.353   2.101  14.953  1.7025  1.0546  0.4092
18744TIP3    H277648   5.424   2.134  14.824  0.0092 -1.3878 -1.2353
18745TIP3   OH277649   4.046   3.984  12.917  0.0961 -0.1310 -0.2354
18745TIP3    H177650   4.136   3.997  12.946  0.2069  0.6700 -0.9038
18745TIP3    H277651   3.993   4.011  12.991  0.4012 -0.2317  0.0223
18746TIP3   OH277652   2.498   3.758   4.167 -0.2059 -0.5969 -0.0944
18746TIP3    H177653   2.587   3.734   4.192  1.2954  2.1789 -2.1788
18746TIP3    H277654   2.466   3.683   4.117  0.1884 -2.3517  2.1362
18747TIP3   OH277655   0.517   5.640   4.128 -0.3171  0.7350  0.0711
18747TIP3    H177656   0.526   5.553   4.088  1.3478  0.3853  1.1095
18747TIP3    H277657   0.585   5.692   4.086 -1.3746  1.6138 -0.6185
18748TIP3   OH277658   5.041   6.305   6.449 -0.1810 -0.3655 -0.3971
18748TIP3    H177659   4.954   6.274   6.474 -0.0375  0.1844  0.8534
18748TIP3    H277660   5.095   6.288   6.526  0.3074  1.2814 -0.3489
18749TIP3   OH277661   4.924   0.017  16.512  0.0584 -0.3461  0.0133
18749TIP3    H177662   4.839  -0.003  16.549  0.7960 -1.2120  1.2982
18749TIP3    H277663   4.921  -0.019  16.423 -1.3043  0.6959 -0.3952
18750TIP3   OH277664   4.056   3.459   2.002 -0.0824  0.2874  0.1366
18750TIP3    H177665   3.977   3.489   1.959 -0.8819 -1.6278  0.1675
18750TIP3    H277666   4.128   3.493   1.949 -1.0107 -1.2405 -2.2612
18751TIP3   OH277667   5.966   0.322   0.725  0.2361  0.4275  0.1697
18751TIP3    H177668   5.928   0.377   0.794  0.4888 -0.5489  1.1022
18751TIP3    H277669   5.941   0.366   0.644  1.4514  2.6019  0.8870
18752TIP3   OH277670   3.752   4.664  11.969 -0.0127  0.1807  0.1041
18752TIP3    H177671   3.839   4.624  11.962 -0.2025 -0.1508 -0.4171
18752TIP3    H277672   3.714   4.653  11.882 -1.2684 -1.2763  0.7959
18753TIP3   OH277673   4.182   2.332  12.140  0.4960 -0.5921  0.1334
18753TIP3    H177674   4.092   2.337  12.108  0.9628 -0.1890 -1.1510
18753TIP3    H277675   4.176   2.276  12.218 -0.8844 -0.4411  0.1664
18754TIP3   OH277676   5.055   3.774   2.436 -0.1286 -0.0960  0.2339
18754TIP3    H177677   5.018   3.692   2.402  1.5083 -1.2181  1.0051
18754TIP3    H277678   5.030   3.841   2.372 -0.6669 -1.3775 -0.9418
18755TIP3   OH277679   6.359   6.408   0.475 -0.6213 -0.0803  0.5531
18755TIP3    H177680   6.392   6.495   0.450 -0.7816 -0.2755 -0.3799
18755TIP3    H277681   6.377   6.402   0.569  0.0337  0.6781  0.4930
18756TIP3   OH277682   1.720   5.783   2.173 -0.2348 -0.4090  0.4576
18756TIP3    H177683   1.760   5.864   2.141 -0.0465 -0.7166 -0.0850
18756TIP3    H277684   1.631   5.785   2.139 -0.6378  0.1748  1.4933
18757TIP3   OH277685   1.828   1.151  14.731  0.7410  0.8665  0.2815
18757TIP3    H177686   1.766   1.089  14.692  0.6823  0.9916  0.1741
18757TIP3    H277687   1.778   1.198  14.797  1.1056 -0.0562  1.2348
18758TIP3   OH277688   5.224   3.522  11.639 -0.0154 -0.3916  0.0628
18758TIP3    H177689   5.196   3.449  11.694 -0.3188  0.2125  0.7176
18758TIP3    H277690   5.270   3.480  11.566  3.9936 -1.1322  2.6990
18759TIP3   OH277691   5.853   3.753   5.427 -0.2009 -0.7324 -0.3339
18759TIP3    H177692   5.851   3.841   5.466  1.0126 -1.4326  1.4195
18759TIP3    H277693   5.765   3.741   5.391 -1.2100  0.2390  1.6387
18760TIP3   OH277694   0.364   0.934  16.882  0.1862 -0.0836 -0.3167
18760TIP3    H177695   0.422   0.857  16.877  0.4773  0.1900 -1.2364
18760TIP3    H277696   0.414   0.998  16.932  0.8582  0.2851 -1.4179
18761TIP3   OH277697   3.839   5.974  12.394 -0.1534 -0.0361 -0.3365
18761TIP3    H177698   3.768   5.962  12.330  0.2220  0.0974 -0.7890
18761TIP3    H277699   3.808   5.929  12.473 -0.9707  0.4735 -0.3519
18762TIP3   OH277700   0.968   5.790   4.606  0.3893  1.1229  0.6901
18762TIP3    H177701   0.906   5.752   4.544  0.5433  2.0044 -0.0341
18762TIP3    H277702   0.998   5.717   4.659 -1.1716  0.6538  0.9739
18763TIP3   OH277703   4.229   5.702   6.489 -0.0167  0.2896 -0.2837
18763TIP3    H177704   4.135   5.711   6.476 -0.1751 -0.2373  0.4743
18763TIP3    H277705   4.253   5.778   6.543  0.0088  0.4774 -0.5601
18764TIP3   OH277706   0.914   5.372  16.822 -0.7382  0.0660 -0.3459
18764TIP3    H177707   0.905   5.309  16.893 -0.9426  0.0737 -0.3644
18764TIP3    H277708   0.974   5.438  16.857 -0.7431  0.0069 -0.2247
18765TIP3   OH277709   4.728   3.308  15.881 -0.1179  0.4757  0.6137
18765TIP3    H177710   4.748   3.217  15.857  1.6395  0.9575  0.0690
18765TIP3    H277711   4.712   3.351  15.797  1.0594  1.0767  0.6725
18766TIP3   OH277712   5.620   4.713  13.149 -0.4600  0.1204 -0.0915
18766TIP3    H177713   5.711   4.741  13.160  0.0534 -0.1551 -2.8948
18766TIP3    H277714   5.620   4.661  13.069 -2.5315 -2.7736  1.5750
18767TIP3   OH277715   2.358   3.846   2.140 -0.1772 -0.4116 -0.7066
18767TIP3    H177716   2.330   3.776   2.081  0.2784 -1.8161  0.6834
18767TIP3    H277717   2.453   3.848   2.131 -0.2303  0.4642 -1.1773
18768TIP3   OH277718   2.891   2.570   2.895 -0.1930 -0.4505 -0.2272
18768TIP3    H177719   2.870   2.654   2.854 -0.8226 -1.0019 -1.0759
18768TIP3    H277720   2.903   2.590   2.987  2.4791  1.0740 -0.7842
18769TIP3   OH277721   1.280   0.196   6.801  0.4559 -0.0181  0.2972
18769TIP3    H177722   1.316   0.121   6.754 -1.5737  0.3058 -1.9354
18769TIP3    H277723   1.318   0.272   6.756  0.5207  0.3240  0.9131
18770TIP3   OH277724   5.733   3.509   1.425 -0.1824  0.0717  0.3247
18770TIP3    H177725   5.692   3.428   1.455  0.6401 -0.0019  1.2887
18770TIP3    H277726   5.802   3.526   1.489  1.6095 -0.0443 -1.4882
18771TIP3   OH277727   5.770   0.478  10.796 -0.0969  0.6374 -0.4527
18771TIP3    H177728   5.805   0.389  10.798  2.3083  1.5217 -0.2079
18771TIP3    H277729   5.725   0.484  10.712 -1.2590 -1.0934 -0.0308
18772TIP3   OH277730   6.193   5.535  14.650  0.0856  0.2220  0.6732
18772TIP3    H177731   6.266   5.511  14.593 -0.6150  1.6369 -0.8922
18772TIP3    H277732   6.236   5.567  14.730  1.1337 -0.1033  0.2657
18773TIP3   OH277733   4.441   2.408   5.570 -0.0098  0.2781  0.1997
18773TIP3    H177734   4.374   2.440   5.510 -0.8011 -0.9800  0.3718
18773TIP3    H277735   4.482   2.334   5.523 -0.4193 -0.5164  1.0544
18774TIP3   OH277736   0.995   2.178  17.089  0.3007 -0.5024 -0.2608
18774TIP3    H177737   1.057   2.233  17.136 -0.8140 -0.4513  1.2436
18774TIP3    H277738   0.946   2.238  17.033 -0.4464 -0.0376  0.8623
18775TIP3   OH277739   0.955   4.141  13.348 -0.4087 -0.2550 -0.4012
18775TIP3    H177740   1.022   4.198  13.312  0.1651 -1.4285 -1.2605
18775TIP3    H277741   0.872   4.177  13.315 -0.0520  0.0346 -0.9982
18776TIP3   OH277742   1.355   6.635   0.762  0.1850  0.0962 -0.2247
18776TIP3    H177743   1.354   6.582   0.681  1.6321 -1.2525  0.5772
18776TIP3    H277744   1.431   6.692   0.752 -0.8492  1.4517 -0.6846
18777TIP3   OH277745   0.059   2.918  17.064 -0.5404 -0.6098 -0.2480
18777TIP3    H177746   0.136   2.865  17.044 -0.7163 -0.7978 -0.4392
18777TIP3    H277747   0.044   2.905  17.158  0.4219  0.4505  0.0702
18778TIP3   OH277748   0.345   4.794  11.288  0.9919  0.0302 -0.0176
18778TIP3    H177749   0.408   4.809  11.359  1.1804 -0.1565 -0.1432
18778TIP3    H277750   0.287   4.726  11.322  0.1396  1.0098  0.5518
18779TIP3   OH277751   1.547   6.023   0.986  0.2777 -0.6814 -0.5306
18779TIP3    H177752   1.556   6.113   1.016  0.1951 -1.0416  0.6493
18779TIP3    H277753   1.514   5.976   1.063 -2.0418 -1.2808 -1.7925
18780TIP3   OH277754   4.883   2.222   5.798 -0.4609 -0.3691  0.7071
18780TIP3    H177755   4.960   2.240   5.853 -0.0275  0.8805 -0.2637
18780TIP3    H277756   4.888   2.128   5.780  0.8672 -0.3034  0.6239
18781TIP3   OH277757   0.903   2.679   4.217 -0.5471  0.0757  0.3096
18781TIP3    H177758   0.860   2.595   4.234 -0.5970 -0.1405 -0.8007
18781TIP3    H277759   0.995   2.663   4.235 -0.6490 -0.0378  0.7303
18782TIP3   OH277760   0.530   0.410  14.838  0.2308  0.1756 -0.3914
18782TIP3    H177761   0.518   0.371  14.752 -0.7446 -0.9942  0.2350
18782TIP3    H277762   0.442   0.438  14.864  0.3753 -0.2218  0.5515
18783TIP3   OH277763   4.590   4.323  14.221 -0.0042  0.6325 -0.7147
18783TIP3    H177764   4.679   4.354  14.204 -0.1790  1.3978 -0.2917
18783TIP3    H277765   4.598   4.269  14.300  0.4383 -1.1260 -1.9064
18784TIP3   OH277766   1.248   0.135   0.225  0.4207 -0.4198 -0.0964
18784TIP3    H177767   1.343   0.124   0.231  0.5549  0.1104 -1.1994
18784TIP3    H277768   1.233   0.226   0.250  0.0611 -0.8237  1.2734
18785TIP3   OH277769   2.581   4.565  12.000 -0.0659  0.7629  1.1740
18785TIP3    H177770   2.591   4.519  12.084 -1.4900 -2.1781 -0.1349
18785TIP3    H277771   2.488   4.588  11.997 -0.5248 -1.0984 -0.4515
18786TIP3   OH277772   5.300   1.617   4.182  0.7110 -0.7294 -0.5175
18786TIP3    H177773   5.384   1.572   4.192  0.6848 -0.9751 -1.3152
18786TIP3    H277774   5.270   1.592   4.095  0.7964  0.9970 -1.0822
18787TIP3   OH277775   6.647   4.003  11.677  0.2782 -0.1607 -0.1665
18787TIP3    H177776   6.561   3.963  11.667 -0.2178  0.3731  1.7247
18787TIP3    H277777   6.698   3.967  11.604 -0.8319 -2.3211  0.0552
18788TIP3   OH277778   0.103   6.701   6.273 -0.7731  0.4372 -0.2192
18788TIP3    H177779   0.019   6.659   6.289 -1.6943  2.4376  0.5534
18788TIP3    H277780   0.142   6.710   6.360 -2.0672  3.9212  0.1686
18789TIP3   OH277781   0.959   0.842   3.025 -0.4791 -0.0953  0.6584
18789TIP3    H177782   0.875   0.797   3.026 -0.5256 -0.0059  0.7836
18789TIP3    H277783   0.957   0.895   2.945 -0.1692 -0.7973  0.1778
18790TIP3   OH277784   4.406   4.998   4.807  0.4633 -0.4195 -0.6249
18790TIP3    H177785   4.360   4.999   4.723  0.6148  0.6356 -0.7083
18790TIP3    H277786   4.345   4.954   4.867 -0.5649  0.7091 -0.8004
18791TIP3   OH277787   6.248   4.550   3.832 -0.1792  0.3162  0.0538
18791TIP3    H177788   6.327   4.603   3.847 -0.4718  1.2200 -1.4747
18791TIP3    H277789   6.277   4.460   3.851  0.7876  0.7973  1.0159
18792TIP3   OH277790   0.118   2.420   2.866 -0.5670 -0.2960 -0.1104
18792TIP3    H177791   0.115   2.407   2.960 -0.0880 -0.2093 -0.0808
18792TIP3    H277792   0.129   2.332   2.830  1.5203 -0.1531  0.0353
18793TIP3   OH277793   5.540   6.503  11.675 -0.0533 -0.1611 -0.0220
18793TIP3    H177794   5.569   6.586  11.638 -0.1807 -0.9766 -2.1305
18793TIP3    H277795   5.610   6.441  11.655 -1.0283 -1.0797 -0.7569
18794TIP3   OH277796   5.992   4.691   2.120 -0.4965 -0.4059  0.4882
18794TIP3    H177797   6.005   4.749   2.044 -2.1767 -1.7571 -0.9339
18794TIP3    H277798   5.936   4.742   2.179  0.1085  0.3422  0.4361
18795TIP3   OH277799   2.848   4.542  11.872 -0.3593  0.2961 -0.2193
18795TIP3    H177800   2.780   4.567  11.935 -0.5854  1.0719 -0.7680
18795TIP3    H277801   2.805   4.548  11.787 -0.6381 -2.5471 -0.3969
18796TIP3   OH277802   6.179   0.688   0.696  0.6969  0.7090  0.0345
18796TIP3    H177803   6.213   0.765   0.741  0.6607  0.3222  0.7508
18796TIP3    H277804   6.161   0.625   0.767  0.8057  0.0144 -0.5423
18797TIP3   OH277805   0.124   5.255  12.473  0.1473  0.3794 -0.0656
18797TIP3    H177806   0.170   5.232  12.392  0.1324 -1.1852  0.3406
18797TIP3    H277807   0.035   5.278  12.444  0.4836  1.0469 -0.6037
18798TIP3   OH277808   1.830   5.994   2.046  0.1630  0.4518  0.0650
18798TIP3    H177809   1.841   5.990   1.951 -0.0027  1.3464 -0.0028
18798TIP3    H277810   1.917   6.016   2.080 -0.1631  2.0763 -0.0499
18799TIP3   OH277811   6.395   2.795   6.338 -0.4727  0.0379  0.1794
18799TIP3    H177812   6.328   2.845   6.385  2.0577  1.4286  2.5900
18799TIP3    H277813   6.413   2.720   6.395 -0.3339 -0.6293 -0.7217
18800TIP3   OH277814   6.754   5.052  14.228  0.2555  0.1326 -0.6764
18800TIP3    H177815   6.810   5.115  14.273  0.2132 -0.9198  0.9193
18800TIP3    H277816   6.795   4.967  14.243 -2.1901 -0.8209  1.4404
18801TIP3   OH277817   1.462   0.436   0.602  0.1881  0.4109 -0.4072
18801TIP3    H177818   1.386   0.482   0.566 -1.4135 -1.7829 -0.0496
18801TIP3    H277819   1.494   0.494   0.671 -1.5873  1.1413 -0.1397
18802TIP3   OH277820   5.055   1.889   2.498 -0.2939  0.3362  0.3297
18802TIP3    H177821   5.087   1.900   2.587 -0.9420  1.3357  0.4576
18802TIP3    H277822   5.128   1.852   2.450  1.1553  2.6890  0.5603
18803TIP3   OH277823   3.534   5.389  15.787  0.3109  0.2309  0.7794
18803TIP3    H177824   3.490   5.411  15.705 -0.8444  0.2443  1.3832
18803TIP3    H277825   3.617   5.350  15.760 -0.0074  0.3275 -0.3895
18804TIP3   OH277826   3.761   2.304  13.310  0.4459 -0.9268 -0.1009
18804TIP3    H177827   3.738   2.396  13.309  1.9492 -0.4997  0.9621
18804TIP3    H277828   3.810   2.290  13.230  0.6126 -0.6928 -0.0381
18805TIP3   OH277829   4.715   3.444   1.988  0.2216 -0.0495  0.0906
18805TIP3    H177830   4.671   3.437   1.904  0.1188 -0.8101  0.2089
18805TIP3    H277831   4.773   3.368   1.992  0.8560  0.4304  0.3444
18806TIP3   OH277832   3.681   0.144   3.452  0.3582  0.3133 -0.0168
18806TIP3    H177833   3.603   0.105   3.413  1.1230 -0.9153 -0.3561
18806TIP3    H277834   3.715   0.203   3.385 -1.4205  2.5207  0.9027
18807TIP3   OH277835   5.065   0.484   3.335  0.4257 -0.0354  0.2764
18807TIP3    H177836   5.141   0.530   3.300  1.2595  0.4923  2.6018
18807TIP3    H277837   5.028   0.437   3.260  1.4602  1.8017 -1.4759
18808TIP3   OH277838   6.223   4.357   3.050  0.1318  0.0357 -0.0878
18808TIP3    H177839   6.209   4.425   3.116  1.3736  0.4194 -0.1948
18808TIP3    H277840   6.317   4.344   3.049 -0.0697 -1.6477 -0.1352
18809TIP3   OH277841   6.104   4.979  11.946  0.3827  0.1624  0.0122
18809TIP3    H177842   6.009   4.990  11.948  0.3529 -0.1694  0.6717
18809TIP3    H277843   6.132   5.023  11.865  0.0698  3.1333  1.3921
18810TIP3   OH277844   0.899   4.937  15.061 -0.2998  0.6894  0.0036
18810TIP3    H177845   0.859   4.970  14.981 -0.1204 -0.0748 -0.4110
18810TIP3    H277846   0.972   4.883  15.031 -0.2093  0.4277  0.6813
18811TIP3   OH277847   3.996   4.185  15.643 -0.9400 -0.1284  0.3246
18811TIP3    H177848   4.018   4.124  15.714  1.1772  0.4166  0.2031
18811TIP3    H277849   4.075   4.189  15.590 -2.1085  0.3606 -1.4468
18812TIP3   OH277850   0.491   5.591   6.343 -0.8020 -0.1708 -0.3151
18812TIP3    H177851   0.577   5.568   6.378 -0.0813  0.7079 -1.4286
18812TIP3    H277852   0.434   5.518   6.368  0.6283 -1.5458 -0.9154
18813TIP3   OH277853   1.484   3.223  12.622  0.3900  0.5077 -0.2952
18813TIP3    H177854   1.459   3.315  12.629 -2.9303 -0.2919  0.3703
18813TIP3    H277855   1.406   3.175  12.652  2.0756 -2.5235 -0.3829
18814TIP3   OH277856   1.616   2.326  15.515  0.4219 -0.2221  0.1144
18814TIP3    H177857   1.629   2.420  15.508  0.3108 -0.3013 -1.6014
18814TIP3    H277858   1.670   2.289  15.446  0.1645 -1.3924  0.5165
18815TIP3   OH277859   2.582   4.131  17.043 -0.1621  0.1941 -0.0144
18815TIP3    H177860   2.634   4.051  17.046  0.8086  0.8395  0.7732
18815TIP3    H277861   2.558   4.140  16.950  0.8160 -0.3178 -0.3319
18816TIP3   OH277862   5.400   0.313  16.435  0.2545 -0.2027  0.6116
18816TIP3    H177863   5.461   0.256  16.480  0.1661 -1.4815 -0.8076
18816TIP3    H277864   5.315   0.293  16.473  0.4025 -0.0741  1.0096
18817TIP3   OH277865   1.126   5.542  14.267  0.2763 -0.2368  0.0455
18817TIP3    H177866   1.110   5.616  14.324  0.0111  0.1835 -0.5675
18817TIP3    H277867   1.053   5.482  14.283 -0.1511  0.1799 -0.3359
18818TIP3   OH277868   4.717   6.501   3.900  0.2166  0.2664  0.2576
18818TIP3    H177869   4.702   6.409   3.923 -0.1381 -0.0619 -1.1817
18818TIP3    H277870   4.631   6.542   3.910 -0.0422  0.0184 -0.9144
18819TIP3   OH277871   6.242   4.225  10.741 -0.1221  0.7313 -0.0781
18819TIP3    H177872   6.181   4.192  10.675  0.9320 -2.0064  0.1952
18819TIP3    H277873   6.289   4.296  10.697 -0.6734  0.1464 -1.6684
18820TIP3   OH277874   2.136   3.672   2.292  0.6098 -0.1605 -0.3951
18820TIP3    H177875   2.100   3.757   2.315 -0.8367 -1.0870  0.9016
18820TIP3    H277876   2.094   3.650   2.209 -0.5017 -0.4484  0.2315
18821TIP3   OH277877   0.109   4.606  11.021  0.3296 -0.0382 -0.2788
18821TIP3    H177878   0.101   4.568  10.934  2.4176 -1.3924  0.0468
18821TIP3    H277879   0.203   4.626  11.030  0.2149 -0.2317  1.7648
18822TIP3   OH277880   0.744   2.624  16.276 -0.4696 -0.6357 -0.6288
18822TIP3    H177881   0.699   2.613  16.192  1.9021 -1.0256 -1.9577
18822TIP3    H277882   0.692   2.573  16.338 -2.1636 -0.5471 -1.9049
18823TIP3   OH277883   3.386   1.177  16.686 -0.0597 -0.2521  0.2506
18823TIP3    H177884   3.437   1.230  16.748  0.7259 -2.1327  1.2730
18823TIP3    H277885   3.323   1.239  16.649 -1.0037  0.8968  3.3824
18824TIP3   OH277886   0.224   0.037  16.745  0.0573  0.5579  0.0320
18824TIP3    H177887   0.169   0.040  16.666  0.5708 -1.4974 -0.4825
18824TIP3    H277888   0.164   0.012  16.815  0.1818 -1.1280 -0.4246
18825TIP3   OH277889   2.027   5.739  13.099 -0.1643 -0.0829 -0.2346
18825TIP3    H177890   2.037   5.657  13.050  1.0352 -0.6335  0.8475
18825TIP3    H277891   2.056   5.717  13.187  1.3252  1.7833 -0.1922
18826TIP3   OH277892   4.920   4.876  13.435 -0.1950  0.5145  0.0983
18826TIP3    H177893   4.977   4.928  13.492 -0.8142  1.3610 -0.0432
18826TIP3    H277894   4.973   4.858  13.357  0.8603 -1.1244  1.1250
18827TIP3   OH277895   1.081   1.776   1.535  0.0235  0.1669  0.2452
18827TIP3    H177896   1.125   1.856   1.562  0.5197 -0.1593  0.4142
18827TIP3    H277897   1.092   1.716   1.609 -1.1592  0.2502  0.5142
18828TIP3   OH277898   5.209   6.545  13.458 -0.1551 -0.9594 -0.1393
18828TIP3    H177899   5.274   6.490  13.413 -0.4747 -1.2389 -0.2644
18828TIP3    H277900   5.150   6.483  13.500  1.4097 -0.7669  2.6349
18829TIP3   OH277901   6.417   2.474  12.268 -0.3764  0.1783  0.2182
18829TIP3    H177902   6.353   2.542  12.246  0.3583  0.3199 -1.7563
18829TIP3    H277903   6.493   2.495  12.213  0.2417 -1.6607  0.3077
18830TIP3   OH277904   4.787   5.530  13.727 -0.0366 -0.2130 -0.0236
18830TIP3    H177905   4.739   5.582  13.662  0.0759  0.1974  0.2155
18830TIP3    H277906   4.832   5.595  13.780  0.5417 -0.5847 -0.0559
18831TIP3   OH277907   2.376   5.386   1.913 -0.3652  0.2116 -0.2914
18831TIP3    H177908   2.284   5.361   1.923 -0.5958  1.7257  2.0773
18831TIP3    H277909   2.374   5.464   1.858 -0.4304  0.0067 -0.5858
18832TIP3   OH277910   0.178   6.778  11.811 -0.2177  0.0920  0.0334
18832TIP3    H177911   0.236   6.854  11.811 -1.4254  1.0504 -0.8081
18832TIP3    H277912   0.224   6.713  11.865  1.7680  0.6698 -0.8638
18833TIP3   OH277913   6.117   0.402  15.066  0.4968 -0.1902  0.3412
18833TIP3    H177914   6.180   0.349  15.017  1.3907 -0.2534  1.5205
18833TIP3    H277915   6.062   0.442  14.999  3.0691  1.5517 -0.9120
18834TIP3   OH277916   6.446   4.172  16.072 -0.3465 -0.4601 -0.0985
18834TIP3    H177917   6.465   4.084  16.040  1.1906  0.1434 -0.9391
18834TIP3    H277918   6.516   4.226  16.036 -0.9570  1.0181  0.8545
18835TIP3   OH277919   4.333   1.651  16.911  0.2428  0.0921 -0.1176
18835TIP3    H177920   4.285   1.734  16.900 -0.9007 -0.4562  0.5597
18835TIP3    H277921   4.411   1.676  16.961 -0.6361  0.6022  1.0405
18836TIP3   OH277922   4.625   0.074   5.848 -1.0899 -0.0916  0.6413
18836TIP3    H177923   4.671   0.042   5.926  0.8415 -1.0999 -0.8179
18836TIP3    H277924   4.694   0.109   5.792 -2.6018  2.0141 -0.0278
18837TIP3   OH277925   2.927   0.889  13.112  0.2237  0.4765 -0.1385
18837TIP3    H177926   2.895   0.907  13.023 -0.7363 -1.1506 -0.1653
18837TIP3    H277927   2.978   0.809  13.103  0.5478  0.5790  0.7053
18838TIP3   OH277928   0.181   5.344  13.458 -0.2087  0.1757 -0.1582
18838TIP3    H177929   0.222   5.311  13.378  0.9675 -0.3327  0.6252
18838TIP3    H277930   0.220   5.431  13.471 -0.5660  0.3525 -0.2496
18839TIP3   OH277931   5.370   5.140   5.503  0.7709  0.0742  0.3357
18839TIP3    H177932   5.410   5.054   5.516 -0.6136 -0.7547 -0.6357
18839TIP3    H277933   5.277   5.125   5.515  0.5014  1.4295  0.0475
18840TIP3   OH277934   2.066   6.407  13.801  0.7018  0.3331  0.2415
18840TIP3    H177935   2.009   6.477  13.769  0.0640 -0.2602  0.0547
18840TIP3    H277936   2.087   6.356  13.723  2.6741  1.3362  0.0344
18841TIP3   OH277937   3.656   3.457   3.756 -0.5077 -0.4880  0.1889
18841TIP3    H177938   3.721   3.430   3.820 -1.5928 -5.0805 -0.2632
18841TIP3    H277939   3.700   3.448   3.671 -0.7256 -0.1071  0.0288
18842TIP3   OH277940   4.758   0.131   3.978 -0.2821  0.1765  0.0897
18842TIP3    H177941   4.849   0.114   3.951  0.2866  2.7206  0.1855
18842TIP3    H277942   4.763   0.139   4.073 -0.4431  1.1844  0.0150
18843TIP3   OH277943   6.110   1.543   4.106 -0.3409 -0.0812 -0.1356
18843TIP3    H177944   6.150   1.596   4.038 -1.5177 -0.1502 -0.9101
18843TIP3    H277945   6.178   1.480   4.130 -0.4521 -1.1876 -2.4774
18844TIP3   OH277946   5.494   3.787  13.430 -0.2376 -0.2827  0.0916
18844TIP3    H177947   5.569   3.833  13.470 -0.2394 -0.1249 -0.0892
18844TIP3    H277948   5.420   3.845  13.444 -0.3728 -0.5411  0.4714
18845TIP3   OH277949   2.968   0.814  11.106 -0.6736 -0.3809  0.4237
18845TIP3    H177950   2.893   0.770  11.067 -1.8395  0.5114  1.5878
18845TIP3    H277951   3.023   0.839  11.031 -2.3563  0.4157 -0.5987
18846TIP3   OH277952   3.218   5.822  13.348  0.4004  0.2194 -0.1647
18846TIP3    H177953   3.241   5.771  13.426  1.7376  0.5451 -0.3399
18846TIP3    H277954   3.283   5.798  13.283 -0.9432 -0.3690 -1.3611
18847TIP3   OH277955   0.808   4.872   4.027 -0.5278  0.4899 -0.3097
18847TIP3    H177956   0.770   4.906   4.108 -0.5340 -1.4073  0.5522
18847TIP3    H277957   0.898   4.850   4.050 -0.9053 -1.3007 -0.3962
18848TIP3   OH277958   6.273   4.596   0.352  0.0659 -0.0794  0.1677
18848TIP3    H177959   6.368   4.588   0.341  0.0419 -1.8595  0.9371
18848TIP3    H277960   6.263   4.638   0.438  0.1484  0.0899  0.0956
18849TIP3   OH277961   6.007   1.165  12.346 -0.2418  0.1772 -0.4927
18849TIP3    H177962   5.955   1.245  12.334 -1.5131 -0.7962 -1.7497
18849TIP3    H277963   6.084   1.179  12.291  1.2020  1.8412  1.7615
18850TIP3   OH277964   3.332   6.695  12.885 -0.2901  0.4127  0.2462
18850TIP3    H177965   3.247   6.712  12.926 -1.3731  0.8920 -2.0924
18850TIP3    H277966   3.323   6.608  12.848 -1.0524  1.7191 -2.9086
18851TIP3   OH277967   0.850   6.030  12.615 -0.0124  0.0077  0.0564
18851TIP3    H177968   0.933   5.984  12.598  0.3504  1.0520 -1.1761
18851TIP3    H277969   0.877   6.116  12.649 -0.5506  0.6106 -0.9979
18852TIP3   OH277970   6.382   1.579  10.976 -0.4717  0.0725  0.0800
18852TIP3    H177971   6.462   1.530  10.991 -0.6294 -0.6807 -1.3342
18852TIP3    H277972   6.371   1.632  11.054  0.5186 -1.0369  1.0081
18853TIP3   OH277973   6.630   5.867  11.998 -0.0147 -0.1220  0.1167
18853TIP3    H177974   6.617   5.932  11.929 -3.0117 -1.6739 -0.9803
18853TIP3    H277975   6.619   5.916  12.079  0.7014  1.2280 -0.5706
18854TIP3   OH277976   5.246   2.251   5.221 -0.0718 -0.5724 -0.1786
18854TIP3    H177977   5.292   2.288   5.146  1.0312 -0.1192  0.6928
18854TIP3    H277978   5.194   2.179   5.185  0.7905 -0.6530 -1.2984
18855TIP3   OH277979   3.903   5.409   3.410 -0.1893  0.2891 -0.0363
18855TIP3    H177980   3.889   5.501   3.430 -1.0288  0.0879  0.3403
18855TIP3    H277981   3.815   5.370   3.410  0.1252 -0.4548 -0.4680
18856TIP3   OH277982   2.764   5.543  10.968  0.0438 -0.4054 -0.0903
18856TIP3    H177983   2.784   5.623  10.918 -1.5294 -0.4658 -0.8478
18856TIP3    H277984   2.678   5.516  10.937  1.0005 -3.0435 -0.6575
18857TIP3   OH277985   2.129   5.556   2.923  0.6364 -0.1705 -0.0793
18857TIP3    H177986   2.174   5.610   2.988 -1.6602 -0.6041  2.0130
18857TIP3    H277987   2.095   5.618   2.859 -3.6169  1.4301  3.2687
18858TIP3   OH277988   5.771   6.635  13.912 -0.1473  0.8016 -0.0268
18858TIP3    H177989   5.772   6.544  13.942  0.5663  0.6570 -0.4514
18858TIP3    H277990   5.684   6.647  13.875 -1.3691  1.2331  2.7631
18859TIP3   OH277991   2.081   6.104   5.066 -0.1072  0.0779  0.6529
18859TIP3    H177992   2.073   6.040   4.995 -0.9719 -0.2826  1.0553
18859TIP3    H277993   2.116   6.054   5.140 -3.2463 -0.6592  1.8037
18860TIP3   OH277994   6.295   0.559  11.930 -0.9648 -0.5169  0.4263
18860TIP3    H177995   6.202   0.535  11.940 -1.2316  0.2658 -0.0356
18860TIP3    H277996   6.327   0.502  11.860 -1.9840  1.3657 -1.7066
18861TIP3   OH277997   1.339   5.468  13.798 -0.2761 -0.2548  0.1279
18861TIP3    H177998   1.245   5.479  13.785 -0.8530 -0.5360  3.2035
18861TIP3    H277999   1.353   5.492  13.890  2.7492  0.1922 -0.3470
18862TIP3   OH278000   1.606   0.091   2.373  0.2714  0.5831  0.8245
18862TIP3    H178001   1.620   0.165   2.432  1.8476  1.6360 -0.7328
18862TIP3    H278002   1.511   0.082   2.367  0.0678  0.6986  3.1177
18863TIP3   OH278003   0.074   0.612   5.068 -0.2605  0.5058  0.4802
18863TIP3    H178004   0.155   0.570   5.039 -0.1680  0.4531  0.8030
18863TIP3    H278005   0.085   0.621   5.163 -0.4375  0.9239  0.4613
18864TIP3   OH278006   6.646   0.109   6.078 -0.1308 -0.4582  0.6285
18864TIP3    H178007   6.629   0.065   5.994 -1.3463 -1.5908  1.4239
18864TIP3    H278008   6.598   0.191   6.072 -0.1673 -0.5064  0.2040
18865TIP3   OH278009   2.642   5.773   3.371 -0.1848  1.0444  0.7388
18865TIP3    H178010   2.630   5.842   3.436  0.6501  2.0130 -0.0880
18865TIP3    H278011   2.713   5.805   3.316 -3.0794  2.0192 -2.8455
18866TIP3   OH278012   0.450   1.657   5.409 -0.1202  0.6334 -0.3456
18866TIP3    H178013   0.359   1.628   5.401  0.9734 -4.0366  1.3504
18866TIP3    H278014   0.494   1.619   5.333  0.9304  0.2420  0.4409
18867TIP3   OH278015   5.201   5.385  10.803  0.0043 -0.0138  0.0308
18867TIP3    H178016   5.289   5.400  10.768  0.5748 -2.1262  0.4565
18867TIP3    H278017   5.212   5.316  10.869 -2.2574 -1.9425 -1.4475
18868TIP3   OH278018   1.839   1.423  15.909  0.3049 -0.2252  0.4895
18868TIP3    H178019   1.841   1.497  15.848 -0.1745 -0.3229  0.3538
18868TIP3    H278020   1.843   1.346  15.852  1.0214 -0.3102  0.6406
18869TIP3   OH278021   3.753   0.743  11.695 -0.1393 -0.6134 -0.0540
18869TIP3    H178022   3.663   0.712  11.704 -0.0313 -1.1678 -0.8512
18869TIP3    H278023   3.785   0.703  11.614  0.5374  0.2735 -0.2469
18870TIP3   OH278024   6.385   6.639   1.414  0.3087 -0.0680  0.9141
18870TIP3    H178025   6.363   6.704   1.347  0.6621 -0.6143  0.2480
18870TIP3    H278026   6.322   6.654   1.484  1.0764  1.7400  1.3014
18871TIP3   OH278027   1.503   4.771  14.390  0.5307 -0.4037  1.0295
18871TIP3    H178028   1.443   4.715  14.340  1.1244 -1.6576  1.6692
18871TIP3    H278029   1.560   4.810  14.323 -1.6791  1.7938  0.2666
18872TIP3   OH278030   4.017   6.246  11.443  0.1970 -0.6015  0.0927
18872TIP3    H178031   4.034   6.206  11.358 -0.8711 -0.4913 -0.1866
18872TIP3    H278032   4.098   6.232  11.493  0.4742 -1.5628 -0.5937
18873TIP3   OH278033   5.084   4.294  16.185 -0.2297  0.3222 -0.0213
18873TIP3    H178034   5.092   4.240  16.264 -0.5589 -0.2387 -0.3577
18873TIP3    H278035   4.999   4.268  16.147 -0.6001  1.4003  0.0415
18874TIP3   OH278036   2.489   0.790  14.234  0.8792 -0.0317 -0.2923
18874TIP3    H178037   2.399   0.764  14.218  1.4181 -1.3124 -1.4378
18874TIP3    H278038   2.483   0.855  14.304 -1.0786  1.2656 -1.5576
18875TIP3   OH278039   6.193   3.432   2.206  0.2356 -0.2763  0.6785
18875TIP3    H178040   6.234   3.506   2.250  0.2088  0.5600 -0.6507
18875TIP3    H278041   6.113   3.467   2.167  2.1791  0.1618 -3.4804
18876TIP3   OH278042   0.078   4.146  14.345 -0.2330  0.1599 -0.2736
18876TIP3    H178043   0.039   4.233  14.352  0.5008  0.4230  0.8025
18876TIP3    H278044   0.030   4.103  14.274 -1.2223  1.1114 -0.1948
18877TIP3   OH278045   0.600   2.176  13.494  0.6854 -0.2681 -0.0343
18877TIP3    H178046   0.626   2.109  13.432 -0.4632 -0.9741  0.2201
18877TIP3    H278047   0.506   2.186  13.482  1.0184  2.4294 -1.1406
18878TIP3   OH278048   1.744   5.377  14.540 -0.1349  0.5475 -0.2310
18878TIP3    H178049   1.760   5.345  14.451 -1.9415  1.7104 -1.0198
18878TIP3    H278050   1.820   5.432  14.560  0.2453  0.3412 -1.0698
18879TIP3   OH278051   4.074   5.893   4.731  0.4647  0.0346 -0.3501
18879TIP3    H178052   4.063   5.854   4.817 -1.4660  2.2081  0.5014
18879TIP3    H278053   4.024   5.837   4.672 -0.9536  0.2924  0.5644
18880TIP3   OH278054   6.635   2.935   4.648  0.1083  0.3760  0.0630
18880TIP3    H178055   6.563   2.878   4.675  1.0101 -0.7839  0.1088
18880TIP3    H278056   6.711   2.878   4.646  1.1835  1.7240  0.7070
18881TIP3   OH278057   1.449   1.426   5.221  0.6616  0.3253  0.1038
18881TIP3    H178058   1.463   1.449   5.313  1.4425  0.3728 -0.0255
18881TIP3    H278059   1.446   1.331   5.220 -0.5357  0.3419  0.3408
18882TIP3   OH278060   6.152   6.576   0.769 -0.9174  0.1036  0.0719
18882TIP3    H178061   6.057   6.589   0.771 -1.0122 -0.6559  1.3035
18882TIP3    H278062   6.186   6.654   0.725 -2.0839  0.4921 -0.1686
18883TIP3   OH278063   1.369   6.117  11.517 -1.3261  0.4312  0.3406
18883TIP3    H178064   1.299   6.076  11.466 -1.9421 -0.5746  1.8961
18883TIP3    H278065   1.327   6.190  11.561 -0.7121  1.5204 -0.8222
18884TIP3   OH278066   1.976   5.607   4.673  0.3398 -0.5726 -0.0807
18884TIP3    H178067   1.895   5.561   4.695  0.1730 -1.0416 -1.5637
18884TIP3    H278068   1.994   5.582   4.582  1.8368 -0.0133  0.0357
18885TIP3   OH278069   4.612   1.891  12.292  0.3419  0.8332 -0.6022
18885TIP3    H178070   4.628   1.825  12.224  0.2870  0.4645 -0.2634
18885TIP3    H278071   4.544   1.947  12.255  0.3902  0.7010 -0.8972
18886TIP3   OH278072   6.091   1.192  13.345  0.0973  0.4049 -0.1057
18886TIP3    H178073   6.082   1.162  13.435 -0.6248  1.4041  0.1772
18886TIP3    H278074   6.012   1.243  13.328  0.9351  1.5705 -0.7495
18887TIP3   OH278075   5.245   4.357   1.260 -0.5237 -0.1498  0.0514
18887TIP3    H178076   5.238   4.440   1.214  0.6801  0.2798  0.5986
18887TIP3    H278077   5.314   4.371   1.326 -3.2376 -0.1773  3.1865
18888TIP3   OH278078   3.316   6.651   0.951 -0.2795 -0.1539  0.3814
18888TIP3    H178079   3.242   6.710   0.965  0.2095  0.8678 -1.1069
18888TIP3    H278080   3.363   6.651   1.035 -0.0278  1.9687  0.2789
18889TIP3   OH278081   5.329   6.742  12.760  0.3226 -0.1709 -0.4181
18889TIP3    H178082   5.392   6.738  12.688 -0.4374  0.7912 -1.1603
18889TIP3    H278083   5.251   6.697  12.727 -0.2703  0.8691 -0.4612
18890TIP3   OH278084   2.604   3.079  11.135 -0.4567  0.3595 -0.1296
18890TIP3    H178085   2.685   3.118  11.101 -1.5312  1.7372 -1.2371
18890TIP3    H278086   2.557   3.050  11.056 -1.3339  0.1748  0.4510
18891TIP3   OH278087   0.886   2.020   4.752 -0.2736 -1.0967 -0.1974
18891TIP3    H178088   0.933   2.072   4.687 -0.6191 -0.2645  0.1956
18891TIP3    H278089   0.894   1.930   4.721 -0.5113 -0.7145 -1.4378
18892TIP3   OH278090   1.511   6.741   1.142  0.2887  0.7164  0.1258
18892TIP3    H178091   1.509   6.677   1.214 -0.9929 -1.0951 -1.4174
18892TIP3    H278092   1.583   6.712   1.086  1.0695  1.9226  0.4644
18893TIP3   OH278093   3.058   4.357   2.774 -0.6855  0.3200  0.0483
18893TIP3    H178094   3.063   4.435   2.718 -0.0437  0.7668  0.7111
18893TIP3    H278095   3.149   4.330   2.785 -0.8604 -0.1577  0.3446
18894TIP3   OH278096   2.029   3.764   2.595 -0.3916  0.3478 -0.8083
18894TIP3    H178097   1.959   3.777   2.659 -1.6235 -0.9437 -1.8288
18894TIP3    H278098   2.032   3.846   2.546 -1.3075  0.3662 -0.8508
18895TIP3   OH278099   3.162   1.735  16.798 -0.8685  0.0079  0.1435
18895TIP3    H178100   3.219   1.749  16.874 -1.3051  0.3532  0.4160
18895TIP3    H278101   3.199   1.659  16.754 -0.1896  0.2355  0.3057
18896TIP3   OH278102   0.122   3.850   4.847  0.0867  0.4978 -0.2700
18896TIP3    H178103   0.060   3.784   4.816  0.5013  0.4073 -0.9271
18896TIP3    H278104   0.190   3.800   4.892 -0.7735  0.6647  1.2966
18897TIP3   OH278105   0.424   4.407   1.633 -0.3269  0.0384  0.1363
18897TIP3    H178106   0.369   4.330   1.642  0.3225 -0.6057 -1.1906
18897TIP3    H278107   0.484   4.386   1.561  0.1126  1.6249 -0.0028
18898TIP3   OH278108   2.050   6.518  11.965  0.1212  0.6155 -0.1185
18898TIP3    H178109   2.042   6.563  12.049 -2.4915  0.6054 -0.2620
18898TIP3    H278110   1.985   6.447  11.971 -0.8035  1.1782 -2.4485
18899TIP3   OH278111   1.756   3.034  14.824  0.1740 -0.0783  0.1080
18899TIP3    H178112   1.797   2.954  14.855  2.0885  1.3382  1.4374
18899TIP3    H278113   1.770   3.098  14.894 -2.7861  1.0340 -0.1516
18900TIP3   OH278114   4.292   1.563  13.190 -0.1597 -0.0401 -0.1442
18900TIP3    H178115   4.320   1.654  13.182 -0.1055 -0.1244 -1.0414
18900TIP3    H278116   4.329   1.533  13.273 -0.3336  0.8018  0.2500
18901TIP3   OH278117   4.594   4.934  14.308  0.0282  0.1523  0.1390
18901TIP3    H178118   4.622   5.020  14.339 -2.2203  1.0706 -0.1152
18901TIP3    H278119   4.655   4.912  14.238 -0.5349  2.5346 -1.1964
18902TIP3   OH278120   4.542   1.098   5.419 -0.1409 -0.0583 -0.6819
18902TIP3    H178121   4.447   1.091   5.430 -0.0245 -0.3411  0.2162
18902TIP3    H278122   4.554   1.131   5.330 -1.0952  0.5300 -0.5970
18903TIP3   OH278123   2.370   5.364  14.564 -0.0326 -0.2511 -0.2201
18903TIP3    H178124   2.390   5.359  14.470 -4.4744  0.1782 -1.4270
18903TIP3    H278125   2.367   5.458  14.583  1.6102 -0.3385  0.6313
18904TIP3   OH278126   3.056   1.364  12.229 -0.1449  0.4632  0.5137
18904TIP3    H178127   3.123   1.300  12.255  0.1012  0.0370 -1.0646
18904TIP3    H278128   3.010   1.384  12.310  0.1546 -1.2806  1.1653
18905TIP3   OH278129   4.244   2.485  11.352 -0.0963 -0.1501  0.2104
18905TIP3    H178130   4.298   2.560  11.328  0.0168 -0.1447  0.4807
18905TIP3    H278131   4.275   2.460  11.439  0.9042 -1.4430 -0.4807
18906TIP3   OH278132   1.888   5.391   4.527  0.6823  0.5975 -0.4211
18906TIP3    H178133   1.796   5.375   4.507  0.9556  0.4197 -1.5753
18906TIP3    H278134   1.896   5.371   4.621 -0.5803  1.2440 -0.1539
18907TIP3   OH278135   3.966   0.488  12.685  0.2122 -0.3725 -0.0813
18907TIP3    H178136   3.953   0.582  12.682 -0.4541 -0.4896 -1.3708
18907TIP3    H278137   4.000   0.465  12.599 -0.0715 -1.3700  0.0581
18908TIP3   OH278138   2.046   0.944  11.129  0.3869 -0.3362  0.6107
18908TIP3    H178139   2.017   0.959  11.039  0.4122 -3.5331 -0.0583
18908TIP3    H278140   1.990   1.001  11.182  0.6984  1.9873 -1.3987
18909TIP3   OH278141   4.145   2.666   3.679  0.3799  0.4552  0.0528
18909TIP3    H178142   4.058   2.679   3.718  0.5555  1.3423  0.1620
18909TIP3    H278143   4.147   2.573   3.656 -0.6659  0.4611 -0.1140
18910TIP3   OH278144   0.003   0.394  12.660  0.2836 -0.1352  0.0201
18910TIP3    H178145  -0.022   0.373  12.750  1.2201  1.8461  0.8063
18910TIP3    H278146   0.075   0.335  12.640 -0.4788 -1.1622  0.2460
18911TIP3   OH278147   4.770   3.395  13.856 -0.5173  0.8064  0.2412
18911TIP3    H178148   4.780   3.486  13.828  3.4788  0.4865  0.1377
18911TIP3    H278149   4.842   3.348  13.815 -0.0752 -1.6181  3.3935
18912TIP3   OH278150   3.511   3.617  11.867  0.3815  0.1412  0.6806
18912TIP3    H178151   3.550   3.704  11.879 -1.6037  1.1041  0.5911
18912TIP3    H278152   3.504   3.582  11.956  0.3751  0.4402  0.7994
18913TIP3   OH278153   3.373   5.800  10.404 -0.0331 -0.1835 -0.2784
18913TIP3    H178154   3.290   5.758  10.383  0.0567 -1.6478  1.9633
18913TIP3    H278155   3.395   5.767  10.492  2.0512  1.5105 -0.0917
18914TIP3   OH278156   3.824   3.976  16.431  0.0481 -0.1842  0.0832
18914TIP3    H178157   3.878   4.026  16.369 -0.7750  0.5207 -0.0732
18914TIP3    H278158   3.800   4.040  16.499 -1.7520 -0.1197 -0.5845
18915TIP3   OH278159   0.958   2.105  11.516 -0.2657 -0.2624  0.7222
18915TIP3    H178160   0.868   2.098  11.549 -0.5695 -1.2316 -0.2504
18915TIP3    H278161   0.964   2.193  11.480 -0.8055 -0.1628  0.8761
18916TIP3   OH278162   2.352   1.846  10.559  0.3509  0.1820  0.9248
18916TIP3    H178163   2.410   1.888  10.496  1.5390  1.8936  3.0199
18916TIP3    H278164   2.311   1.918  10.606 -2.0798 -1.0201  0.8197
18917TIP3   OH278165   0.390   4.887   1.433  0.3269 -0.0385  0.0717
18917TIP3    H178166   0.415   4.955   1.370  1.1427 -0.1049  0.3192
18917TIP3    H278167   0.423   4.806   1.395  1.4122  0.0027  0.8937
18918TIP3   OH278168   1.705   0.371  11.385  0.0582  0.4254  0.4588
18918TIP3    H178169   1.745   0.308  11.445  0.4759  0.3701  0.1275
18918TIP3    H278170   1.615   0.341  11.374  0.4359 -0.5068 -0.2174
18919TIP3   OH278171   4.476   6.528  14.414  0.1538  0.1815 -0.0355
18919TIP3    H178172   4.563   6.537  14.454  0.4961  0.0613 -0.7323
18919TIP3    H278173   4.447   6.618  14.399  1.3011  0.2653 -2.1843
18920TIP3   OH278174   5.419   2.683   5.019  0.5652  0.4558 -0.2064
18920TIP3    H178175   5.433   2.595   4.983  0.6620  0.2274  0.3871
18920TIP3    H278176   5.425   2.741   4.943 -0.0430 -0.0997 -0.6923
18921TIP3   OH278177   4.973   6.376   1.526 -0.1503 -0.1276 -0.3198
18921TIP3    H178178   5.007   6.437   1.460 -1.3376  0.4586 -0.4198
18921TIP3    H278179   4.967   6.428   1.606  0.5219 -0.6180  0.0561
18922TIP3   OH278180   0.294   2.383  11.303  0.7223 -0.0458  0.3357
18922TIP3    H178181   0.238   2.333  11.362 -2.1259  1.8242 -0.5647
18922TIP3    H278182   0.308   2.325  11.228  2.0361 -1.3811  1.5331
18923TIP3   OH278183   4.645   1.287   3.836 -0.4260 -0.2647 -0.8009
18923TIP3    H178184   4.566   1.238   3.856  0.3881 -1.3304 -0.0784
18923TIP3    H278185   4.645   1.360   3.899 -1.7360  0.8206 -2.0071
18924TIP3   OH278186   2.724   6.011   4.579  0.0770  0.1163 -0.6514
18924TIP3    H178187   2.704   5.971   4.664  0.4283  1.7076  0.2228
18924TIP3    H278188   2.661   6.082   4.571  0.6874  0.5957 -1.2682
18925TIP3   OH278189   5.795   3.706  13.530 -0.0316  0.2428  0.0930
18925TIP3    H178190   5.832   3.624  13.498  0.3264  0.1806  0.6342
18925TIP3    H278191   5.838   3.774  13.478 -1.2388  0.0506 -1.2146
18926TIP3   OH278192   6.097   2.642  16.398 -0.1810  0.1016  0.2272
18926TIP3    H178193   6.089   2.720  16.343 -1.4005 -0.2891 -0.1949
18926TIP3    H278194   6.189   2.617  16.392 -0.2424  0.1563 -1.5526
18927TIP3   OH278195   4.038   1.345   1.180  0.6565  0.0593  0.6056
18927TIP3    H178196   3.986   1.424   1.165  1.0591  1.1951  4.2234
18927TIP3    H278197   3.976   1.273   1.172 -0.5765  1.0542  0.9720
18928TIP3   OH278198   2.035   0.089  14.645 -0.5057 -0.1423 -0.3040
18928TIP3    H178199   2.095   0.124  14.579 -0.0419  0.2041  0.2925
18928TIP3    H278200   1.989   0.165  14.679 -1.3871 -0.4233 -0.8502
18929TIP3   OH278201   3.589   5.111  10.946 -0.2172 -0.6148 -0.3615
18929TIP3    H178202   3.563   5.177  11.011  0.6585 -0.2763 -0.3454
18929TIP3    H278203   3.648   5.053  10.994 -1.6261 -1.9293 -0.1396
18930TIP3   OH278204   5.375   1.097  12.203 -0.3122  0.3295 -0.1551
18930TIP3    H178205   5.357   1.153  12.127 -0.7637 -0.3207 -0.5335
18930TIP3    H278206   5.467   1.114  12.223  0.8673 -1.8731 -2.9206
18931TIP3   OH278207   5.711   1.985   3.699  0.2595  0.2586  0.4825
18931TIP3    H178208   5.704   2.063   3.754  0.5984 -0.4747  1.5882
18931TIP3    H278209   5.769   1.926   3.747 -1.4021 -1.4172  0.5556
18932TIP3   OH278210   5.861   1.204  11.403  0.0818 -0.9413 -0.5172
18932TIP3    H178211   5.846   1.119  11.445  1.4836 -1.5846 -1.2646
18932TIP3    H278212   5.950   1.199  11.370  1.0597  1.6770  1.3787
18933TIP3   OH278213   2.812   5.079   4.712 -0.4893 -0.3032  0.0472
18933TIP3    H178214   2.741   5.045   4.767  1.5650 -1.5886  2.0950
18933TIP3    H278215   2.845   5.003   4.664  0.9523 -0.2632  0.9027
18934TIP3   OH278216   3.416   0.416   6.224 -0.1685 -0.4338 -0.0442
18934TIP3    H178217   3.392   0.340   6.171  0.6415 -0.6930 -0.0685
18934TIP3    H278218   3.488   0.384   6.279 -0.4782  0.0496  0.6470
18935TIP3   OH278219   2.071   3.662   3.827 -0.1859  0.3101 -0.0956
18935TIP3    H178220   2.026   3.689   3.747  1.0306  0.7067 -0.6791
18935TIP3    H278221   2.001   3.649   3.891 -1.3908 -1.8967 -1.7106
18936TIP3   OH278222   2.190   3.877   4.814  0.1330 -0.3420 -0.0765
18936TIP3    H178223   2.209   3.908   4.725 -0.1994  1.8925  0.5703
18936TIP3    H278224   2.271   3.895   4.863  0.2216 -1.3080  0.1442
18937TIP3   OH278225   6.140   4.230  13.723 -0.7066 -0.4758 -0.2581
18937TIP3    H178226   6.189   4.153  13.695 -1.1866 -0.2659 -1.7584
18937TIP3    H278227   6.055   4.220  13.680 -1.3488  0.0833  0.8438
18938TIP3   OH278228   3.269   0.693  10.393  0.1031  0.7523  0.1748
18938TIP3    H178229   3.273   0.747  10.314  0.2030 -3.3310 -2.9408
18938TIP3    H278230   3.176   0.690  10.415 -0.0398  1.2284 -0.3342
18939TIP3   OH278231   6.283   2.853  12.496  0.2567  0.1636 -0.5691
18939TIP3    H178232   6.308   2.878  12.585 -0.1455  1.2334 -0.7379
18939TIP3    H278233   6.362   2.815  12.459  0.6451  0.3995 -0.0010
18940TIP3   OH278234   1.174   2.063  12.287  0.6952 -0.0233 -0.3465
18940TIP3    H178235   1.126   2.125  12.341  0.0872  1.1852 -2.1992
18940TIP3    H278236   1.251   2.112  12.256  1.5130 -0.9735  0.1028
18941TIP3   OH278237   3.960   1.889  15.298 -0.5221 -0.4739 -0.1433
18941TIP3    H178238   3.883   1.873  15.352  0.3770 -2.6523  0.6017
18941TIP3    H278239   3.938   1.853  15.213 -0.6199 -0.3437 -0.1734
18942TIP3   OH278240   4.072   4.621  12.701  0.1024 -0.2733  0.0262
18942TIP3    H178241   4.056   4.708  12.663 -1.6767 -0.1193  1.0258
18942TIP3    H278242   4.040   4.627  12.791  0.4305 -1.8236  0.2824
18943TIP3   OH278243   3.624   4.792  11.364  0.3606  0.1495  0.2243
18943TIP3    H178244   3.631   4.696  11.361  0.6483  0.1064  1.5661
18943TIP3    H278245   3.662   4.816  11.448  0.2841  1.4555 -0.0926
18944TIP3   OH278246   6.141   4.740  15.689 -0.3870 -0.0469 -0.0564
18944TIP3    H178247   6.233   4.760  15.701 -0.5576  1.3153 -0.9010
18944TIP3    H278248   6.106   4.731  15.778  0.5042 -0.4242  0.2652
18945TIP3   OH278249   1.414   5.650   3.013 -0.3330  0.1763 -0.0204
18945TIP3    H178250   1.448   5.622   3.098 -0.0783 -0.3666 -0.2984
18945TIP3    H278251   1.485   5.701   2.974 -0.2110 -0.1119 -0.1762
18946TIP3   OH278252   0.592   4.578   6.082 -0.0837 -0.1497 -0.3864
18946TIP3    H178253   0.541   4.654   6.112  0.5422  0.8559 -1.7693
18946TIP3    H278254   0.683   4.606   6.089  0.2437 -1.3684  0.5603
18947TIP3   OH278255   5.713   5.688   2.182  0.3013  0.0073  0.9505
18947TIP3    H178256   5.732   5.601   2.218 -0.9493  0.4886  2.9226
18947TIP3    H278257   5.767   5.747   2.235 -0.1072  0.5823  0.7306
18948TIP3   OH278258   3.587   6.772  14.461 -0.1506 -1.3469 -0.1879
18948TIP3    H178259   3.503   6.774  14.416 -0.3742 -3.0363  0.1143
18948TIP3    H278260   3.645   6.827  14.407 -0.9394 -1.7062 -1.4318
18949TIP3   OH278261   6.359   0.093   1.801  0.1060  0.7370  0.5686
18949TIP3    H178262   6.276   0.128   1.769 -1.1574 -0.9950  1.7610
18949TIP3    H278263   6.415   0.169   1.810 -0.8523  1.7992 -1.6098
18950TIP3   OH278264   1.101   4.411  11.939 -0.4239 -0.2343 -0.4120
18950TIP3    H178265   1.111   4.499  11.902 -0.5702  1.6804  3.5752
18950TIP3    H278266   1.190   4.386  11.965 -0.5872 -0.6823 -0.2798
18951TIP3   OH278267   4.007   1.547  12.237  0.3113 -0.4179  0.1193
18951TIP3    H178268   4.081   1.503  12.196 -0.2655  0.5899 -2.1525
18951TIP3    H278269   3.954   1.579  12.164 -1.0057  1.1645  1.6664
18952TIP3   OH278270   2.486   0.617   4.808  0.2493 -0.5030  0.1643
18952TIP3    H178271   2.465   0.696   4.758  1.5472  0.6490  1.3283
18952TIP3    H278272   2.582   0.615   4.810  0.2718 -0.4558  2.5841
18953TIP3   OH278273   0.687   0.513   4.235  0.7113 -0.4932 -0.0507
18953TIP3    H178274   0.611   0.484   4.184  0.1019 -0.6835  0.9418
18953TIP3    H278275   0.658   0.593   4.278  1.9156  0.8649 -1.6362
18954TIP3   OH278276   2.975   6.510  12.335 -0.3429  0.0915  0.0381
18954TIP3    H178277   2.892   6.493  12.290  0.4570 -2.1863 -0.7024
18954TIP3    H278278   3.039   6.521  12.265  0.5027 -1.2054  0.5747
18955TIP3   OH278279   1.759   5.140   3.272 -0.0794  0.1474  0.5024
18955TIP3    H178280   1.793   5.054   3.295 -0.9258 -0.6061 -0.9188
18955TIP3    H278281   1.750   5.138   3.177 -0.6882  1.5917  0.5004
18956TIP3   OH278282   2.247   2.509   1.605 -0.1441 -0.5843  0.2271
18956TIP3    H178283   2.300   2.442   1.560 -0.5487 -0.3773 -0.5792
18956TIP3    H278284   2.290   2.592   1.584 -0.6709 -0.4325 -0.2689
18957TIP3   OH278285   3.270   0.859  15.506  0.1888  0.0441 -0.5492
18957TIP3    H178286   3.201   0.799  15.477 -1.3552  1.6609 -0.3758
18957TIP3    H278287   3.333   0.858  15.435  0.5324 -2.2079 -0.3004
18958TIP3   OH278288   4.899   1.777  13.519 -0.3181  0.4300  0.0535
18958TIP3    H178289   4.824   1.768  13.461 -0.9609 -2.1669  1.1558
18958TIP3    H278290   4.957   1.705  13.495 -0.6022 -0.7217  2.5624
18959TIP3   OH278291   2.324   1.676   3.365 -0.0591  0.0276 -0.1650
18959TIP3    H178292   2.305   1.769   3.371 -0.5338 -0.0548 -0.3959
18959TIP3    H278293   2.239   1.633   3.356  0.0853 -0.5055  0.8212
18960TIP3   OH278294   5.772   4.164  10.400 -0.1082  0.1936 -0.1235
18960TIP3    H178295   5.807   4.136  10.315 -1.3560 -1.5343 -0.1202
18960TIP3    H278296   5.843   4.145  10.462 -0.1086 -0.9618 -0.4416
18961TIP3   OH278297   3.419   4.636  11.555  0.1228  0.2957  0.0300
18961TIP3    H178298   3.341   4.581  11.542  1.5555 -1.4544 -1.6833
18961TIP3    H278299   3.464   4.635  11.471  0.8955  3.1432  0.3025
18962TIP3   OH278300   1.209   1.800  11.471  0.3462 -0.1341  0.3850
18962TIP3    H178301   1.280   1.773  11.413 -0.2854 -1.7382  0.3087
18962TIP3    H278302   1.219   1.895  11.480  2.0215 -0.2339 -0.2329
18963TIP3   OH278303   3.251   1.120   3.557  0.0601  0.0164 -0.1989
18963TIP3    H178304   3.345   1.124   3.540 -0.1208  0.3654 -1.1933
18963TIP3    H278305   3.213   1.083   3.477 -0.3815 -3.0949  1.3073
18964TIP3   OH278306   4.949   3.724  11.844 -0.1587  0.2682  0.3611
18964TIP3    H178307   4.863   3.724  11.887 -0.7131  0.5057 -0.7015
18964TIP3    H278308   5.007   3.766  11.907 -0.8708  0.3242  1.0040
18965TIP3   OH278309   1.345   6.411  16.221  0.5300  0.7119 -0.2369
18965TIP3    H178310   1.414   6.432  16.283  0.4287 -0.5902  0.3411
18965TIP3    H278311   1.372   6.455  16.140  2.4964 -0.4805 -0.2808
18966TIP3   OH278312   5.280   2.702  13.475 -0.7402 -0.9694 -0.3133
18966TIP3    H178313   5.200   2.748  13.448 -0.3527 -1.0674 -1.7069
18966TIP3    H278314   5.324   2.762  13.534 -1.4588 -0.5807 -0.1663
18967TIP3   OH278315   1.784   3.323   2.818 -0.3564  0.0539 -0.3166
18967TIP3    H178316   1.717   3.375   2.863 -0.3835  0.3548 -0.7025
18967TIP3    H278317   1.747   3.306   2.731  1.0669  2.3571 -1.4622
18968TIP3   OH278318   6.654   0.530   0.107 -0.4426 -0.3354 -0.0293
18968TIP3    H178319   6.673   0.586   0.183  0.5475 -2.1952  1.1871
18968TIP3    H278320   6.566   0.496   0.125 -0.6799  0.1285 -0.3096
18969TIP3   OH278321   6.394   5.722   5.273  0.5637  0.0238  0.2201
18969TIP3    H178322   6.378   5.674   5.354 -0.6978  2.0047  1.2312
18969TIP3    H278323   6.342   5.677   5.207 -1.5298  0.5806  1.3904
18970TIP3   OH278324   2.897   6.016   0.933  0.5545  0.1190  0.4050
18970TIP3    H178325   2.979   5.986   0.972  0.7075 -0.2463 -0.1873
18970TIP3    H278326   2.924   6.074   0.862  0.2806  0.6427  0.7237
18971TIP3   OH278327   0.198   5.215  11.865 -0.3917  0.5181 -0.1329
18971TIP3    H178328   0.122   5.272  11.874 -1.2650 -0.9356  3.1771
18971TIP3    H278329   0.273   5.274  11.872 -1.1243  1.8086 -2.1605
18972TIP3   OH278330   3.055   2.079  16.333 -0.3186  0.2395  0.1606
18972TIP3    H178331   3.142   2.119  16.330 -0.1406 -0.1314  0.3899
18972TIP3    H278332   3.026   2.078  16.242  0.3995 -0.6994 -0.0708
18973TIP3   OH278333   0.429   5.964   3.077  0.7316 -0.2634 -0.1077
18973TIP3    H178334   0.437   6.040   3.020 -0.1267  0.0220  0.1303
18973TIP3    H278335   0.484   5.897   3.037  0.4217  0.0501 -1.0754
18974TIP3   OH278336   2.860   4.390  11.066 -0.0640  0.4091  0.6339
18974TIP3    H178337   2.938   4.442  11.085 -0.1628  0.9989 -0.5160
18974TIP3    H278338   2.787   4.451  11.073 -0.5018 -0.2263  2.1035
18975TIP3   OH278339   3.092   0.422  14.401  0.1644  0.1121 -0.3174
18975TIP3    H178340   3.168   0.371  14.372  0.3554  0.2155 -0.0056
18975TIP3    H278341   3.079   0.487  14.332  0.2786  0.0100 -0.4351
18976TIP3   OH278342   4.189   2.000  12.841 -0.7027 -0.0945  0.5808
18976TIP3    H178343   4.233   2.080  12.815 -0.9438 -0.6130 -1.7070
18976TIP3    H278344   4.202   1.994  12.935  2.3323  0.8122  0.3285
18977TIP3   OH278345   6.316   0.579  16.337 -0.0602  0.1060 -0.0635
18977TIP3    H178346   6.361   0.604  16.256  0.5384 -2.4055 -0.6019
18977TIP3    H278347   6.300   0.485  16.327 -3.6885  0.4677  1.0120
18978TIP3   OH278348   1.380   2.649   1.864 -0.3111  0.0180 -0.8838
18978TIP3    H178349   1.346   2.566   1.832  0.8156 -0.4711 -0.8435
18978TIP3    H278350   1.475   2.642   1.854  0.0924  0.0149  2.0687
18979TIP3   OH278351   5.682   3.066   5.067 -0.6331 -0.3854  0.3936
18979TIP3    H178352   5.671   3.156   5.097  0.6866 -0.1994  0.3945
18979TIP3    H278353   5.668   3.070   4.972 -0.1446 -0.0811  0.3290
18980TIP3   OH278354   2.257   5.561  16.381  0.0398  0.2355 -0.4748
18980TIP3    H178355   2.258   5.502  16.305 -1.0164 -1.2578  0.5939
18980TIP3    H278356   2.219   5.508  16.451  0.0643  1.8823  0.8425
18981TIP3   OH278357   0.336   2.966  12.844 -0.2405  0.2919  0.2149
18981TIP3    H178358   0.350   2.926  12.930  1.1198 -0.2449 -0.2331
18981TIP3    H278359   0.339   2.893  12.782  2.6411  1.0246 -0.6534
18982TIP3   OH278360   1.472   5.209  13.704  0.4998  0.3227 -0.0246
18982TIP3    H178361   1.559   5.201  13.665 -0.4906 -1.4032 -2.0541
18982TIP3    H278362   1.473   5.294  13.748  2.3698  1.4936 -2.1461
18983TIP3   OH278363   2.760   0.424   4.328 -0.3905 -0.4272  0.0533
18983TIP3    H178364   2.837   0.472   4.360 -1.0645 -0.5170  1.9147
18983TIP3    H278365   2.686   0.480   4.351 -1.0919 -1.7055  1.0250
18984TIP3   OH278366   3.025   5.352   1.237 -0.1752 -0.0939 -0.1787
18984TIP3    H178367   3.045   5.340   1.330  0.5231  0.1822 -0.2916
18984TIP3    H278368   2.981   5.271   1.212 -1.4011  0.2840  0.6649
18985TIP3   OH278369   0.238   4.829   4.467 -0.3066 -1.0197 -0.3347
18985TIP3    H178370   0.328   4.796   4.471  0.5358  0.9461 -1.4053
18985TIP3    H278371   0.210   4.833   4.558  1.6361  0.6326  0.2793
18986TIP3   OH278372   0.099   2.535   2.160 -0.4758 -0.3223  0.1287
18986TIP3    H178373   0.042   2.517   2.086  0.8581 -0.4419 -0.9124
18986TIP3    H278374   0.185   2.503   2.132  0.8705  2.8312  0.2797
18987TIP3   OH278375   6.155   6.365  15.737  0.2906 -0.0509 -0.4037
18987TIP3    H178376   6.196   6.301  15.678 -0.0372 -1.3386  0.7180
18987TIP3    H278377   6.228   6.406  15.782  0.4444 -1.7924  1.0319
18988TIP3   OH278378   3.393   6.479  13.900 -0.6731 -0.0465  0.2896
18988TIP3    H178379   3.298   6.482  13.893 -1.0084 -0.1386  3.2929
18988TIP3    H278380   3.411   6.496  13.993  2.2238 -0.4695 -0.0787
18989TIP3   OH278381   6.333   2.394  12.817 -0.2207 -0.3098  0.0723
18989TIP3    H178382   6.341   2.429  12.728  1.8320 -1.7067 -0.3486
18989TIP3    H278383   6.305   2.469  12.869  3.1207  1.8557 -0.9457
18990TIP3   OH278384   2.456   5.920   1.859  0.0406 -0.3593  0.1162
18990TIP3    H178385   2.492   5.875   1.936 -2.0971 -1.8621  0.3369
18990TIP3    H278386   2.412   5.997   1.895  2.0227  0.9203 -0.0506
18991TIP3   OH278387   5.836   5.634  15.077 -0.0482 -0.4315 -0.2710
18991TIP3    H178388   5.833   5.549  15.033  0.5315 -0.1840 -0.7941
18991TIP3    H278389   5.929   5.649  15.093 -0.2033 -0.2342  0.4999
18992TIP3   OH278390   5.207   3.720   3.295  0.2207 -0.0534 -0.5783
18992TIP3    H178391   5.181   3.632   3.321  0.1104 -0.0851 -0.7914
18992TIP3    H278392   5.302   3.720   3.299  0.2152  1.1039  3.7492
18993TIP3   OH278393   4.565   5.856   5.825 -0.0263 -0.1024 -0.2780
18993TIP3    H178394   4.571   5.952   5.825 -1.8723  0.0585 -0.3713
18993TIP3    H278395   4.634   5.828   5.885  1.0258  1.2300 -0.7997
18994TIP3   OH278396   2.082   2.848   5.616  0.3770  0.4768 -0.2868
18994TIP3    H178397   2.124   2.820   5.534 -2.1360 -1.9121 -0.9059
18994TIP3    H278398   2.003   2.893   5.588 -1.1601 -1.4339  0.7197
18995TIP3   OH278399   0.384   4.258   3.738 -0.5451 -0.1811 -0.2076
18995TIP3    H178400   0.389   4.244   3.832  0.2200  0.9660 -0.0565
18995TIP3    H278401   0.299   4.221   3.713 -0.8783 -0.2563  0.9733
18996TIP3   OH278402   2.058   1.570  11.937 -0.1811 -0.3451 -0.3018
18996TIP3    H178403   1.979   1.572  11.992 -0.6263 -0.0425 -0.9379
18996TIP3    H278404   2.033   1.516  11.862  0.7825 -1.6997  0.3094
18997TIP3   OH278405   1.370   6.592  12.932  0.2069 -0.1764 -0.2683
18997TIP3    H178406   1.411   6.646  12.864  0.3057 -0.1011 -0.1471
18997TIP3    H278407   1.433   6.522  12.949  0.3620  0.0370  0.0419
18998TIP3   OH278408   1.834   2.126  10.994 -0.8761  0.2388  0.1827
18998TIP3    H178409   1.852   2.205  10.944  0.0880  0.2224  0.4890
18998TIP3    H278410   1.909   2.069  10.977 -0.2872  0.4155  1.9946
18999TIP3   OH278411   2.620   5.951  15.419  1.0978 -0.2596 -1.1380
18999TIP3    H178412   2.575   6.031  15.394  1.6792  0.6401  0.5578
18999TIP3    H278413   2.579   5.925  15.501  3.1149  0.1871  0.0791
19000TIP3   OH278414   3.044   2.567  13.876  0.0859  0.0996  0.7259
19000TIP3    H178415   2.997   2.545  13.796  0.1364 -2.5305  1.3343
19000TIP3    H278416   2.975   2.584  13.940 -0.1788 -2.6602  1.3226
19001TIP3   OH278417   1.715   2.893  12.903  0.0342  0.0076  0.6343
19001TIP3    H178418   1.777   2.942  12.849 -0.6300 -1.9846 -2.1068
19001TIP3    H278419   1.761   2.880  12.987  1.8855  1.5424 -0.0764
19002TIP3   OH278420   3.019   5.085  16.277  0.0708 -0.2988 -0.0420
19002TIP3    H178421   3.091   5.059  16.334  1.8936 -0.3580 -2.2185
19002TIP3    H278422   3.040   5.175  16.252 -0.5100 -0.3791 -0.8424
19003TIP3   OH278423   6.249   0.537  16.618  0.3898 -0.2419  0.1783
19003TIP3    H178424   6.155   0.557  16.614  0.7065  1.2431 -0.6591
19003TIP3    H278425   6.282   0.561  16.532  1.5874 -0.5536  0.5378
19004TIP3   OH278426   5.245   0.290   1.333  0.7087 -0.0572  0.3763
19004TIP3    H178427   5.287   0.241   1.403  1.7027 -0.0181 -0.1662
19004TIP3    H278428   5.228   0.376   1.370  3.1936  0.6813 -0.0353
19005TIP3   OH278429   3.888   1.975   1.538  0.2208 -0.7383  0.2873
19005TIP3    H178430   3.908   1.903   1.597  0.5607 -0.3357  0.6697
19005TIP3    H278431   3.971   1.996   1.495  1.2710  2.2719  3.3499
19006TIP3   OH278432   6.269   2.595  15.065  0.0515 -0.1529  0.9649
19006TIP3    H178433   6.294   2.687  15.066 -1.5286  0.3099  0.5640
19006TIP3    H278434   6.351   2.547  15.076  1.1602  1.2565 -0.7972
19007TIP3   OH278435   3.605   5.222  11.205 -0.0245  0.0814  0.0793
19007TIP3    H178436   3.585   5.297  11.260  0.6072  1.1167 -1.0351
19007TIP3    H278437   3.696   5.236  11.179 -0.4045 -0.1628 -1.4831
19008TIP3   OH278438   0.092   1.271  16.316 -0.1829 -0.1885  0.2812
19008TIP3    H178439   0.107   1.188  16.362  1.0357 -0.3664 -0.3834
19008TIP3    H278440   0.180   1.301  16.293 -0.7028  0.4857 -0.8767
19009TIP3   OH278441   5.404   1.500   5.559  0.6163  0.3617 -0.0154
19009TIP3    H178442   5.405   1.591   5.530 -0.2499 -0.2035 -1.9845
19009TIP3    H278443   5.381   1.504   5.652  1.5968  2.1797  0.1827
19010TIP3   OH278444   5.742   3.254   1.133 -0.6972 -0.6072 -0.2342
19010TIP3    H178445   5.658   3.283   1.169 -0.1488  0.7193  0.0294
19010TIP3    H278446   5.774   3.330   1.084  1.3444 -0.3133  1.4419
19011TIP3   OH278447   2.753   0.649   3.754 -0.0136 -0.2007  0.0403
19011TIP3    H178448   2.757   0.564   3.796  0.2666 -0.1718  0.0737
19011TIP3    H278449   2.670   0.687   3.784  0.5440  0.1400  1.1916
19012TIP3   OH278450   2.411   0.339  16.708  0.3401  0.0122 -0.0092
19012TIP3    H178451   2.435   0.247  16.697 -1.5824 -0.4761 -0.4907
19012TIP3    H278452   2.468   0.385  16.647  0.8717 -0.9376 -0.2536
19013TIP3   OH278453   0.852   0.104   4.718 -0.1500 -0.9401  0.1093
19013TIP3    H178454   0.912   0.116   4.645 -0.7998  1.1069 -0.1480
19013TIP3    H278455   0.768   0.083   4.677  0.2888 -3.9737  0.4722
19014TIP3   OH278456   4.925   1.092  15.600 -0.6615  0.7841 -0.1770
19014TIP3    H178457   4.836   1.065  15.623  0.0933 -0.3509  1.5789
19014TIP3    H278458   4.931   1.182  15.632 -1.4534  1.2029 -1.1532
19015TIP3   OH278459   2.168   2.350  13.464  0.6288  0.1385 -0.0457
19015TIP3    H178460   2.111   2.277  13.488  1.2842 -0.1283  0.7064
19015TIP3    H278461   2.220   2.367  13.542 -0.3361  2.2101  0.2294
19016TIP3   OH278462   6.675   4.752   3.627 -0.2367  0.6807  0.0782
19016TIP3    H178463   6.730   4.694   3.574 -1.3676 -0.9378  0.6257
19016TIP3    H278464   6.719   4.755   3.712 -0.4030  0.2619  0.1818
19017TIP3   OH278465   4.341   6.189   0.981  0.6760  0.8720  0.0009
19017TIP3    H178466   4.310   6.180   1.071  1.2224 -0.2666  0.0858
19017TIP3    H278467   4.261   6.188   0.928  0.3381  1.7259  0.4708
19018TIP3   OH278468   6.203   5.472   1.779  0.2456  0.6128  0.1507
19018TIP3    H178469   6.113   5.441   1.789 -0.2652  1.3100 -1.7632
19018TIP3    H278470   6.244   5.456   1.863 -2.0206  1.3751  1.4888
19019TIP3   OH278471   3.547   4.119  15.776  0.3991  0.5109 -0.3360
19019TIP3    H178472   3.473   4.174  15.801  1.2529  0.8188  1.6493
19019TIP3    H278473   3.624   4.174  15.791  1.1632 -0.5642 -0.1689
19020TIP3   OH278474   6.441   2.310   6.243  0.4180  0.5118  0.2451
19020TIP3    H178475   6.535   2.326   6.252  0.3001  1.1046  0.4747
19020TIP3    H278476   6.426   2.227   6.288  0.7653  0.6108  0.5479
19021TIP3   OH278477   0.973   6.174  16.485 -0.1340 -0.2898  0.4381
19021TIP3    H178478   0.963   6.159  16.579 -1.4823  0.0077  0.3628
19021TIP3    H278479   1.050   6.231  16.478  1.0962 -1.7735  1.1982
19022TIP3   OH278480   3.383   1.065  11.820 -0.8886 -0.0577  0.2041
19022TIP3    H178481   3.411   1.058  11.911  0.1829  3.1813  0.2605
19022TIP3    H278482   3.447   1.013  11.771 -0.9360 -1.0779  1.1916
19023TIP3   OH278483   0.006   3.195  14.265 -0.0774 -0.4569  0.0392
19023TIP3    H178484  -0.037   3.272  14.228  1.4321  0.9214  0.9692
19023TIP3    H278485   0.084   3.183  14.211 -0.7530 -1.8987 -0.6368
19024TIP3   OH278486   1.812   3.593   5.473 -0.1835  0.8610 -0.0256
19024TIP3    H178487   1.775   3.641   5.399 -1.9330  0.6280  0.6500
19024TIP3    H278488   1.855   3.518   5.434  0.9499  1.9433 -0.9542
19025TIP3   OH278489   4.620   2.922   6.252  0.3280  0.4670  0.0561
19025TIP3    H178490   4.701   2.893   6.295  0.0398  0.1493  0.3939
19025TIP3    H278491   4.650   2.969   6.174  0.8281 -0.9593 -0.6724
19026TIP3   OH278492   1.568   2.834   1.563  0.3967  0.2658 -0.5395
19026TIP3    H178493   1.630   2.799   1.627  1.0407 -4.3541 -3.2564
19026TIP3    H278494   1.483   2.802   1.592  0.5903 -1.1685 -1.4539
19027TIP3   OH278495   1.072   4.911   3.170 -0.0570 -0.2306  0.1523
19027TIP3    H178496   1.072   4.816   3.163 -0.6283 -0.0825 -2.9095
19027TIP3    H278497   1.143   4.940   3.113 -0.2515  1.2141  0.5935
19028TIP3   OH278498   3.086   2.315   5.013 -0.3427  0.4457 -0.2404
19028TIP3    H178499   3.132   2.369   4.949 -0.6495  0.6421 -0.2975
19028TIP3    H278500   3.106   2.356   5.098 -0.4455  0.5561 -0.2691
19029TIP3   OH278501   2.960   6.520   3.424 -0.4168  0.1272  0.6112
19029TIP3    H178502   2.928   6.608   3.405  1.2172  0.4255 -0.9825
19029TIP3    H278503   3.055   6.526   3.415 -0.2275 -1.7092  0.9166
19030TIP3   OH278504   4.551   5.642  13.970  0.0148 -0.0070  0.1071
19030TIP3    H178505   4.525   5.581  13.901  1.1058 -0.9400  0.4772
19030TIP3    H278506   4.494   5.619  14.044 -1.5552  1.3817 -0.6185
19031TIP3   OH278507   6.708   5.255   0.150 -0.1017  0.1395 -0.4676
19031TIP3    H178508   6.658   5.315   0.095 -1.2926 -1.3084 -1.0461
19031TIP3    H278509   6.799   5.267   0.123 -0.4657  0.7634 -1.4501
19032TIP3   OH278510   4.593   4.190   1.270  0.3883 -0.0950 -0.6582
19032TIP3    H178511   4.559   4.214   1.356  0.9551  1.8131 -0.9045
19032TIP3    H278512   4.600   4.274   1.223  0.6527 -1.0152 -2.3509
19033TIP3   OH278513   5.826   4.765  10.861 -0.0156 -0.0958  0.1293
19033TIP3    H178514   5.898   4.787  10.802 -1.0165  2.3834 -0.2723
19033TIP3    H278515   5.763   4.719  10.805 -0.1198  0.5436 -0.2860
19034TIP3   OH278516   5.449   4.516  11.639  0.1843 -0.1051  0.5916
19034TIP3    H178517   5.379   4.549  11.694 -0.2608 -1.3712  0.8202
19034TIP3    H278518   5.408   4.447  11.587  1.0855 -0.3610  0.1969
19035TIP3   OH278519   5.227   5.489  15.083 -0.0256  0.1272 -0.6147
19035TIP3    H178520   5.246   5.583  15.087  0.8183 -0.0351 -0.4880
19035TIP3    H278521   5.291   5.450  15.143 -1.7604 -0.3471  0.9875
19036TIP3   OH278522   4.485   3.298   3.692 -0.8113 -0.2134 -0.1970
19036TIP3    H178523   4.536   3.351   3.754 -0.0037  0.1074 -1.1172
19036TIP3    H278524   4.551   3.256   3.637 -1.4676 -1.6490  0.0683
19037TIP3   OH278525   4.531   6.343   5.333 -0.0484  0.4935  0.0747
19037TIP3    H178526   4.500   6.428   5.364 -0.0212  0.3071  0.6205
19037TIP3    H278527   4.457   6.283   5.349 -0.5791  0.6618 -1.5394
19038TIP3   OH278528   5.607   5.848   4.255 -0.1000 -0.4975 -0.5502
19038TIP3    H178529   5.593   5.830   4.162  0.5853  0.2102 -0.8041
19038TIP3    H278530   5.612   5.943   4.261 -0.1655 -0.5346  0.2177
19039TIP3   OH278531   2.757   3.486  11.229  0.3231  0.7539  0.3302
19039TIP3    H178532   2.670   3.460  11.258  0.1512  1.4967  0.5028
19039TIP3    H278533   2.806   3.404  11.223 -0.5208  0.2748 -0.2221
19040TIP3   OH278534   3.467   0.572   4.691  0.1205 -0.1089  0.0267
19040TIP3    H178535   3.527   0.583   4.617  0.6706  1.3024  0.6505
19040TIP3    H278536   3.414   0.651   4.691  1.7849  1.1392  2.5801
19041TIP3   OH278537   3.650   0.992  12.211  0.2426 -0.1365 -0.7470
19041TIP3    H178538   3.729   0.964  12.164 -0.5228 -2.2247 -0.9204
19041TIP3    H278539   3.683   1.043  12.285  1.8088 -1.2114 -0.6352
19042TIP3   OH278540   6.695   4.170  12.609  0.1366  0.1999 -0.4739
19042TIP3    H178541   6.629   4.168  12.540 -1.2407  0.9065  0.7694
19042TIP3    H278542   6.750   4.245  12.588 -1.5982  1.7595  0.3237
19043TIP3   OH278543   4.292   1.354  15.003 -0.1693  0.2740 -0.5292
19043TIP3    H178544   4.348   1.286  14.966 -1.0687 -0.2694 -0.9175
19043TIP3    H278545   4.265   1.407  14.928 -1.3914 -0.3839 -0.5881
19044TIP3   OH278546   5.459   3.132   2.397 -0.8061 -0.0614  0.5583
19044TIP3    H178547   5.378   3.174   2.424  0.5424  3.2761 -0.0552
19044TIP3    H278548   5.524   3.161   2.462  0.3885 -0.4882 -0.4054
19045TIP3   OH278549   0.636   0.071   6.019 -0.7950  0.0971  0.1984
19045TIP3    H178550   0.597   0.052   5.933  2.6181 -0.6429 -1.3531
19045TIP3    H278551   0.621   0.164   6.032  0.8808  0.8716 -2.5814
19046TIP3   OH278552   1.111   1.279   1.803  0.0635 -0.2419 -0.1859
19046TIP3    H178553   1.140   1.233   1.725  1.3427  0.9634 -0.4652
19046TIP3    H278554   1.044   1.340   1.772 -0.3076 -0.6316 -0.1397
19047TIP3   OH278555   6.363   2.007   0.384  0.1142 -0.4259  0.4842
19047TIP3    H178556   6.347   1.976   0.295  1.5607  1.5001 -0.5174
19047TIP3    H278557   6.459   2.012   0.391 -0.0005  0.5584  1.7249
19048TIP3   OH278558   6.032   3.691   3.666 -0.2433  0.0785  0.2687
19048TIP3    H178559   6.059   3.763   3.609 -1.4938  0.8329  0.5881
19048TIP3    H278560   6.003   3.622   3.606  1.5034 -0.4125 -0.0543
19049TIP3   OH278561   0.733   3.723   6.219 -0.2184 -0.6766 -0.0710
19049TIP3    H178562   0.690   3.645   6.184  2.0932 -1.8048 -0.5865
19049TIP3    H278563   0.751   3.777   6.142  1.4525 -1.3846 -0.2127
19050TIP3   OH278564   3.856   3.626  15.206 -0.0478 -0.2015 -0.6586
19050TIP3    H178565   3.919   3.570  15.251 -0.5727  1.3507  2.2751
19050TIP3    H278566   3.773   3.610  15.251 -0.5019  1.8304 -0.6657
19051TIP3   OH278567   3.629   5.972   5.918  0.9613  0.2025  0.4526
19051TIP3    H178568   3.574   6.047   5.942  0.9076  0.2402  0.2134
19051TIP3    H278569   3.575   5.896   5.940  0.5716  0.2438 -0.3334
19052TIP3   OH278570   0.658   2.224   2.913  0.2322  0.1764 -0.0493
19052TIP3    H178571   0.661   2.185   3.001  0.5868 -0.5510 -0.3717
19052TIP3    H278572   0.661   2.318   2.929 -2.1625  0.1650  0.8156
19053TIP3   OH278573   4.623   6.118   5.855  0.1028  0.2940 -0.5774
19053TIP3    H178574   4.605   6.159   5.940  0.3813 -1.1653  0.2091
19053TIP3    H278575   4.660   6.189   5.802 -1.5363  1.6263 -0.0185
19054TIP3   OH278576   1.053   3.662  10.965  0.2209  0.2907  0.8153
19054TIP3    H178577   1.104   3.734  11.003  0.9242  0.1046  0.2400
19054TIP3    H278578   1.009   3.701  10.890  0.5863  0.1255  0.5153
19055TIP3   OH278579   1.553   1.263  16.907 -0.7156  0.2143  0.6485
19055TIP3    H178580   1.476   1.228  16.860  0.3817 -1.1552 -0.2134
19055TIP3    H278581   1.572   1.345  16.862 -0.9460 -0.0424  0.0609
19056TIP3   OH278582   2.445   0.270  13.135  0.5013  0.6139 -0.1725
19056TIP3    H178583   2.503   0.326  13.082  0.6090  0.5052 -0.1705
19056TIP3    H278584   2.364   0.264  13.084  0.0831  1.6738  0.3434
19057TIP3   OH278585   1.733   2.233   2.642  0.3249  0.6860 -0.2197
19057TIP3    H178586   1.683   2.152   2.639  0.8622  0.3894 -2.0224
19057TIP3    H278587   1.818   2.206   2.678 -0.4550  1.0486  2.0750
19058TIP3   OH278588   1.695   5.677   2.960  0.1929  0.0289  0.2787
19058TIP3    H178589   1.655   5.753   2.916  0.5320  0.4628  0.7076
19058TIP3    H278590   1.784   5.674   2.927  0.3548  0.1690  0.6872
19059TIP3   OH278591   3.646   4.384   2.876  0.1758 -0.6166  0.3262
19059TIP3    H178592   3.695   4.332   2.813  1.3080  0.3684  0.3628
19059TIP3    H278593   3.711   4.413   2.940  0.0435  2.3744 -0.6965
19060TIP3   OH278594   4.622   4.328  17.103 -0.2074  0.3448 -0.2425
19060TIP3    H178595   4.572   4.247  17.108 -0.0573  0.1699 -1.3062
19060TIP3    H278596   4.654   4.331  17.013 -0.3743  1.6849 -0.2752
19061TIP3   OH278597   1.544   5.367   2.942 -0.5038  0.4135  0.1624
19061TIP3    H178598   1.567   5.459   2.954  0.1853  0.2974 -0.2013
19061TIP3    H278599   1.481   5.349   3.011 -0.7919  1.2102  0.1167
19062TIP3   OH278600   4.231   0.243   6.129 -0.0132  0.2214  0.0658
19062TIP3    H178601   4.262   0.288   6.208 -0.5995  1.0848 -0.1834
19062TIP3    H278602   4.138   0.265   6.124 -0.4217 -1.3835  0.1593
19063TIP3   OH278603   4.176   2.177  12.439 -0.0077  0.1990  0.3496
19063TIP3    H178604   4.237   2.130  12.495 -0.2805 -0.4225  0.1363
19063TIP3    H278605   4.116   2.109  12.406 -0.3127  0.6692 -0.0862
19064TIP3   OH278606   0.302   4.712   6.449  0.0776 -0.5472  0.2665
19064TIP3    H178607   0.214   4.681   6.470 -0.3016  0.6062  0.4804
19064TIP3    H278608   0.353   4.633   6.435 -0.9030 -1.2431  0.5216
19065TIP3   OH278609   0.802   2.414   2.184  0.2928 -1.0838  0.4969
19065TIP3    H178610   0.756   2.467   2.248 -0.3501 -0.1515 -0.6872
19065TIP3    H278611   0.804   2.326   2.222  0.4531 -0.4406  2.0234
19066TIP3   OH278612   2.898   5.379  16.242 -0.7435 -0.3068 -0.1671
19066TIP3    H178613   2.874   5.467  16.272  2.0685  0.3536  0.5072
19066TIP3    H278614   2.828   5.353  16.183 -1.2171  2.7969 -1.1178
19067TIP3   OH278615   3.136   2.374  16.093 -0.1403 -0.3511  0.5230
19067TIP3    H178616   3.138   2.377  15.997 -0.3456  0.8437  0.5407
19067TIP3    H278617   3.206   2.312  16.116  0.1412 -0.3949 -0.3835
19068TIP3   OH278618   6.277   2.353   4.935  0.4754  0.4921 -0.6710
19068TIP3    H178619   6.267   2.281   4.997 -1.5693  1.3231  0.0421
19068TIP3    H278620   6.189   2.367   4.900  0.6759  2.9498 -0.3840
19069TIP3   OH278621   1.746   1.727   1.721  0.4601 -0.3064  0.8678
19069TIP3    H178622   1.837   1.717   1.751  0.5858 -0.6728  0.3696
19069TIP3    H278623   1.694   1.680   1.786  0.8235 -2.0376 -0.0300
19070TIP3   OH278624   4.256   5.458  12.624 -0.4643 -0.6984  0.5215
19070TIP3    H178625   4.189   5.442  12.691 -0.3999 -0.0594  0.7489
19070TIP3    H278626   4.313   5.381  12.628 -0.9905 -1.0849  0.5662
19071TIP3   OH278627   4.621   1.415   0.398 -0.2402 -0.3473 -0.2562
19071TIP3    H178628   4.544   1.398   0.451  0.2807 -0.7893  0.3823
19071TIP3    H278629   4.694   1.380   0.449  0.6903  2.1139  0.2933
19072TIP3   OH278630   4.917   3.766   3.136 -0.1333  0.4040 -0.3106
19072TIP3    H178631   4.981   3.794   3.202 -0.5317  1.4866 -0.3624
19072TIP3    H278632   4.875   3.847   3.108 -2.9263 -0.4310  1.1373
19073TIP3   OH278633   6.345   6.654   3.326  0.1432 -0.3245 -0.1984
19073TIP3    H178634   6.292   6.693   3.257 -1.9621 -1.5544  0.6477
19073TIP3    H278635   6.425   6.625   3.282 -0.3146  0.6111 -1.7137
19074TIP3   OH278636   2.839   4.527   5.752 -0.9416 -0.0394  0.0070
19074TIP3    H178637   2.779   4.464   5.712 -1.6336  1.7249 -1.9313
19074TIP3    H278638   2.782   4.597   5.784 -0.2146 -0.4640  2.3575
19075TIP3   OH278639   1.938   6.248  12.600 -0.8684 -0.1212 -0.2329
19075TIP3    H178640   2.027   6.219  12.621 -0.1159  1.6628 -0.8012
19075TIP3    H278641   1.882   6.191  12.653  0.6411 -0.6421  0.8971
19076TIP3   OH278642   3.486   4.163  16.623  0.1077  0.0790  0.2788
19076TIP3    H178643   3.532   4.113  16.555 -1.7438 -1.4019  0.0540
19076TIP3    H278644   3.533   4.247  16.626  1.7767 -0.7419 -1.0615
19077TIP3   OH278645   6.633   3.040   2.808  0.5014 -0.0244  0.9194
19077TIP3    H178646   6.610   2.951   2.779  0.0614 -0.0971  1.4621
19077TIP3    H278647   6.568   3.060   2.876  0.0210  1.0698  0.1716
19078TIP3   OH278648   3.935   5.276   2.456 -0.0202  0.2682  0.0440
19078TIP3    H178649   3.902   5.353   2.409 -0.9564  0.7739  1.4516
19078TIP3    H278650   3.860   5.246   2.508  1.4774  1.0697  2.9125
19079TIP3   OH278651   6.043   5.714   3.288  0.3431  0.6399  0.0469
19079TIP3    H178652   6.068   5.685   3.376  0.0649  0.2752  0.0069
19079TIP3    H278653   6.098   5.791   3.272 -1.0748  1.9916  1.3728
19080TIP3   OH278654   5.313   4.166   4.591 -0.0798  0.0860  0.0493
19080TIP3    H178655   5.322   4.257   4.564  0.3972  0.0255  0.0016
19080TIP3    H278656   5.402   4.139   4.615 -0.3305 -0.1490  0.7597
19081TIP3   OH278657   1.962   5.506  14.316  0.4571  0.1496 -0.2649
19081TIP3    H178658   2.043   5.456  14.331  0.7812 -0.0270 -2.2608
19081TIP3    H278659   1.951   5.558  14.395  1.8965 -0.6950  0.5380
19082TIP3   OH278660   6.305   5.397   3.485  0.3004  0.7630 -0.2031
19082TIP3    H178661   6.261   5.450   3.551 -0.9547 -0.3577 -0.0702
19082TIP3    H278662   6.298   5.307   3.518  3.3506  0.5762  0.1304
19083TIP3   OH278663   1.727   5.723  14.684  0.0036  0.1529 -0.1432
19083TIP3    H178664   1.636   5.698  14.673  0.3880 -1.1330 -0.6161
19083TIP3    H278665   1.729   5.773  14.765 -1.0112 -0.4069  0.2464
19084TIP3   OH278666   0.988   4.686   2.926  0.3197  0.0007  0.4183
19084TIP3    H178667   0.907   4.669   2.974  0.1517 -1.0909 -0.2229
19084TIP3    H278668   0.982   4.778   2.900  0.2795  0.5431  2.1903
19085TIP3   OH278669   0.568   5.905  12.959  0.1614 -0.1084 -0.1321
19085TIP3    H178670   0.489   5.949  12.928  1.1915  1.4335 -0.7271
19085TIP3    H278671   0.539   5.851  13.033 -1.3138  0.9278  0.0839
19086TIP3   OH278672   5.620   4.109  16.417 -0.5307  0.3006 -0.1591
19086TIP3    H178673   5.699   4.075  16.460  0.5042  0.6390 -1.7133
19086TIP3    H278674   5.583   4.035  16.370 -1.4442  0.0249  0.9526
19087TIP3   OH278675   4.105   1.071  12.407  0.4817 -0.3588 -0.0314
19087TIP3    H178676   4.199   1.083  12.420  0.5674 -0.2158 -0.7264
19087TIP3    H278677   4.098   1.023  12.324 -0.0540 -0.4352  0.0524
19088TIP3   OH278678   1.464   3.348   2.556  0.0111 -0.2717 -0.1861
19088TIP3    H178679   1.431   3.274   2.607  0.8543 -1.0718 -0.7734
19088TIP3    H278680   1.386   3.387   2.517 -0.8832  1.3675  2.9198
19089TIP3   OH278681   2.755   1.598  15.447  0.3024 -0.3498 -0.3002
19089TIP3    H178682   2.843   1.606  15.484 -0.4802 -2.0083  2.1718
19089TIP3    H278683   2.706   1.548  15.513 -2.0519 -0.9217 -2.3552
19090TIP3   OH278684   3.203   3.180  11.042 -0.0860 -0.0757  0.1500
19090TIP3    H178685   3.294   3.153  11.037  0.8572  2.9431 -1.3427
19090TIP3    H278686   3.157   3.118  10.985  0.5061 -3.0207  2.6314
19091TIP3   OH278687   6.279   1.316  14.705  0.5841  0.4378  0.1825
19091TIP3    H178688   6.193   1.292  14.740  0.7559 -0.0765  0.2684
19091TIP3    H278689   6.326   1.351  14.781  0.6639  0.1228  0.2819
19092TIP3   OH278690   0.283   3.095   4.354 -0.2118 -0.1356  0.1157
19092TIP3    H178691   0.308   3.027   4.291  0.4624 -0.3751  0.6314
19092TIP3    H278692   0.325   3.174   4.321 -0.9513  0.0331 -0.4550
19093TIP3   OH278693   5.843   5.969  13.093 -0.1139  0.0959  0.2570
19093TIP3    H178694   5.833   5.880  13.130 -2.4579 -0.5243 -1.6375
19093TIP3    H278695   5.926   5.966  13.046 -1.1954 -1.9123 -1.6931
19094TIP3   OH278696   1.227   6.492  15.947  0.2868  0.4033  0.2878
19094TIP3    H178697   1.150   6.447  15.983  1.6677 -2.2470  0.2088
19094TIP3    H278698   1.217   6.483  15.852  0.6167  0.1875  0.2727
19095TIP3   OH278699   2.943   2.960   0.700 -0.0483 -0.1611  0.1863
19095TIP3    H178700   2.962   2.954   0.606 -3.6805 -1.1054 -0.6331
19095TIP3    H278701   2.901   2.877   0.721  1.1519 -0.1932  2.8515
19096TIP3   OH278702   6.749   6.385  10.895  0.5453 -0.4479 -0.2788
19096TIP3    H178703   6.726   6.431  10.814  0.2900 -0.4962 -0.2340
19096TIP3    H278704   6.691   6.309  10.897  0.8258 -0.6620 -0.2479
19097TIP3   OH278705   1.517   0.261   3.568 -0.0986  0.0979 -0.0645
19097TIP3    H178706   1.442   0.286   3.515  0.6562  1.5075 -0.5148
19097TIP3    H278707   1.567   0.201   3.513  0.5813  1.4072 -0.9271
19098TIP3   OH278708   5.816   4.016  14.166 -0.0503 -0.8002  0.2654
19098TIP3    H178709   5.774   4.102  14.160  0.3069 -0.5536  1.1666
19098TIP3    H278710   5.792   3.972  14.084 -0.0629  0.2286 -0.2952
19099TIP3   OH278711   1.610   3.413  15.062 -0.0737 -0.1468 -0.3039
19099TIP3    H178712   1.659   3.486  15.025  0.5291 -1.2663 -1.7958
19099TIP3    H278713   1.518   3.439  15.054  0.1706  1.1932  0.8530
19100TIP3   OH278714   0.746   0.812   1.352 -0.1931  0.1864 -0.4885
19100TIP3    H178715   0.798   0.828   1.273  0.6632  3.1199  0.5159
19100TIP3    H278716   0.676   0.877   1.348 -0.9348 -0.5299  0.5244
19101TIP3   OH278717   5.424   0.284   4.866 -0.1096 -0.4389 -0.0739
19101TIP3    H178718   5.387   0.196   4.877 -1.5792 -0.0515 -1.4956
19101TIP3    H278719   5.368   0.325   4.800  0.9486  1.3482  0.0831
19102TIP3   OH278720   3.421   0.849  13.913  0.4336  0.3503  0.2304
19102TIP3    H178721   3.484   0.921  13.919  1.6518 -0.5305 -1.1731
19102TIP3    H278722   3.336   0.892  13.910  1.0574  1.6691  0.4809
19103TIP3   OH278723   6.259   2.720  13.989  0.4552  0.1065  0.1830
19103TIP3    H178724   6.331   2.682  13.939 -0.8005  0.8617 -2.3782
19103TIP3    H278725   6.225   2.648  14.041  1.0532 -1.1062 -1.0362
19104TIP3   OH278726   0.401   0.000  14.026 -0.1641  0.3143 -0.9408
19104TIP3    H178727   0.354  -0.038  14.100  0.9675 -0.4895 -0.6210
19104TIP3    H278728   0.408  -0.072  13.963  0.6103  0.4414 -1.0023
19105TIP3   OH278729   3.783   1.773  14.345  0.6489 -0.2330 -0.6383
19105TIP3    H178730   3.699   1.753  14.386  1.5536  0.6093  1.8350
19105TIP3    H278731   3.804   1.696  14.292 -0.4937 -1.5480  0.7456
19106TIP3   OH278732   2.156   4.477   5.774  0.0146 -0.3599 -0.1621
19106TIP3    H178733   2.091   4.472   5.843 -0.0296  1.7524  0.0064
19106TIP3    H278734   2.146   4.564   5.737  3.0470  0.2645  0.1825
19107TIP3   OH278735   3.037   4.568   2.528  0.2204 -0.3721  0.1265
19107TIP3    H178736   3.079   4.644   2.487 -1.1452  1.4081  1.8246
19107TIP3    H278737   2.948   4.598   2.548 -0.4112 -2.4883  0.7748
19108TIP3   OH278738   0.936   2.905   0.467 -0.1336  0.2544 -0.1650
19108TIP3    H178739   1.024   2.870   0.479 -0.1483  0.8806  2.4784
19108TIP3    H278740   0.925   2.912   0.372  1.3398 -3.0655 -0.7406
19109TIP3   OH278741   1.612   4.687  16.751 -0.5040  0.2196  0.3814
19109TIP3    H178742   1.578   4.638  16.825 -1.0792 -1.1944 -0.7604
19109TIP3    H278743   1.681   4.743  16.788  1.4240 -2.6656  1.5440
19110TIP3   OH278744   5.512   5.775  16.262 -0.1959 -0.1542 -0.2597
19110TIP3    H178745   5.584   5.797  16.203  0.8688 -0.2082  0.9744
19110TIP3    H278746   5.446   5.736  16.206  0.4831  0.4568 -1.5225
19111TIP3   OH278747   4.346   0.727   1.976 -0.3434  0.9479 -0.6538
19111TIP3    H178748   4.358   0.632   1.973  1.6903  1.0074  1.8151
19111TIP3    H278749   4.264   0.739   2.023  0.3569  0.3506  0.7980
19112TIP3   OH278750   0.020   6.514  14.879 -0.3633  0.2593  0.3984
19112TIP3    H178751  -0.040   6.563  14.822  1.4135  0.2686 -1.5638
19112TIP3    H278752   0.036   6.432  14.832  0.9703  0.1639  0.9800
19113TIP3   OH278753   0.714   0.418  13.228  0.0139 -0.4432  1.2443
19113TIP3    H178754   0.664   0.413  13.310  0.2399  0.4417  1.4464
19113TIP3    H278755   0.732   0.511  13.217 -1.0404 -0.4082 -0.4547
19114TIP3   OH278756   2.612   5.544  11.690 -0.5940 -0.0820  0.3398
19114TIP3    H178757   2.520   5.572  11.684 -1.3337 -2.3408  0.3204
19114TIP3    H278758   2.627   5.531  11.783  0.4130  2.2736  0.5769
19115TIP3   OH278759   4.664   2.455  14.068  0.0409 -0.0939  0.2964
19115TIP3    H178760   4.703   2.487  14.149 -0.6387  0.6468  0.3434
19115TIP3    H278761   4.590   2.513  14.052 -0.2577 -0.6643 -0.4848
19116TIP3   OH278762   4.071   4.767   0.590 -0.1477 -0.5124  0.3737
19116TIP3    H178763   4.014   4.761   0.667  0.7030  0.5097  1.1254
19116TIP3    H278764   4.012   4.758   0.515 -0.8252 -2.8320  1.1285
19117TIP3   OH278765   1.050   4.294  13.891  0.4414 -0.0527 -0.0881
19117TIP3    H178766   1.064   4.203  13.864 -0.0387 -0.2722  0.3884
19117TIP3    H278767   0.955   4.301  13.903  0.2950  0.9175 -1.5497
19118TIP3   OH278768   6.003   3.474  11.623 -0.3086 -0.2430 -0.5841
19118TIP3    H178769   6.081   3.420  11.615  0.2253  0.2423  0.9359
19118TIP3    H278770   6.036   3.564  11.631 -0.9105 -0.1458  1.2465
19119TIP3   OH278771   2.535   2.495  12.101  0.6993  0.0059  0.1316
19119TIP3    H178772   2.567   2.421  12.153  1.1336  0.1419  0.0632
19119TIP3    H278773   2.614   2.529  12.058  0.4332  0.2494 -0.1624
19120TIP3   OH278774   4.344   2.772  11.934  0.1446 -0.8146 -0.5084
19120TIP3    H178775   4.290   2.851  11.940  1.9420  0.3896  1.0161
19120TIP3    H278776   4.289   2.702  11.970  0.0305  0.6551  2.4689
19121TIP3   OH278777   5.139   0.395  15.784  0.4583 -0.7970 -0.3855
19121TIP3    H178778   5.104   0.469  15.834  0.3589 -1.3495  0.3746
19121TIP3    H278779   5.066   0.366  15.730  0.1344 -1.0887  0.1982
19122TIP3   OH278780   0.273   1.352   2.671  0.4691 -0.9730  0.3178
19122TIP3    H178781   0.356   1.341   2.624  1.2225 -2.5758  1.8711
19122TIP3    H278782   0.288   1.428   2.727 -1.0569  2.0969 -3.0685
19123TIP3   OH278783   2.371   0.251  10.459 -0.3234 -0.6257  0.0967
19123TIP3    H178784   2.407   0.236  10.547 -1.6117  1.1967  0.9807
19123TIP3    H278785   2.319   0.172  10.441 -2.6795  0.2688  2.3976
19124TIP3   OH278786   5.812   5.148  12.975 -0.0086 -0.4464 -0.0198
19124TIP3    H178787   5.806   5.183  13.064  0.6482  1.3720 -0.6400
19124TIP3    H278788   5.900   5.113  12.968 -0.0388 -0.5323  0.0247
19125TIP3   OH278789   1.900   5.701  15.444  0.3009 -0.2430  0.4174
19125TIP3    H178790   1.981   5.667  15.407 -0.2527 -0.5866 -0.5157
19125TIP3    H278791   1.921   5.790  15.471  1.3360 -0.7702  1.3976
19126TIP3   OH278792   5.215   2.094   1.055  0.0602  0.3196 -0.2082
19126TIP3    H178793   5.208   2.064   1.146 -0.7831  2.7812  0.6389
19126TIP3    H278794   5.187   2.186   1.059  1.2697  0.8653 -2.7596
19127TIP3   OH278795   0.168   5.124  14.392 -0.4057  0.0924 -0.4191
19127TIP3    H178796   0.259   5.096  14.391  0.1783  1.8494 -2.2292
19127TIP3    H278797   0.148   5.138  14.484  0.7317 -1.5152  0.1161
19128TIP3   OH278798   5.726   6.066   2.331 -0.2248 -0.2179  0.4489
19128TIP3    H178799   5.784   6.023   2.393  0.4546  0.8138  0.5626
19128TIP3    H278800   5.780   6.083   2.254 -1.2305 -2.0553 -0.7161
19129TIP3   OH278801   3.192   4.019   2.634  0.2781 -0.3924  0.3380
19129TIP3    H178802   3.231   3.953   2.578  0.4899  0.1499 -0.1621
19129TIP3    H278803   3.241   4.099   2.615 -0.5182  0.1058  0.3173
19130TIP3   OH278804   1.042   4.560   6.303  0.2476 -0.4779 -0.1416
19130TIP3    H178805   1.132   4.529   6.311  0.0556 -0.5324  3.0954
19130TIP3    H278806   1.048   4.654   6.320 -0.2097 -0.3408 -0.7298
19131TIP3   OH278807   0.840   2.655   3.613 -0.5197 -0.1084  0.0921
19131TIP3    H178808   0.872   2.679   3.700 -0.5913 -0.9226  0.3610
19131TIP3    H278809   0.864   2.728   3.556 -0.2566  0.3218  0.7499
19132TIP3   OH278810   5.630   6.508   1.573  0.0419 -0.8663  0.0704
19132TIP3    H178811   5.669   6.422   1.586 -0.5874 -1.2601 -0.5505
19132TIP3    H278812   5.536   6.492   1.578 -0.0619 -0.0547  0.8501
19133TIP3   OH278813   0.704   5.782   3.537 -0.0554 -0.7787  0.0921
19133TIP3    H178814   0.657   5.699   3.535 -1.5496  0.0352  0.3219
19133TIP3    H278815   0.637   5.848   3.553  1.4584  0.1981  3.4139
19134TIP3   OH278816   4.749   6.375   4.450 -0.1247  0.5776  0.5919
19134TIP3    H178817   4.690   6.450   4.438  1.6013  2.2283  1.7970
19134TIP3    H278818   4.743   6.327   4.367 -0.0930  2.9671 -0.9051
19135TIP3   OH278819   6.062   5.074  12.920  0.2291 -0.1288  0.4960
19135TIP3    H178820   6.122   5.099  12.990  0.6665  3.1806 -0.8979
19135TIP3    H278821   6.116   5.025  12.858  1.2299  1.5790 -0.0474
19136TIP3   OH278822   0.375   1.937   5.499 -0.1279 -0.0665 -0.4538
19136TIP3    H178823   0.298   1.962   5.448  0.0865  0.1354 -0.6815
19136TIP3    H278824   0.399   1.851   5.466 -1.2361 -0.8783  0.7559
19137TIP3   OH278825   1.283   4.692  16.412  0.4094 -0.2429  0.2190
19137TIP3    H178826   1.376   4.706  16.431  0.4531  1.6576 -1.1534
19137TIP3    H278827   1.259   4.763  16.353 -1.7881 -1.0409  0.0467
19138TIP3   OH278828   2.350   4.118  14.097  0.1306 -0.1548 -0.2219
19138TIP3    H178829   2.319   4.194  14.048 -1.3395 -2.5542 -3.3599
19138TIP3    H278830   2.281   4.103  14.163 -0.1764  0.5151 -0.3803
19139TIP3   OH278831   4.808   5.100  15.817  0.1037 -0.1694 -0.0292
19139TIP3    H178832   4.872   5.074  15.883  0.2312 -1.3014 -0.5671
19139TIP3    H278833   4.739   5.034  15.824 -1.8917  1.9128  1.6667
19140TIP3   OH278834   3.926   6.610  13.280  0.3174  0.2760  0.3591
19140TIP3    H178835   3.941   6.672  13.208  2.1067 -1.0537 -0.5075
19140TIP3    H278836   3.833   6.616  13.298 -0.4741 -0.2715 -2.9861
19141TIP3   OH278837   1.869   1.667  13.804  0.4384 -0.7103  0.1749
19141TIP3    H178838   1.793   1.619  13.773  0.0182 -0.9342  1.4857
19141TIP3    H278839   1.944   1.612  13.782  0.2931 -0.2561 -1.5791
19142TIP3   OH278840   0.554   5.858   0.586  0.1059  0.1813  0.2186
19142TIP3    H178841   0.527   5.848   0.495  0.8982  0.4263 -0.0533
19142TIP3    H278842   0.500   5.796   0.634 -1.3786  1.0909 -0.2091
19143TIP3   OH278843   2.344   0.404   4.706  0.1992  0.1851 -0.0854
19143TIP3    H178844   2.309   0.437   4.624  0.4337 -1.3441 -0.8433
19143TIP3    H278845   2.381   0.481   4.749 -0.3344  1.0925 -1.1849
19144TIP3   OH278846   5.169   5.571   4.971 -0.2352  0.5751 -0.2560
19144TIP3    H178847   5.160   5.481   4.938  0.4695  0.7893 -1.0856
19144TIP3    H278848   5.095   5.618   4.933  1.1341  1.0678 -2.5247
19145TIP3   OH278849   3.110   6.520  13.887  0.1096  0.3258 -0.2314
19145TIP3    H178850   3.058   6.542  13.810  0.5152  1.6231 -0.1656
19145TIP3    H278851   3.055   6.545  13.961 -0.2700 -0.8959 -0.0836
19146TIP3   OH278852   3.749   1.550   2.625  0.0117  0.9674  0.4213
19146TIP3    H178853   3.843   1.561   2.610 -0.2967  1.4256 -1.4696
19146TIP3    H278854   3.736   1.579   2.715  1.7754  0.2421  0.9637
19147TIP3   OH278855   0.609   2.353  14.096 -0.6432  0.7095 -0.3691
19147TIP3    H178856   0.601   2.262  14.068 -0.9931  0.7142 -0.2986
19147TIP3    H278857   0.686   2.355  14.152  0.1107  0.7192 -1.3895
19148TIP3   OH278858   0.644   4.419  12.410  0.0546 -0.3504 -0.2159
19148TIP3    H178859   0.667   4.359  12.340  0.3730  0.6393 -0.9763
19148TIP3    H278860   0.630   4.503  12.367  0.5469  0.3548  0.9361
19149TIP3   OH278861   4.325   4.374   6.019 -0.7649 -0.9785 -0.4712
19149TIP3    H178862   4.376   4.337   6.091 -0.2032 -2.2078 -1.4482
19149TIP3    H278863   4.303   4.462   6.047  0.8981 -0.8321  0.4969
19150TIP3   OH278864   3.729   5.158  12.665  0.1406  0.2509 -0.2774
19150TIP3    H178865   3.711   5.093  12.733  3.9740 -1.5130 -0.6700
19150TIP3    H278866   3.729   5.107  12.583  1.6972  1.0152 -0.7880
19151TIP3   OH278867   0.490   5.821   0.342 -0.0415 -0.2543  0.3991
19151TIP3    H178868   0.453   5.853   0.260  0.3290 -0.6188  0.0859
19151TIP3    H278869   0.523   5.733   0.321 -0.4850 -0.5935  1.0883
19152TIP3   OH278870   1.463   0.188  14.302  0.8616 -0.2534  0.2196
19152TIP3    H178871   1.520   0.223  14.234  2.1392 -3.0579 -0.2716
19152TIP3    H278872   1.513   0.199  14.383  1.3194 -1.0371  0.0486
19153TIP3   OH278873   1.302   0.280  15.487  0.3815  0.1180 -0.0307
19153TIP3    H178874   1.379   0.329  15.458  0.3527  1.0893  1.4194
19153TIP3    H278875   1.318   0.190  15.458  2.7765 -0.0315  1.4776
19154TIP3   OH278876   0.370   2.436  11.682  0.5100 -0.0699 -0.7004
19154TIP3    H178877   0.411   2.471  11.761  1.6893 -0.5543 -1.0673
19154TIP3    H278878   0.355   2.344  11.702 -0.7153  0.1679 -0.4633
19155TIP3   OH278879   0.453   0.207  15.862 -0.2873  0.0133  0.7677
19155TIP3    H178880   0.528   0.205  15.921  0.9261 -0.5814 -0.7109
19155TIP3    H278881   0.438   0.299  15.844  2.9032  0.1422 -2.2044
19156TIP3   OH278882   2.735   2.953  13.139  0.2693 -0.1165 -0.2136
19156TIP3    H178883   2.748   2.858  13.148  0.7986 -0.2400 -1.8452
19156TIP3    H278884   2.773   2.990  13.218  0.0217 -1.2775  0.4662
19157TIP3   OH278885   2.322   0.621  11.159 -0.3228 -0.4786  0.4462
19157TIP3    H178886   2.404   0.636  11.112 -0.6869 -2.0977 -0.8258
19157TIP3    H278887   2.284   0.708  11.172  0.0822  0.0813 -1.7901
19158TIP3   OH278888   4.251   5.796  14.930 -0.1468 -0.0187  0.0258
19158TIP3    H178889   4.308   5.813  14.855 -1.0091  1.6188 -0.3037
19158TIP3    H278890   4.164   5.785  14.891 -0.3015 -1.0177  0.6414
19159TIP3   OH278891   2.535   2.760   2.106  0.3859  0.1340 -0.2573
19159TIP3    H178892   2.441   2.742   2.098  0.4649 -0.4421  0.0258
19159TIP3    H278893   2.552   2.829   2.042 -0.2801  0.4376 -0.1136
19160TIP3   OH278894   5.514   6.719   6.137 -0.1154  0.3651  0.2871
19160TIP3    H178895   5.603   6.684   6.148 -0.1695 -0.3790 -1.3735
19160TIP3    H278896   5.514   6.760   6.051 -0.9207  1.9240  0.9852
19161TIP3   OH278897   2.191   4.947  16.434 -0.1201  0.5544  0.2908
19161TIP3    H178898   2.247   5.019  16.406  1.4212 -0.7410 -0.1396
19161TIP3    H278899   2.144   4.981  16.510  0.4764  2.0456  0.0239
19162TIP3   OH278900   0.876   1.106   4.524  0.2335  0.6855 -0.4640
19162TIP3    H178901   0.918   1.046   4.587  0.0399 -0.3695 -1.3206
19162TIP3    H278902   0.947   1.132   4.466  0.5493  2.1578  0.5222
19163TIP3   OH278903   6.128   5.818   0.586 -0.0627 -0.7889  0.1929
19163TIP3    H178904   6.100   5.732   0.616  0.8170 -0.6229  1.5523
19163TIP3    H278905   6.179   5.854   0.658  2.2466 -0.3982 -1.5300
19164TIP3   OH278906   0.512   3.801   5.606 -0.3798 -0.2948 -0.1862
19164TIP3    H178907   0.585   3.829   5.662 -0.7239 -0.3134  0.2818
19164TIP3    H278908   0.513   3.706   5.612 -0.2781 -0.3065 -0.3925
19165TIP3   OH278909   2.751   1.124  12.689  0.0737  0.4226  0.3767
19165TIP3    H178910   2.750   1.197  12.750  2.5551  0.6230  0.3106
19165TIP3    H278911   2.834   1.133  12.642  0.9778 -2.9083  1.0328
19166TIP3   OH278912   6.606   5.483   1.194  0.8125 -0.5306  0.4487
19166TIP3    H178913   6.606   5.397   1.153  1.4229  0.3751 -1.5475
19166TIP3    H278914   6.696   5.495   1.224  0.8922 -0.3234  0.1287
19167TIP3   OH278915   1.263   0.967  13.920 -0.3162  0.0016  0.3022
19167TIP3    H178916   1.296   0.945  14.007  1.3544  0.4237 -0.1747
19167TIP3    H278917   1.177   0.927  13.915  0.5542 -2.1153  1.2858
19168TIP3   OH278918   0.054   5.694  14.793 -0.0029 -0.5349 -0.0205
19168TIP3    H178919   0.109   5.746  14.852 -1.4029 -0.2375  1.0541
19168TIP3    H278920   0.039   5.751  14.718  0.3042 -0.2365  0.1417
19169TIP3   OH278921   2.393   5.645  14.616 -0.1875 -0.3513  0.3459
19169TIP3    H178922   2.393   5.674  14.525 -4.3175  1.1735  0.6158
19169TIP3    H278923   2.467   5.689  14.656  1.1879 -0.3561 -2.0222
19170TIP3   OH278924   3.081   5.642  12.700 -0.1075 -0.3413 -0.1377
19170TIP3    H178925   2.986   5.634  12.712 -0.1362  0.7392  0.4988
19170TIP3    H278926   3.110   5.554  12.676 -1.0004 -1.1810  1.6844
19171TIP3   OH278927   0.129   0.371  11.191 -0.3832  0.0497 -0.2707
19171TIP3    H178928   0.106   0.340  11.103  0.7460 -0.4432 -0.4045
19171TIP3    H278929   0.070   0.324  11.250  0.3880 -1.3466 -0.5846
19172TIP3   OH278930   0.143   1.115   3.001  0.0761  0.0261  0.4411
19172TIP3    H178931   0.092   1.161   2.934  2.5100  0.7173 -1.0931
19172TIP3    H278932   0.224   1.165   3.007  1.0978 -1.7026  1.8392
19173TIP3   OH278933   6.260   2.967   6.521 -0.0223  0.0882 -0.3712
19173TIP3    H178934   6.247   3.046   6.468 -1.8876 -0.1148 -0.2644
19173TIP3    H278935   6.328   2.992   6.584  1.2991  0.7597 -1.9538
19174TIP3   OH278936   3.924   6.610  16.697  0.6193 -0.2145  0.1283
19174TIP3    H178937   3.845   6.642  16.741  0.5805 -1.6495  1.1672
19174TIP3    H278938   3.956   6.685  16.647 -0.8599  0.6711  0.4638
19175TIP3   OH278939   1.953   2.620  13.991  0.1108 -0.8023  0.4593
19175TIP3    H178940   1.954   2.603  13.896 -0.0146 -1.1006  0.5103
19175TIP3    H278941   2.001   2.546  14.028  0.7999 -0.3096  0.5683
19176TIP3   OH278942   1.953   6.514  13.294 -0.1093 -0.1222 -0.0808
19176TIP3    H178943   1.959   6.594  13.347  0.9780 -1.8674  2.6542
19176TIP3    H278944   1.912   6.450  13.352  0.5788 -2.0230 -1.5753
19177TIP3   OH278945   1.744   2.223  11.614  0.3424 -0.2313 -0.2321
19177TIP3    H178946   1.741   2.251  11.706  2.0210 -1.5939  0.2907
19177TIP3    H278947   1.834   2.243  11.586 -0.2635  0.5549 -1.7484
19178TIP3   OH278948   3.055   5.621  15.116  0.0979  0.4991 -0.2711
19178TIP3    H178949   3.007   5.703  15.133 -1.5204 -0.5371  0.4361
19178TIP3    H278950   2.987   5.560  15.088  0.7271 -1.4170  2.0708
19179TIP3   OH278951   0.831   5.996  13.604  0.0728 -0.1318  0.5005
19179TIP3    H178952   0.769   5.996  13.677 -0.2095 -0.4886  0.2663
19179TIP3    H278953   0.895   6.063  13.627 -0.6851  0.6120  0.5091
19180TIP3   OH278954   6.733   2.084  10.456  0.2858  0.6932 -0.3947
19180TIP3    H178955   6.664   2.094  10.522  0.4898 -1.0350  0.1467
19180TIP3    H278956   6.716   2.153  10.392 -0.8341  1.4560  0.6793
19181TIP3   OH278957   1.799   4.050  13.938 -0.4096 -0.0853 -0.0830
19181TIP3    H178958   1.882   4.095  13.922 -1.1490  1.1812 -0.4967
19181TIP3    H278959   1.782   4.001  13.858  0.6549 -1.5649  0.5635
19182TIP3   OH278960   2.722   2.963  11.778 -0.6221  0.2482 -0.3743
19182TIP3    H178961   2.686   3.020  11.846 -1.2572  0.3126 -0.7590
19182TIP3    H278962   2.671   2.882  11.784 -0.0910 -0.0860 -0.1955
19183TIP3   OH278963   1.445   5.085  14.332  0.0250 -0.1852 -0.8895
19183TIP3    H178964   1.459   5.174  14.365 -0.5778 -0.2675 -0.3973
19183TIP3    H278965   1.520   5.068  14.276  1.4052 -0.2740  0.9144
19184TIP3   OH278966   3.663   4.956  15.988  0.0180 -0.0516 -0.0228
19184TIP3    H178967   3.649   4.878  15.935 -0.3527  0.2911 -0.4426
19184TIP3    H278968   3.757   4.956  16.007 -0.0327 -0.7522  0.2288
19185TIP3   OH278969   1.833   0.043   5.122 -0.4505 -0.3063 -0.0396
19185TIP3    H178970   1.795   0.126   5.151 -1.2606 -0.6521 -0.0832
19185TIP3    H278971   1.807  -0.020   5.189  1.8575 -0.1722  1.0785
19186TIP3   OH278972   0.586   6.579   4.423 -0.1637 -0.5783  0.1611
19186TIP3    H178973   0.555   6.569   4.513  0.0264 -1.2636  0.1507
19186TIP3    H278974   0.529   6.647   4.386  1.9282  2.3007  1.8201
19187TIP3   OH278975   0.156   1.725   2.592  0.0334  0.7533  0.4336
19187TIP3    H178976   0.138   1.668   2.667 -0.0755 -2.5740 -1.9116
19187TIP3    H278977   0.076   1.777   2.582 -1.2460 -1.0624  0.7628
19188TIP3   OH278978   0.485   5.594   3.136 -0.5576  0.6542 -0.2685
19188TIP3    H178979   0.437   5.656   3.190 -0.0109  0.5086  0.3984
19188TIP3    H278980   0.544   5.648   3.083 -0.6321  0.7535 -0.2487
19189TIP3   OH278981   4.796   3.991   0.793  0.6922 -0.6221  0.4029
19189TIP3    H178982   4.826   3.933   0.722 -0.4612 -0.9537  0.1583
19189TIP3    H278983   4.724   3.943   0.834 -0.9645  1.0156 -0.4338
19190TIP3   OH278984   5.360   0.332   3.858 -0.2933  0.6068 -0.9238
19190TIP3    H178985   5.353   0.310   3.951  2.0554 -1.8334 -1.2028
19190TIP3    H278986   5.358   0.427   3.856 -1.7694  0.7203  1.4438
19191TIP3   OH278987   5.128   4.563  16.528  0.0512 -0.0024 -0.2174
19191TIP3    H178988   5.047   4.552  16.478 -0.3129 -1.3950  0.6423
19191TIP3    H278989   5.194   4.513  16.479  0.3539  0.8996 -0.7639
19192TIP3   OH278990   4.783   2.957  11.172  0.2822 -0.6073  0.2978
19192TIP3    H178991   4.841   2.898  11.124 -0.4232 -1.3360  0.3132
19192TIP3    H278992   4.723   2.992  11.106  0.2056 -0.5146  0.4151
19193TIP3   OH278993   4.158   6.203   3.175 -0.2548 -0.0563 -0.1634
19193TIP3    H178994   4.136   6.267   3.242 -1.1041 -1.0444  0.5289
19193TIP3    H278995   4.253   6.200   3.175 -0.2532 -0.9843  1.9282
19194TIP3   OH278996   6.678   3.447   3.570  0.2048  0.4601 -0.0537
19194TIP3    H178997   6.765   3.434   3.532 -0.2638  1.3885 -1.4939
19194TIP3    H278998   6.652   3.360   3.601  1.0922 -0.0897 -0.8229
19195TIP3   OH278999   0.524   4.227  15.601  0.0505 -0.2918 -0.3288
19195TIP3    H179000   0.481   4.177  15.671  0.5623 -0.3663 -0.0600
19195TIP3    H279001   0.510   4.319  15.626  1.7505 -0.3006  0.8605
19196TIP3   OH279002   6.409   2.826  15.516 -0.2905 -0.1440 -0.3914
19196TIP3    H179003   6.420   2.846  15.423 -1.2194 -1.7418 -0.8813
19196TIP3    H279004   6.366   2.904  15.552  0.4503  0.6587 -1.1959
19197TIP3   OH279005   5.585   0.866   5.176 -0.0347  0.1862  0.1873
19197TIP3    H179006   5.569   0.941   5.233 -1.4359  0.3406 -0.3638
19197TIP3    H279007   5.680   0.855   5.176  0.3941  3.0809 -1.1243
19198TIP3   OH279008   3.200   4.370   3.449 -0.3553  0.6077  0.0098
19198TIP3    H179009   3.242   4.443   3.494 -0.8977  0.5107  0.6999
19198TIP3    H279010   3.265   4.299   3.451  0.3916  1.2261 -1.1700
19199TIP3   OH279011   5.174   2.076  15.272  0.6995 -0.1245  0.5076
19199TIP3    H179012   5.134   2.129  15.341  3.6630 -0.4586  2.6765
19199TIP3    H279013   5.261   2.055  15.305  1.9481 -1.1492 -2.9842
19200TIP3   OH279014   5.162   1.056  11.478  0.4478 -0.4092  0.6042
19200TIP3    H179015   5.182   1.147  11.458 -1.8478  0.5800  2.3629
19200TIP3    H279016   5.237   1.025  11.529  0.6277  0.9239  1.1680
19201TIP3   OH279017   3.435   1.254   1.730 -0.0084 -0.3266 -0.8399
19201TIP3    H179018   3.500   1.322   1.746  0.7001 -0.7848 -1.7421
19201TIP3    H279019   3.384   1.251   1.811  0.2565  0.9357 -0.6045
19202TIP3   OH279020   1.950   3.515   2.713 -0.1212  0.4488 -0.1537
19202TIP3    H179021   1.907   3.588   2.758 -1.8799 -1.0080  0.6414
19202TIP3    H279022   1.899   3.438   2.738  0.9309 -0.9036 -1.9425
19203TIP3   OH279023   2.562   0.830   0.132 -0.1080 -0.4698  0.1369
19203TIP3    H179024   2.617   0.898   0.092 -0.7147 -1.0238 -1.7807
19203TIP3    H279025   2.504   0.878   0.190  1.1799  0.3325  0.8050
19204TIP3   OH279026   6.312   3.706   3.727 -0.4559  0.6783 -0.5191
19204TIP3    H179027   6.376   3.733   3.661  1.6459 -0.4626  0.9251
19204TIP3    H279028   6.258   3.640   3.684  0.7671  0.0792 -1.1720
19205TIP3   OH279029   2.764   3.622   4.272  0.0624 -0.2237 -0.2992
19205TIP3    H179030   2.792   3.649   4.359  0.8678  1.4150 -1.0407
19205TIP3    H279031   2.802   3.535   4.261  0.8862  0.0148  0.5440
19206TIP3   OH279032   4.573   0.476  11.015  0.5440  0.5477  0.2163
19206TIP3    H179033   4.595   0.505  10.926  0.9844  0.3432  0.2557
19206TIP3    H279034   4.493   0.425  11.005  0.0695  1.3099  0.0674
19207TIP3   OH279035   5.216   4.654   3.288  0.1655 -0.7652 -0.4012
19207TIP3    H179036   5.188   4.716   3.355  0.2350  1.0907 -2.0010
19207TIP3    H279037   5.175   4.685   3.207  1.3288 -1.9992 -1.5327
19208TIP3   OH279038   5.465   6.039   4.920 -0.0804 -0.2482 -0.2064
19208TIP3    H179039   5.441   6.037   5.013 -0.3781 -0.8783 -0.2937
19208TIP3    H279040   5.463   5.947   4.893 -0.1389 -0.0489 -0.8770
19209TIP3   OH279041   6.730   1.924   3.336  0.5714 -0.2431 -0.2797
19209TIP3    H179042   6.662   1.962   3.280 -0.2038 -0.9619  0.1337
19209TIP3    H279043   6.766   1.998   3.385 -0.0336  0.1306 -0.3909
19210TIP3   OH279044   0.576   1.282  14.065  0.0788 -0.5495  0.2396
19210TIP3    H179045   0.561   1.190  14.087 -0.5994 -0.7241 -0.8508
19210TIP3    H279046   0.671   1.291  14.065  0.1731 -1.4173 -0.2357
19211TIP3   OH279047   1.268   6.786  11.882 -0.0781 -0.1036  0.2403
19211TIP3    H179048   1.288   6.727  11.810 -1.1615 -0.9692  0.6098
19211TIP3    H279049   1.251   6.870  11.840  1.5337 -0.0229 -0.2907
19212TIP3   OH279050   1.270   3.895  14.372  0.3495  0.1711 -0.3053
19212TIP3    H179051   1.297   3.805  14.390  1.6316  0.6658  0.3178
19212TIP3    H279052   1.315   3.917  14.290  0.1872  0.3134 -0.3565
19213TIP3   OH279053   5.130   2.473  17.179  0.4833 -0.7525  0.2363
19213TIP3    H179054   5.099   2.475  17.269  0.0468  0.2742  0.0809
19213TIP3    H279055   5.214   2.519  17.181 -0.5125  1.2199 -0.1955
19214TIP3   OH279056   2.181   1.315   0.706  0.0049  0.5926 -0.5154
19214TIP3    H179057   2.252   1.251   0.709 -0.6431 -0.2108 -1.4668
19214TIP3    H279058   2.222   1.396   0.677  0.7456  0.4791  0.1882
19215TIP3   OH279059   1.862   6.681   3.638 -0.3323 -0.1623 -0.5600
19215TIP3    H179060   1.940   6.635   3.670 -2.8195 -3.0907  1.8798
19215TIP3    H279061   1.860   6.762   3.690  0.6800 -0.3939 -0.1156
19216TIP3   OH279062   1.000   4.619  11.619 -0.4351 -0.0537  0.4456
19216TIP3    H179063   0.905   4.617  11.635 -0.7487 -1.0181 -1.2605
19216TIP3    H279064   1.034   4.541  11.661 -0.3540  0.3954  1.2277
19217TIP3   OH279065   3.760   4.325   3.538  0.6557 -0.0585 -0.2726
19217TIP3    H179066   3.697   4.378   3.489 -0.7136 -1.0680  0.3270
19217TIP3    H279067   3.705   4.265   3.589  1.9933  1.0219  2.6099
19218TIP3   OH279068   0.688   4.950   1.640  0.0252  0.7174  0.1824
19218TIP3    H179069   0.710   4.907   1.558  0.8173 -0.6168  1.0616
19218TIP3    H279070   0.765   5.004   1.660 -0.2885  1.2748 -0.0833
19219TIP3   OH279071   4.624   6.188  13.665 -0.3472  0.0129 -0.4245
19219TIP3    H179072   4.551   6.142  13.622 -1.8795  0.6136  1.3818
19219TIP3    H279073   4.583   6.266  13.702  1.5701  1.1855 -0.6605
19220TIP3   OH279074   1.160   4.121  12.039 -0.0624  0.0899 -0.2840
19220TIP3    H179075   1.215   4.198  12.022 -0.6745  0.4174 -0.8250
19220TIP3    H279076   1.222   4.048  12.038  0.5711  0.5953  0.5432
19221TIP3   OH279077   2.373   4.049   2.347 -0.0980 -0.3983  0.1904
19221TIP3    H179078   2.362   3.961   2.309  0.9631 -0.3693 -0.2252
19221TIP3    H279079   2.468   4.063   2.347 -0.2693  0.9016 -0.1032
19222TIP3   OH279080   2.986   6.010  12.085 -0.5305  0.4949 -0.0903
19222TIP3    H179081   2.974   6.000  12.180 -0.0915  0.0010 -0.0874
19222TIP3    H279082   3.055   6.076  12.077 -0.1496  0.1064 -0.0544
19223TIP3   OH279083   6.645   5.673   2.737 -0.1003 -0.6836  0.3004
19223TIP3    H179084   6.644   5.661   2.642 -1.1597 -0.4147  0.2631
19223TIP3    H279085   6.656   5.767   2.749  1.9403 -0.9092  0.4931
19224TIP3   OH279086   6.069   3.772  11.872  0.1204 -0.1090 -0.1957
19224TIP3    H179087   6.049   3.788  11.780 -0.6793  1.7646  0.2663
19224TIP3    H279088   5.984   3.759  11.914  0.4555 -0.6098  0.3425
19225TIP3   OH279089   0.537   5.327   1.080  0.5390 -0.3090  0.5861
19225TIP3    H179090   0.573   5.369   1.158 -0.4663 -0.5263  1.1997
19225TIP3    H279091   0.594   5.354   1.009 -0.3188  2.4677  0.8601
19226TIP3   OH279092   5.279   5.985   1.730 -0.9588 -0.2488  0.0482
19226TIP3    H179093   5.316   5.984   1.818 -0.7012 -1.5654 -0.0630
19226TIP3    H279094   5.193   5.944   1.739 -0.3426 -1.7327 -0.5360
19227TIP3   OH279095   1.146   1.053  15.379 -0.5097  0.6981 -0.1355
19227TIP3    H179096   1.063   1.093  15.353  0.5415  2.6867 -0.6187
19227TIP3    H279097   1.151   1.066  15.474 -1.3130 -0.6138  0.1129
19228TIP3   OH279098   4.528   1.303   6.512  0.1070  0.0344 -0.2131
19228TIP3    H179099   4.481   1.385   6.528 -2.0049 -1.1866  0.2557
19228TIP3    H279100   4.605   1.329   6.462 -1.1084  2.1715 -1.1355
19229TIP3   OH279101   3.154   0.972   5.283  0.3535  0.2773 -1.2439
19229TIP3    H179102   3.194   1.005   5.203  0.7329  1.0850 -0.7405
19229TIP3    H279103   3.224   0.921   5.325  0.2883  0.2067 -1.2208
19230TIP3   OH279104   1.143   1.053   0.581  0.1107 -0.5807 -0.4574
19230TIP3    H179105   1.161   1.051   0.675  0.2204 -1.1659 -0.4912
19230TIP3    H279106   1.160   0.964   0.551 -2.3053 -1.0766 -0.5968
19231TIP3   OH279107   4.161   5.463   0.990 -0.4632 -0.7182 -0.2569
19231TIP3    H179108   4.228   5.470   0.922 -0.7628  1.1064 -0.4168
19231TIP3    H279109   4.080   5.446   0.942 -0.3982 -1.1512 -0.2124
19232TIP3   OH279110   6.568   2.485   3.906  0.4394 -0.2512  0.4552
19232TIP3    H179111   6.570   2.457   3.815  0.8787  0.4731  0.2332
19232TIP3    H279112   6.475   2.482   3.930 -0.0345  1.9592 -0.8031
19233TIP3   OH279113   4.981   3.489   0.872  0.0962  0.0380 -0.3860
19233TIP3    H179114   5.075   3.502   0.861  0.2145  0.2419  0.7121
19233TIP3    H279115   4.972   3.396   0.893 -0.0824 -0.2557 -1.7014
19234TIP3   OH279116   1.445   5.052   0.863 -0.2010 -0.0309 -0.5797
19234TIP3    H179117   1.440   5.012   0.949  0.7569  0.8509 -0.0948
19234TIP3    H279118   1.509   4.998   0.816 -0.9315 -0.6821 -0.8558
19235TIP3   OH279119   6.640   3.297   3.335  0.2698 -0.2309  0.0563
19235TIP3    H179120   6.722   3.318   3.290 -0.4155  1.2943 -0.5310
19235TIP3    H279121   6.640   3.352   3.413 -0.3368  0.0166 -0.1106
19236TIP3   OH279122   0.046   6.173  11.885 -0.2345 -0.0442 -0.2055
19236TIP3    H179123  -0.018   6.126  11.831 -0.0781  0.1617 -0.5759
19236TIP3    H279124   0.031   6.140  11.974 -1.7907  0.9910 -0.0309
19237TIP3   OH279125   0.755   6.105   0.812  0.3417 -0.4956  0.2616
19237TIP3    H179126   0.665   6.133   0.828  0.2337 -1.5528  1.6156
19237TIP3    H279127   0.746   6.018   0.774  0.7694  0.1203 -1.3685
19238TIP3   OH279128   0.966   2.449   4.368 -0.1044 -0.0077 -0.3739
19238TIP3    H179129   0.921   2.371   4.335  2.1616 -0.5236 -2.5506
19238TIP3    H279130   0.926   2.465   4.453 -2.4510 -1.9798 -0.9842
19239TIP3   OH279131   0.246   0.840   4.912  0.1155 -0.4678 -0.8135
19239TIP3    H179132   0.317   0.778   4.893  1.7378  0.3452  2.0658
19239TIP3    H279133   0.273   0.921   4.870  1.2558 -0.0067  0.7274
19240TIP3   OH279134   4.744   6.095  15.831 -0.2678 -0.1401  0.0488
19240TIP3    H179135   4.737   6.179  15.875 -0.3326 -0.8307  1.4175
19240TIP3    H279136   4.738   6.116  15.737 -0.0024  1.3841  0.3491
19241TIP3   OH279137   4.611   6.785   2.628 -0.1754 -0.0236  0.5729
19241TIP3    H179138   4.679   6.802   2.693  1.5513 -1.2222 -0.8161
19241TIP3    H279139   4.536   6.755   2.680  0.5369  0.7404  2.1185
19242TIP3   OH279140   3.090   0.591  14.152  0.2174 -0.3234  0.4967
19242TIP3    H179141   3.183   0.611  14.140  0.5316  0.1333  3.1581
19242TIP3    H279142   3.044   0.669  14.120  0.8035 -0.1036  0.1813
19243TIP3   OH279143   2.672   5.241   4.342  0.2914 -0.5950  0.0285
19243TIP3    H179144   2.693   5.149   4.362  0.1808 -0.9548 -1.4088
19243TIP3    H279145   2.598   5.261   4.399  0.2969 -1.4053  0.3416
19244TIP3   OH279146   6.693   5.504   5.484  0.1513  0.0196  0.0252
19244TIP3    H179147   6.631   5.546   5.544  1.8506  0.1141  1.8366
19244TIP3    H279148   6.665   5.413   5.480 -0.4453  0.1825  0.3358
19245TIP3   OH279149   4.337   1.536   4.292  0.2447  0.2287  0.1882
19245TIP3    H179150   4.283   1.563   4.366 -0.5167  0.9379 -0.6007
19245TIP3    H279151   4.368   1.618   4.254  2.3399 -0.1782  0.9301
19246TIP3   OH279152   6.081   4.841   4.641  0.5674  0.2752  0.6543
19246TIP3    H179153   6.172   4.817   4.624  0.1998  0.4981 -1.9868
19246TIP3    H279154   6.030   4.770   4.603 -0.3960  1.5649 -0.5570
19247TIP3   OH279155   2.455   2.842   3.583  0.3203 -0.4725 -0.7332
19247TIP3    H179156   2.506   2.805   3.655 -1.6813  0.2926  1.2078
19247TIP3    H279157   2.507   2.916   3.552  1.9543 -1.7589 -1.1931
19248TIP3   OH279158   5.157   6.545  17.013  0.2128  0.1417 -0.1066
19248TIP3    H179159   5.217   6.616  17.038 -0.1749  0.1378  0.8971
19248TIP3    H279160   5.143   6.497  17.095 -1.5393  0.4263 -0.1992
19249TIP3   OH279161   4.775   3.802   1.034  0.4720  0.2285  0.4232
19249TIP3    H179162   4.681   3.784   1.030  0.5632 -0.0235 -2.8441
19249TIP3    H279163   4.804   3.762   1.116 -2.4874  1.7314  2.3539
19250TIP3   OH279164   0.971   2.867   3.505  0.7309  0.3041  0.1927
19250TIP3    H179165   0.926   2.941   3.545  0.0853  1.1795 -2.0084
19250TIP3    H279166   1.059   2.900   3.487  0.6216  0.3581 -0.2584
19251TIP3   OH279167   5.805   2.252   4.561  0.5511  0.8097  0.1716
19251TIP3    H179168   5.864   2.205   4.502 -0.3248 -0.5900  0.3873
19251TIP3    H279169   5.731   2.278   4.506  0.6583  1.2746  0.2344
19252TIP3   OH279170   4.059   4.009  10.731  0.4183 -0.4371 -0.5657
19252TIP3    H179171   4.125   4.028  10.664  1.2405  0.4257  0.4631
19252TIP3    H279172   4.104   3.951  10.793  0.6415  1.1221  0.7933
19253TIP3   OH279173   6.077   5.929   4.647 -0.3575  0.4138  0.1189
19253TIP3    H179174   6.026   5.905   4.725 -0.7246  1.7663  0.3206
19253TIP3    H279175   6.031   5.886   4.574  0.5807 -1.7401  0.7041
19254TIP3   OH279176   0.353   6.430  16.124 -0.5989  0.3912 -0.0319
19254TIP3    H179177   0.318   6.462  16.041  0.1559  0.4613 -0.3286
19254TIP3    H279178   0.344   6.335  16.119 -2.0565  0.4697  0.4970
19255TIP3   OH279179   0.647   1.372   3.806 -0.0597 -0.4380  0.3765
19255TIP3    H179180   0.657   1.276   3.807 -2.1450 -0.7048  1.3343
19255TIP3    H279181   0.617   1.393   3.894  0.2284  1.0928  0.1234
19256TIP3   OH279182   0.239   6.068   4.435  0.0852 -0.0301  0.4936
19256TIP3    H179183   0.174   6.008   4.472  0.0767 -0.8861 -0.8637
19256TIP3    H279184   0.195   6.153   4.434 -0.8417 -0.4999  0.0603
19257TIP3   OH279185   4.760   4.855   3.670  0.1383  0.1554  0.4895
19257TIP3    H179186   4.812   4.880   3.746  1.8428  1.4498 -1.0227
19257TIP3    H279187   4.708   4.932   3.649  0.8804  0.3953 -0.5767
19258TIP3   OH279188   2.599   1.321   0.470  0.6160 -0.3188  0.4577
19258TIP3    H179189   2.541   1.379   0.422  0.8749  0.0493  0.5841
19258TIP3    H279190   2.625   1.372   0.547  2.0143 -0.0361 -0.1703
19259TIP3   OH279191   0.034   5.894  14.157 -0.3461 -0.0759 -0.2834
19259TIP3    H179192  -0.008   5.845  14.086  0.4007 -1.1088 -0.0317
19259TIP3    H279193   0.013   5.843  14.236 -1.0295  0.9662  0.2366
19260TIP3   OH279194   0.788   1.939   6.530 -0.6166  0.1385 -0.5839
19260TIP3    H179195   0.709   1.965   6.482 -0.5884 -0.2852 -0.8619
19260TIP3    H279196   0.838   2.021   6.540 -1.6701  0.6538  0.7084
19261TIP3   OH279197   5.757   0.843   4.512 -0.0750  0.1534 -0.1626
19261TIP3    H179198   5.848   0.851   4.541 -0.7303  2.1983  1.5889
19261TIP3    H279199   5.761   0.859   4.417  1.3764  0.1216 -0.1316
19262TIP3   OH279200   2.723   4.556  13.226 -0.1047 -0.0735 -0.1953
19262TIP3    H179201   2.703   4.613  13.300 -0.9063 -1.6588  0.8575
19262TIP3    H279202   2.818   4.561  13.217  0.1163 -0.5697  1.5586
19263TIP3   OH279203   5.272   1.811  14.866  0.2626  0.2623 -0.0262
19263TIP3    H179204   5.182   1.841  14.853  0.0702 -0.7044 -1.0958
19263TIP3    H279205   5.321   1.891  14.883 -0.3239  1.1751 -2.2344
19264TIP3   OH279206   2.030   2.609  15.819 -0.4206  0.0761  0.3585
19264TIP3    H179207   2.064   2.698  15.831 -0.1857  0.4704 -2.5886
19264TIP3    H279208   1.941   2.621  15.786 -1.2157 -0.8838  1.9979
19265TIP3   OH279209   1.960   5.361   0.561 -0.4421  0.2959 -0.9911
19265TIP3    H179210   2.029   5.333   0.502  0.5291  1.6890 -0.5756
19265TIP3    H279211   2.002   5.369   0.647 -0.9285  1.7066 -0.8433
19266TIP3   OH279212   5.478   1.735  10.773 -0.4454  0.0464 -0.0028
19266TIP3    H179213   5.444   1.816  10.812  0.0225 -0.2533  1.0511
19266TIP3    H279214   5.566   1.758  10.743 -0.2228 -0.1309  0.5102
19267TIP3   OH279215   4.130   6.454   5.271  0.1055  0.0265  0.7867
19267TIP3    H179216   4.132   6.442   5.366 -1.7055 -0.5859  0.7987
19267TIP3    H279217   4.039   6.477   5.252  0.0871 -1.2665 -0.9474
19268TIP3   OH279218   5.847   6.487   0.193 -0.0624  0.1099  0.3771
19268TIP3    H179219   5.768   6.536   0.219 -0.8660 -1.5576  1.2142
19268TIP3    H279220   5.848   6.492   0.097 -1.9311 -0.8933  0.2553
19269TIP3   OH279221   5.028   0.662   5.750  0.0201  0.1826  0.2756
19269TIP3    H179222   4.960   0.601   5.724 -1.4844  1.6732  0.5328
19269TIP3    H279223   4.993   0.706   5.827  0.4809  2.2181 -0.6061
19270TIP3   OH279224   3.328   2.661   4.625  0.4442 -0.1201 -0.2186
19270TIP3    H179225   3.423   2.667   4.635  0.1419  0.7577  3.9562
19270TIP3    H279226   3.303   2.743   4.583  1.4645  0.0523 -0.5148
19271TIP3   OH279227   3.366   6.274   2.204 -0.4660  0.1597  0.0894
19271TIP3    H179228   3.278   6.269   2.243 -0.1574  1.0573  0.9356
19271TIP3    H279229   3.400   6.184   2.211 -0.6652  0.1595  1.3554
19272TIP3   OH279230   5.475   0.708   3.070 -0.5824  0.3416 -0.0185
19272TIP3    H179231   5.397   0.762   3.063 -2.7974 -1.5173  5.3843
19272TIP3    H279232   5.459   0.636   3.008 -2.0171  1.1678 -0.6676
19273TIP3   OH279233   1.477   5.512  15.351  0.4201  0.1022 -0.1749
19273TIP3    H179234   1.542   5.581  15.338 -0.8768  1.7267  1.3447
19273TIP3    H279235   1.410   5.529  15.285 -0.0897  0.6119  0.4448
19274TIP3   OH279236   3.401   1.627  10.761  1.0245 -0.0845  0.2206
19274TIP3    H179237   3.420   1.630  10.667  0.5018 -0.9113  0.0734
19274TIP3    H279238   3.486   1.633  10.803  1.1968  1.2814 -0.2712
19275TIP3   OH279239   3.258   1.009  14.376  0.0626  0.4060 -0.3216
19275TIP3    H179240   3.352   1.018  14.363 -0.1630  0.9579 -1.6811
19275TIP3    H279241   3.248   1.004  14.472  1.3769  1.4470 -0.0922
19276TIP3   OH279242   5.346   2.628  11.384 -0.4487 -0.6255 -0.1168
19276TIP3    H179243   5.298   2.589  11.457  0.8834 -1.2761  0.4411
19276TIP3    H279244   5.349   2.721  11.405 -1.4747 -0.5705 -0.1770
19277TIP3   OH279245   4.564   5.363   0.744  0.0757  0.1727 -0.8918
19277TIP3    H179246   4.622   5.312   0.800 -0.1776  0.7711 -0.0657
19277TIP3    H279247   4.553   5.309   0.666 -1.7526 -1.9738  0.7323
19278TIP3   OH279248   0.723   3.322  14.131 -0.0120 -0.3359  0.2506
19278TIP3    H179249   0.789   3.348  14.068 -1.0759  0.5473 -0.5462
19278TIP3    H279250   0.741   3.376  14.209 -0.0055  0.1717 -0.0955
19279TIP3   OH279251   3.977   2.828  11.058  0.1862 -0.0781  0.0890
19279TIP3    H179252   4.030   2.908  11.054  0.5425 -0.2973  0.2985
19279TIP3    H279253   4.041   2.757  11.051 -0.1433 -0.3431 -0.2687
19280TIP3   OH279254   0.698   6.255   1.878  0.4864  0.2662 -0.4206
19280TIP3    H179255   0.714   6.259   1.972  1.1339  1.0323 -0.5509
19280TIP3    H279256   0.723   6.341   1.846 -0.3818  0.2318 -1.2037
19281TIP3   OH279257   0.387   0.902  16.529  0.6407  0.0716  0.9122
19281TIP3    H179258   0.382   0.981  16.583  1.3489 -0.3522  1.6076
19281TIP3    H279259   0.326   0.841  16.570 -0.5582  0.5174 -0.1192
19282TIP3   OH279260   2.193   6.413   6.621 -0.6864 -0.0562 -0.3727
19282TIP3    H179261   2.285   6.387   6.627 -1.0152 -1.0876  0.5322
19282TIP3    H279262   2.196   6.505   6.595  0.6282  0.1908  0.5335
19283TIP3   OH279263   5.815   0.047   5.143  0.4357  0.0549  0.2874
19283TIP3    H179264   5.838   0.072   5.053 -0.9083  1.0170  0.1802
19283TIP3    H279265   5.777  -0.040   5.134 -2.8935  1.4300 -0.6785
19284TIP3   OH279266   2.331   5.033  12.204 -0.6924  0.1328  0.3392
19284TIP3    H179267   2.384   5.051  12.282 -1.7075  0.7150  0.9132
19284TIP3    H279268   2.258   4.981  12.237  0.0147 -1.5288 -0.6108
19285TIP3   OH279269   4.614   5.936  16.938 -0.2952 -0.1006  0.4399
19285TIP3    H179270   4.696   5.982  16.956  0.1993 -0.9458  0.3767
19285TIP3    H279271   4.616   5.860  16.996 -0.8316 -0.3616  0.1225
19286TIP3   OH279272   0.407   3.658   2.800 -0.3716 -0.1625 -0.2126
19286TIP3    H179273   0.396   3.565   2.780  1.8611 -0.9646  1.7847
19286TIP3    H279274   0.457   3.659   2.881  0.9956  2.7842 -0.9578
19287TIP3   OH279275   4.338   1.237   2.039 -0.0307 -0.0323 -0.5715
19287TIP3    H179276   4.425   1.229   1.999  0.2849  1.9193 -0.3671
19287TIP3    H279277   4.355   1.270   2.127 -0.9957  0.8821 -0.7096
19288TIP3   OH279278   6.423   2.331  16.805  0.0680  0.1312 -0.4933
19288TIP3    H179279   6.415   2.259  16.743  0.3942  0.6936 -1.2004
19288TIP3    H279280   6.417   2.410  16.752 -2.1464  0.6929  0.4818
19289TIP3   OH279281   2.331   0.718   0.961 -0.0349  0.8021 -0.5404
19289TIP3    H179282   2.377   0.706   1.045 -0.1853  0.3954 -0.5160
19289TIP3    H279283   2.254   0.769   0.983 -0.2156  0.4642 -0.3853
19290TIP3   OH279284   5.783   2.328  11.964 -0.6045 -0.0577 -0.5192
19290TIP3    H179285   5.760   2.237  11.943  0.2435 -0.8729  1.7476
19290TIP3    H279286   5.848   2.320  12.034  0.5596  2.2960 -1.2359
19291TIP3   OH279287   1.626   3.018   2.570 -0.0510 -0.3090 -0.2705
19291TIP3    H179288   1.686   2.946   2.591 -0.0985 -0.0358  0.8499
19291TIP3    H279289   1.567   2.982   2.504 -0.9756 -1.7739  1.2712
19292TIP3   OH279290   6.019   6.145  15.934 -0.2859  0.0440  0.1190
19292TIP3    H179291   6.083   6.210  15.904 -0.3920  0.0322 -0.1352
19292TIP3    H279292   6.051   6.062  15.899 -0.1300 -0.0492  0.4753
19293TIP3   OH279293   5.047   0.414   2.147  0.0738 -0.4724 -0.2407
19293TIP3    H179294   5.114   0.351   2.174  1.0411  0.2914 -0.7918
19293TIP3    H279295   4.964   0.367   2.156  0.5297 -0.9612  1.9187
19294TIP3   OH279296   4.893   0.653  10.799 -0.2040 -0.2664  0.0676
19294TIP3    H179297   4.944   0.643  10.880 -1.4703 -0.4501  0.8735
19294TIP3    H279298   4.958   0.676  10.733  0.9228 -0.4959  1.0511
19295TIP3   OH279299   3.583   2.353  16.051  0.5342 -0.2646  0.1055
19295TIP3    H179300   3.539   2.438  16.046  2.1009  0.5425 -0.6481
19295TIP3    H279301   3.534   2.297  15.991 -1.4085 -0.3629  1.6932
19296TIP3   OH279302   0.331   2.091   1.268 -0.3294 -0.1070 -0.0785
19296TIP3    H179303   0.263   2.026   1.288  1.2186 -1.5247  0.8824
19296TIP3    H279304   0.413   2.045   1.286  0.8942  1.5390 -1.2329
19297TIP3   OH279305   0.031   3.125  11.014  0.6524 -0.4644 -0.2688
19297TIP3    H179306   0.008   3.215  10.989  0.5472 -0.7315 -1.1797
19297TIP3    H279307  -0.047   3.093  11.059  0.3641 -0.3730 -0.6951
19298TIP3   OH279308   6.056   4.247  16.239 -0.2675  0.2295  0.4791
19298TIP3    H179309   6.032   4.219  16.328  2.4363  0.0507  1.2282
19298TIP3    H279310   5.995   4.319  16.220 -1.3837 -0.2026  2.1759
19299TIP3   OH279311   4.851   3.144  10.648 -0.6469 -0.4505  0.3548
19299TIP3    H179312   4.854   3.141  10.552 -2.7631  0.2648  0.2054
19299TIP3    H279313   4.891   3.228  10.671 -1.7939  0.2420 -0.0732
19300TIP3   OH279314   6.088   4.486  13.270  0.3853  0.0102 -0.1374
19300TIP3    H179315   6.174   4.452  13.294  0.2167  0.0323  0.5237
19300TIP3    H279316   6.067   4.443  13.188  1.1836  0.2737 -0.4864
19301TIP3   OH279317   1.918   1.704  14.771 -0.6003  0.7822 -0.3671
19301TIP3    H179318   1.912   1.621  14.723  1.8587 -0.4129  1.2152
19301TIP3    H279319   1.841   1.705  14.827 -0.1591 -1.0001  0.3542
19302TIP3   OH279320   2.916   2.321   1.151  0.5106  0.3252  0.8221
19302TIP3    H179321   2.843   2.261   1.133  2.1916 -1.1963 -1.4498
19302TIP3    H279322   2.960   2.282   1.227 -0.2891  0.5560  1.4193
19303TIP3   OH279323   4.381   2.507   4.589  0.3925 -0.7007  0.3953
19303TIP3    H179324   4.391   2.415   4.614  1.8246 -0.4192  0.9669
19303TIP3    H279325   4.351   2.551   4.669  0.5504 -0.5474  0.3729
19304TIP3   OH279326   0.942   4.152  16.760 -0.6828 -0.2355 -0.2741
19304TIP3    H179327   0.935   4.204  16.840  0.6896 -3.1475  1.9303
19304TIP3    H279328   0.859   4.104  16.756  0.4209 -2.4467  1.3270
19305TIP3   OH279329   2.448   2.685   1.750  0.0257 -0.5676 -0.4570
19305TIP3    H179330   2.456   2.597   1.786  0.1677 -0.3042  0.1720
19305TIP3    H279331   2.538   2.714   1.737 -0.0107 -0.2999 -0.1234
19306TIP3   OH279332   0.029   0.413   0.331 -0.4758  0.2703  0.4428
19306TIP3    H179333   0.093   0.405   0.401 -1.1431  0.6482  1.1129
19306TIP3    H279334  -0.055   0.426   0.376 -1.3539 -2.0658 -0.3506
19307TIP3   OH279335   4.261   0.102   3.165 -0.0060  0.1160  0.6550
19307TIP3    H179336   4.320   0.177   3.165  1.5444 -1.0369 -0.4994
19307TIP3    H279337   4.300   0.041   3.228 -0.6684 -0.1573  0.8143
19308TIP3   OH279338   0.152   4.124   5.197  0.3629  0.0850  0.1980
19308TIP3    H179339   0.072   4.091   5.238  0.3903 -0.2370 -0.0014
19308TIP3    H279340   0.200   4.045   5.172  2.2026  0.1303  3.0877
19309TIP3   OH279341   2.938   4.560   4.439  0.2851  0.2996 -1.0883
19309TIP3    H179342   2.968   4.522   4.521 -0.7372 -2.7571 -1.9876
19309TIP3    H279343   3.016   4.560   4.383  0.5983  0.8210 -0.6638
19310TIP3   OH279344   2.039   3.940   1.447  0.4447 -0.4035 -0.4293
19310TIP3    H179345   2.066   3.978   1.364 -0.0216  0.6403 -0.1181
19310TIP3    H279346   2.007   3.853   1.424 -2.1702  0.8149 -1.7687
19311TIP3   OH279347   5.221   0.968   2.196 -0.0497  0.5472 -0.4384
19311TIP3    H179348   5.192   1.046   2.149  0.7682  1.6237  0.7620
19311TIP3    H279349   5.164   0.898   2.165  0.1871  1.2751 -2.6959
19312TIP3   OH279350   3.704   1.142  13.586 -0.0015 -0.5314  0.6066
19312TIP3    H179351   3.710   1.208  13.656 -2.3504 -0.1453  0.5258
19312TIP3    H279352   3.763   1.174  13.518  0.1411  0.6348  1.2461
19313TIP3   OH279353   4.858   6.533   2.823 -0.2989 -0.0691  0.2432
19313TIP3    H179354   4.929   6.537   2.759  0.8929 -1.5223  1.3765
19313TIP3    H279355   4.813   6.617   2.816  2.2556  1.4056  0.2762
19314TIP3   OH279356   2.574   5.424   5.961  0.2422  0.0499  0.2954
19314TIP3    H179357   2.614   5.456   6.041  0.6022 -1.1700  0.6323
19314TIP3    H279358   2.490   5.470   5.955  1.6805  2.7824 -0.5105
19315TIP3   OH279359   2.751   0.890   6.062  0.0536  0.4838  0.1307
19315TIP3    H179360   2.737   0.984   6.063 -0.1916  0.4462  1.1129
19315TIP3    H279361   2.676   0.854   6.110 -0.3810 -0.2963 -1.0586
19316TIP3   OH279362   5.935   4.484   4.761 -0.1307  0.0093 -0.0326
19316TIP3    H179363   5.854   4.467   4.713  0.1608  2.7867 -1.7105
19316TIP3    H279364   5.915   4.461   4.851 -1.9817 -1.6561 -0.7911
19317TIP3   OH279365   2.844   3.084  14.289  0.3271 -0.2005 -0.2045
19317TIP3    H179366   2.889   3.010  14.249  0.5705 -1.1507  1.7160
19317TIP3    H279367   2.899   3.108  14.364 -0.7970  0.5941  0.4044
19318TIP3   OH279368   6.728   5.757  13.945  0.2555  0.0606 -0.7008
19318TIP3    H179369   6.671   5.706  14.003  0.7026 -1.5150 -1.5687
19318TIP3    H279370   6.668   5.796  13.881 -0.1687  1.2497  0.3891
19319TIP3   OH279371   2.186   0.167  15.052 -0.3615  0.0146 -0.3909
19319TIP3    H179372   2.186   0.226  15.128 -0.1737  0.6356 -0.8593
19319TIP3    H279373   2.270   0.182  15.010  0.6629 -2.2416  0.6966
19320TIP3   OH279374   6.708   0.850   5.623 -0.1858  0.9156 -0.4363
19320TIP3    H179375   6.779   0.871   5.684  1.0881 -0.8706 -1.2227
19320TIP3    H279376   6.733   0.893   5.541  0.0338  0.2134 -0.7393
19321TIP3   OH279377   2.134   2.569   1.215 -0.6620  0.1812 -0.3155
19321TIP3    H179378   2.121   2.639   1.151 -0.6278  0.9539  0.5011
19321TIP3    H279379   2.052   2.567   1.265 -0.4426  0.0421  0.0470
19322TIP3   OH279380   3.562   1.900   5.186  0.2030 -0.4282  0.2494
19322TIP3    H179381   3.514   1.829   5.143 -0.1889 -0.7954  1.2766
19322TIP3    H279382   3.601   1.949   5.114  0.5889 -1.7566 -0.4785
19323TIP3   OH279383   6.558   2.796  16.527 -0.6396  0.2759  0.3004
19323TIP3    H179384   6.651   2.800  16.507 -0.4868 -1.7620  0.4614
19323TIP3    H279385   6.524   2.882  16.500  0.8253  0.1934 -2.0439
19324TIP3   OH279386   2.676   5.986   3.824  0.6665 -0.1291 -0.1500
19324TIP3    H179387   2.695   5.914   3.885  0.9251  0.2688  0.2448
19324TIP3    H279388   2.661   6.061   3.881  0.0980  0.0653 -0.5491
19325TIP3   OH279389   5.727   1.616   3.504  0.2944  0.1077 -0.3294
19325TIP3    H179390   5.643   1.660   3.497  0.8664  0.9287 -3.4980
19325TIP3    H279391   5.746   1.615   3.598 -2.0954  2.0620  0.2709
19326TIP3   OH279392   6.161   6.215   4.845 -0.4908 -0.0172  0.0471
19326TIP3    H179393   6.225   6.177   4.905 -0.2975 -0.0274 -0.1654
19326TIP3    H279394   6.077   6.182   4.877 -0.4284  0.3109  0.5617
19327TIP3   OH279395   1.399   6.162  14.993  0.0856  0.0637 -0.3164
19327TIP3    H179396   1.358   6.212  15.064 -0.5359  0.2652 -0.8055
19327TIP3    H279397   1.484   6.204  14.980  0.4740 -0.3641  0.7196
19328TIP3   OH279398   4.633   4.487   1.803 -0.0743  0.1500  0.8449
19328TIP3    H179399   4.626   4.418   1.868  2.6560  0.7819  1.9565
19328TIP3    H279400   4.636   4.568   1.853  0.9820  0.7409 -0.1138
19329TIP3   OH279401   2.036   4.916  15.764  0.2451  0.6679  0.2575
19329TIP3    H179402   2.056   5.004  15.795 -0.2965  0.9826 -0.2624
19329TIP3    H279403   2.050   4.920  15.669  1.6633 -0.2166  0.3974
19330TIP3   OH279404   0.844   5.134  16.612  0.0768  0.0593 -0.6348
19330TIP3    H179405   0.902   5.075  16.565  0.9422  0.5166 -0.1533
19330TIP3    H279406   0.888   5.218  16.611 -1.6428  1.0169 -2.2440
19331TIP3   OH279407   3.408   1.348  14.750 -0.0161 -0.4658  0.0402
19331TIP3    H179408   3.372   1.342  14.662  1.0723 -0.9618 -0.3868
19331TIP3    H279409   3.488   1.400  14.741 -0.5040  0.4816  0.9424
19332TIP3   OH279410   1.336   1.823  15.858  0.6185  0.1417  0.7836
19332TIP3    H179411   1.279   1.870  15.797  1.7191 -0.0732 -0.4770
19332TIP3    H279412   1.362   1.888  15.923 -0.9439  0.2680  1.3078
19333TIP3   OH279413   5.720   1.202   3.245  0.1913 -0.1791  0.1050
19333TIP3    H179414   5.651   1.154   3.198 -0.7759 -0.3046  1.5624
19333TIP3    H279415   5.775   1.238   3.176 -2.1293  1.1361 -1.2073
19334TIP3   OH279416   0.419   2.787  11.054  0.2044  0.1062 -0.1393
19334TIP3    H179417   0.353   2.841  11.098 -1.9110 -1.4630 -1.1967
19334TIP3    H279418   0.400   2.697  11.084  1.9312 -0.4050 -0.4461
19335TIP3   OH279419   6.406   5.688   0.535  0.0909 -0.1004 -0.0535
19335TIP3    H179420   6.457   5.724   0.608 -2.4719  0.5942  1.4966
19335TIP3    H279421   6.472   5.668   0.468  2.6879 -1.7383  2.7665
19336TIP3   OH279422   0.094   4.604  12.212 -0.0045 -0.0519 -0.0920
19336TIP3    H179423   0.176   4.653  12.209 -0.9001  1.5732  0.3756
19336TIP3    H279424   0.041   4.650  12.277  0.0555 -3.2865  2.5233
19337TIP3   OH279425   6.701   5.098   5.704 -0.0199 -0.5248 -0.0613
19337TIP3    H179426   6.687   5.018   5.754 -2.7948  0.3600  0.7509
19337TIP3    H279427   6.657   5.082   5.620 -0.2035 -0.0122 -0.0680
19338TIP3   OH279428   3.643   3.623   0.359 -0.4403  0.2942  0.0173
19338TIP3    H179429   3.571   3.569   0.393  0.2279 -0.2042  0.6766
19338TIP3    H279430   3.679   3.571   0.287 -0.3219  0.2403  0.1156
19339TIP3   OH279431   4.468   3.579   1.233 -0.0728  0.2859  0.8090
19339TIP3    H179432   4.396   3.596   1.293  0.2238  0.3374  1.1476
19339TIP3    H279433   4.501   3.666   1.210  1.0385  0.2215  2.0548
19340TIP3   OH279434   2.286   3.044   4.079  0.3162  0.1582  0.3715
19340TIP3    H179435   2.320   2.963   4.117  0.3134 -0.2151 -0.4034
19340TIP3    H279436   2.267   3.022   3.988 -0.2227  0.8783  0.2976
19341TIP3   OH279437   3.295   3.849   2.111  0.4971  0.2063  0.2256
19341TIP3    H179438   3.339   3.855   2.196 -0.1182  0.1851  0.5524
19341TIP3    H279439   3.213   3.898   2.124  0.3172  0.0420 -0.2995
19342TIP3   OH279440   3.325   6.729   0.326  0.7475  0.4237  0.8318
19342TIP3    H179441   3.364   6.659   0.274  1.1897 -0.8145  2.7070
19342TIP3    H279442   3.243   6.692   0.358  1.0839  0.6626  2.0180
19343TIP3   OH279443   4.310   2.811   2.081  0.0908 -0.5677  0.0100
19343TIP3    H179444   4.316   2.857   1.998 -1.9919  0.4630  0.3577
19343TIP3    H279445   4.280   2.723   2.058  1.3030 -0.8828 -0.4348
19344TIP3   OH279446   3.262   3.020  16.135 -0.2651 -0.1466  0.1892
19344TIP3    H179447   3.234   2.976  16.215 -1.8996 -1.0422 -0.8180
19344TIP3    H279448   3.184   3.067  16.105 -0.0607 -0.8271 -1.5065
19345TIP3   OH279449   3.649   3.450  12.350  0.4140 -0.2614 -0.9810
19345TIP3    H179450   3.669   3.542  12.367 -2.0646 -0.1757  2.3704
19345TIP3    H279451   3.723   3.419  12.297  4.0339  2.3396  2.0350
19346TIP3   OH279452   1.920   0.426   1.431 -0.2783 -0.0632  0.1345
19346TIP3    H179453   1.994   0.479   1.402 -0.4849  0.0716 -0.1456
19346TIP3    H279454   1.847   0.487   1.434 -0.1692  0.0342  1.3700
19347TIP3   OH279455   2.861   1.777   1.086  0.7113 -0.3353  0.7516
19347TIP3    H179456   2.900   1.864   1.081  0.0927 -0.0328  1.0243
19347TIP3    H279457   2.766   1.793   1.085  0.5612 -1.1171 -1.0201
19348TIP3   OH279458   4.075   6.727  12.095 -0.1424 -0.4080 -0.0559
19348TIP3    H179459   4.072   6.749  12.188  3.1669  0.7034 -0.0386
19348TIP3    H279460   4.130   6.649  12.090  2.2360  1.1890 -1.1154
19349TIP3   OH279461   1.927   4.420  12.702 -0.1440 -0.3518 -0.2714
19349TIP3    H179462   1.974   4.365  12.640 -1.5858 -1.8430 -0.1177
19349TIP3    H279463   1.838   4.426  12.666 -0.3693  0.7871  0.4124
19350TIP3   OH279464   5.833   5.132   0.103 -0.5427  0.3462  0.1949
19350TIP3    H179465   5.863   5.154   0.015  2.9535  0.0430  1.1492
19350TIP3    H279466   5.853   5.210   0.155  0.6365 -0.6484  1.3070
19351TIP3   OH279467   6.415   2.351  13.647 -0.5354 -0.0540  0.3796
19351TIP3    H179468   6.446   2.440  13.634 -2.9808  0.5081 -2.7476
19351TIP3    H279469   6.458   2.300  13.578 -1.4675 -0.6288  0.2039
19352TIP3   OH279470   6.443   4.827  15.989 -0.0378  0.0804 -0.1735
19352TIP3    H179471   6.442   4.902  15.930 -1.5037 -1.0058 -1.6172
19352TIP3    H279472   6.351   4.805  16.003  0.3264 -2.5669 -1.3399
19353TIP3   OH279473   6.749   0.448  14.121  0.5338 -0.3903  0.3197
19353TIP3    H179474   6.733   0.499  14.201  1.4152  0.8697 -0.2745
19353TIP3    H279475   6.844   0.435  14.120  0.4902 -0.6544 -0.3681
19354TIP3   OH279476   0.725   2.498   3.121 -0.3116  0.0030 -0.1076
19354TIP3    H179477   0.703   2.444   3.196  2.2370 -2.0526 -0.6910
19354TIP3    H279478   0.781   2.567   3.156 -1.7471  1.0265  0.2864
19355TIP3   OH279479   0.588   4.255  15.349 -0.8352 -0.1980  0.2620
19355TIP3    H179480   0.630   4.171  15.331  0.1235  0.3360 -0.0526
19355TIP3    H279481   0.582   4.259  15.444  0.6139  0.0716  0.3654
19356TIP3   OH279482   3.171   6.051  15.738  0.2832  0.4970 -0.4119
19356TIP3    H179483   3.117   5.993  15.792 -0.1765  0.7427 -0.5989
19356TIP3    H279484   3.225   5.992  15.686  0.5767  0.2552  0.1585
19357TIP3   OH279485   2.832   3.911  15.030  0.2333  0.5326 -0.4722
19357TIP3    H179486   2.738   3.899  15.018 -0.0670 -0.0625  1.8808
19357TIP3    H279487   2.872   3.845  14.973 -0.8214 -0.0635 -0.5483
19358TIP3   OH279488   1.808   4.853  13.032  0.1703 -0.4484 -0.2080
19358TIP3    H179489   1.722   4.824  13.002  0.1314  0.2352 -0.7806
19358TIP3    H279490   1.793   4.939  13.071  0.2448 -1.2420  1.7100
19359TIP3   OH279491   3.884   2.532  11.274 -0.1863 -0.3848  0.1633
19359TIP3    H179492   3.969   2.558  11.311 -0.9449  2.0133  0.4321
19359TIP3    H279493   3.820   2.586  11.320 -1.5457  0.1490 -2.1468
19360TIP3   OH279494   1.993   4.446   3.133 -0.0853  0.1895  0.2912
19360TIP3    H179495   1.907   4.406   3.145  0.1330 -0.0385  1.1579
19360TIP3    H279496   2.026   4.407   3.052 -1.1546  0.9455 -0.5354
19361TIP3   OH279497   6.307   2.382   0.857  0.0461 -0.5376 -0.0694
19361TIP3    H179498   6.277   2.296   0.827 -0.7683  0.0557 -1.0651
19361TIP3    H279499   6.402   2.377   0.853 -0.0086 -0.9711 -1.4545
19362TIP3   OH279500   4.443   4.828   5.845  0.3848 -0.3993 -0.5964
19362TIP3    H179501   4.478   4.812   5.933  2.1086  0.4495 -1.0726
19362TIP3    H279502   4.368   4.769   5.838  0.5093 -0.8540  1.2472
19363TIP3   OH279503   2.293   6.459  16.012 -0.1638 -0.2463 -0.2870
19363TIP3    H179504   2.322   6.385  16.064 -0.6049  1.3703  2.4580
19363TIP3    H279505   2.374   6.500  15.981  0.1331 -0.9664 -0.4703
19364TIP3   OH279506   3.894   4.824   6.280 -0.3047  0.1346  0.0578
19364TIP3    H179507   3.890   4.871   6.363  1.9109  2.0790 -0.8499
19364TIP3    H279508   3.821   4.859   6.229  0.2021  1.2188  0.0732
19365TIP3   OH279509   1.519   0.910  12.916  0.0938  0.4825  0.0225
19365TIP3    H179510   1.603   0.953  12.935  0.0166  0.6083  0.0797
19365TIP3    H279511   1.490   0.875  13.000  0.8354 -0.9094 -0.2669
19366TIP3   OH279512   4.445   4.294   6.278  0.0217  0.3487 -0.0310
19366TIP3    H179513   4.355   4.274   6.306 -0.0854  0.9942  0.0991
19366TIP3    H279514   4.500   4.257   6.346 -0.0476 -1.3990 -0.8408
19367TIP3   OH279515   1.129   1.875   4.240  0.0528 -0.6443 -0.0492
19367TIP3    H179516   1.034   1.873   4.253 -0.3426  2.8068 -1.4058
19367TIP3    H279517   1.164   1.898   4.326 -0.5922  0.3590 -0.0305
19368TIP3   OH279518   4.005   3.253   5.824 -0.2685  0.4443  0.1541
19368TIP3    H179519   3.982   3.208   5.905  0.3425 -0.2249 -0.0334
19368TIP3    H279520   4.083   3.303   5.845 -0.9280  1.4238  0.3529
19369TIP3   OH279521   6.391   5.468   4.557 -0.2269  0.5087  0.0840
19369TIP3    H179522   6.412   5.561   4.563  0.1834  0.3601  1.1470
19369TIP3    H279523   6.301   5.461   4.590  0.5062  0.2662  2.1654
19370TIP3   OH279524   1.605   6.446   3.392 -0.0066  0.0646 -0.2241
19370TIP3    H179525   1.598   6.442   3.488  0.4864 -0.1031 -0.1901
19370TIP3    H279526   1.586   6.537   3.370 -1.1920 -0.1356 -0.0638
19371TIP3   OH279527   6.357   5.322  16.047 -0.2904 -0.1542 -0.1877
19371TIP3    H179528   6.349   5.394  16.109  0.4273 -0.2464  0.0182
19371TIP3    H279529   6.420   5.353  15.982  0.3547 -0.7546  0.1389
19372TIP3   OH279530   3.707   2.794  15.597  0.3758 -0.2140  0.4617
19372TIP3    H179531   3.633   2.845  15.564  0.2087 -0.4964  0.3948
19372TIP3    H279532   3.701   2.802  15.692  1.0055  0.8106  0.4302
19373TIP3   OH279533   3.457   4.191   5.078 -0.1864 -1.2967 -0.7638
19373TIP3    H179534   3.505   4.240   5.145 -0.7445 -0.3286 -1.0467
19373TIP3    H279535   3.425   4.113   5.124 -2.0780  0.1883  0.6584
19374TIP3   OH279536   4.815   2.334   1.606  0.0992  0.7641 -0.3305
19374TIP3    H179537   4.821   2.318   1.511  0.6689 -1.2106 -0.0137
19374TIP3    H279538   4.898   2.303   1.641 -1.7722 -3.1933  1.3025
19375TIP3   OH279539   4.674   2.053  13.453 -0.1290 -0.6289  0.4201
19375TIP3    H179540   4.621   2.070  13.531  2.9526 -2.2354  3.1075
19375TIP3    H279541   4.674   1.958  13.444 -1.7648 -0.4929 -2.7644
19376TIP3   OH279542   3.566   6.635   1.581 -0.0219 -0.5306 -0.8431
19376TIP3    H179543   3.527   6.645   1.494  0.0796  2.4093 -0.6461
19376TIP3    H279544   3.638   6.699   1.582 -0.1205 -0.3880  1.4453
19377TIP3   OH279545   1.734   6.264   4.080 -0.7142  0.3923  0.4158
19377TIP3    H179546   1.750   6.196   4.146 -1.0435  0.0638  0.1587
19377TIP3    H279547   1.656   6.235   4.034  0.4317 -0.2401 -1.2171
19378TIP3   OH279548   1.003   3.969   2.854 -0.2397 -0.1163  0.4620
19378TIP3    H179549   1.048   4.043   2.814 -0.0831  0.0585  0.9514
19378TIP3    H279550   1.055   3.892   2.829  0.1222  0.0434  0.7146
19379TIP3   OH279551   3.149   6.276  11.736 -0.1391  0.4085 -0.0787
19379TIP3    H179552   3.223   6.337  11.741 -0.0010  0.2919 -0.6490
19379TIP3    H279553   3.086   6.320  11.679 -0.2197  0.2096 -0.1429
19380TIP3   OH279554   1.048   4.344  10.356  0.4729  0.0117 -0.1548
19380TIP3    H179555   1.087   4.431  10.370 -0.5134  0.7831 -1.8152
19380TIP3    H279556   1.124   4.285  10.349  1.1761  0.7906  0.6602
19381TIP3   OH279557   5.963   2.332   2.066  0.4338 -0.3271  0.1080
19381TIP3    H179558   5.887   2.300   2.114 -1.3548 -0.0064 -2.3388
19381TIP3    H279559   5.978   2.420   2.100 -1.5913  0.3875 -0.7078
19382TIP3   OH279560   3.236   2.833   0.027  0.4214 -0.4874  0.0367
19382TIP3    H179561   3.185   2.779   0.087 -0.8635 -0.3624 -0.8851
19382TIP3    H279562   3.229   2.789  -0.058  1.0479  0.0549 -0.3118
19383TIP3   OH279563   4.327   3.880  13.463 -0.5386  0.5768  0.4758
19383TIP3    H179564   4.396   3.869  13.398 -1.1081 -0.1205 -0.0363
19383TIP3    H279565   4.315   3.975  13.470  0.8976  0.7288  1.0495
19384TIP3   OH279566   6.117   0.843  15.186  0.0581 -0.0163 -0.4641
19384TIP3    H179567   6.166   0.921  15.160  1.9710 -1.0864 -0.2486
19384TIP3    H279568   6.052   0.875  15.249 -0.5371  1.6654 -1.8819
19385TIP3   OH279569   0.051   4.568   3.492  0.1299  0.4080  0.1298
19385TIP3    H179570   0.099   4.489   3.514 -2.0082 -0.7780  0.8541
19385TIP3    H279571   0.113   4.621   3.442  1.6135 -1.7206 -0.4146
19386TIP3   OH279572   4.197   3.817   5.817 -0.1711 -0.4351 -0.0837
19386TIP3    H179573   4.241   3.901   5.807 -2.1128  0.4841 -1.5567
19386TIP3    H279574   4.238   3.777   5.893  0.7254  1.8818  0.7257
19387TIP3   OH279575   1.128   2.677   3.097 -0.0628 -0.3524  0.3229
19387TIP3    H179576   1.212   2.706   3.060 -0.0205 -0.7701  0.0909
19387TIP3    H279577   1.092   2.618   3.031 -0.0543 -0.9868  0.8757
19388TIP3   OH279578   4.807   1.665   5.717 -0.0392 -0.0487 -0.1018
19388TIP3    H179579   4.827   1.572   5.714  0.1689  0.0207 -0.9523
19388TIP3    H279580   4.806   1.686   5.811  1.3235 -0.6055  0.0635
19389TIP3   OH279581   6.462   1.035   6.271  0.1733 -0.0540  0.2659
19389TIP3    H179582   6.534   1.009   6.329  1.1230  0.5975 -0.5745
19389TIP3    H279583   6.423   1.111   6.314 -0.1512 -0.5258  0.8239
19390TIP3   OH279584   2.412   2.962   2.756 -0.3518  0.1228  0.3381
19390TIP3    H179585   2.362   3.038   2.787  1.0543  0.8311  0.9847
19390TIP3    H279586   2.467   2.938   2.831  0.8280 -0.1397 -0.5830
19391TIP3   OH279587   5.753   5.003  12.544  0.2049  0.2759  0.0892
19391TIP3    H179588   5.799   5.081  12.573 -0.9284  0.8425  0.4246
19391TIP3    H279589   5.776   4.936  12.608 -0.7727  1.0160  1.2580
19392TIP3   OH279590   0.441   6.483  11.756 -0.3365  0.2743  0.2379
19392TIP3    H179591   0.426   6.550  11.824 -0.5248  1.8566 -1.2982
19392TIP3    H279592   0.354   6.444  11.742 -0.5560  0.8080  0.0620
19393TIP3   OH279593   6.088   3.749  14.800 -0.2075 -0.2838 -0.1021
19393TIP3    H179594   6.070   3.840  14.778 -0.9768 -0.3357  0.2791
19393TIP3    H279595   6.139   3.716  14.725 -1.6503 -0.0999 -1.2119
19394TIP3   OH279596   0.915   2.368  13.307 -0.0325 -0.3480  0.4027
19394TIP3    H179597   0.984   2.382  13.372 -0.6872  1.8367  0.7220
19394TIP3    H279598   0.891   2.276  13.317  0.9018 -0.4438  2.2380
19395TIP3   OH279599   1.689   2.288  13.738 -0.1701  0.1703 -0.4105
19395TIP3    H179600   1.738   2.208  13.719  1.7732  0.5988  2.2024
19395TIP3    H279601   1.737   2.357  13.693  0.6636  0.3505  0.7000
19396TIP3   OH279602   0.514   1.184  15.271 -0.6056 -0.2905  0.4079
19396TIP3    H179603   0.552   1.165  15.185  1.7094  0.3200  1.2297
19396TIP3    H279604   0.436   1.237  15.252  1.6014  2.6557 -1.2785
19397TIP3   OH279605   3.914   1.015   2.995  0.4201 -0.2295  0.6844
19397TIP3    H179606   3.992   1.014   2.940  0.4331 -0.1697  0.7007
19397TIP3    H279607   3.862   1.089   2.961 -0.3247 -1.1706 -0.2793
19398TIP3   OH279608   3.787   6.370   3.006 -0.2801 -0.5205 -0.7979
19398TIP3    H179609   3.708   6.329   3.040 -0.6685  0.5386 -0.3871
19398TIP3    H279610   3.836   6.298   2.966 -0.7324 -1.4547  0.2656
19399TIP3   OH279611   0.843   6.262  12.137 -0.1244 -0.1064  0.0574
19399TIP3    H179612   0.875   6.350  12.159  0.9766 -0.4772  0.0170
19399TIP3    H279613   0.915   6.223  12.088 -0.8587 -0.8151 -0.4785
19400TIP3   OH279614   1.375   2.197  14.351 -0.1537  0.7172  0.1511
19400TIP3    H179615   1.450   2.139  14.341 -0.5424  0.1005  0.6628
19400TIP3    H279616   1.412   2.278  14.386  0.4749  1.0162 -1.1467
19401TIP3   OH279617   0.061   0.593  14.863  0.7688 -0.5300 -0.3742
19401TIP3    H179618   0.138   0.649  14.859  1.3985 -1.3472 -0.0568
19401TIP3    H279619   0.002   0.638  14.924  1.1480 -0.0859 -0.3283
19402TIP3   OH279620   6.241   4.983  15.827  0.0486  0.2641  0.0470
19402TIP3    H179621   6.251   5.027  15.912 -2.4223  0.1524  0.4682
19402TIP3    H279622   6.147   4.967  15.820  0.3254 -0.6144 -2.2964
19403TIP3   OH279623   5.614   3.753  13.732 -0.4313  0.1640  0.1996
19403TIP3    H179624   5.691   3.748  13.676 -0.6125 -1.7772  0.0712
19403TIP3    H279625   5.540   3.734  13.674 -0.5706 -2.4462  1.1117
19404TIP3   OH279626   3.419   5.417  16.034  0.0247 -0.5096  0.7763
19404TIP3    H179627   3.454   5.394  15.948 -0.0930 -0.3909  0.6988
19404TIP3    H279628   3.324   5.418  16.022  0.0324  0.1772  0.7437
19405TIP3   OH279629   1.511   0.517  11.131 -0.3745  0.3934  0.7008
19405TIP3    H179630   1.553   0.460  11.066 -0.8221  1.8284 -0.9259
19405TIP3    H279631   1.418   0.513  11.110 -0.5084  0.9977  1.1444
19406TIP3   OH279632   5.889   1.043   2.892 -0.6578  0.2936 -0.1009
19406TIP3    H179633   5.888   0.975   2.959  0.3887  0.4122  0.0565
19406TIP3    H279634   5.812   1.026   2.838 -0.9198 -0.4448  0.4977
19407TIP3   OH279635   3.864   1.560  15.367 -0.8160  0.3026 -0.6483
19407TIP3    H179636   3.938   1.610  15.403  0.5771 -1.2996 -1.1463
19407TIP3    H279637   3.838   1.610  15.289 -0.6271  1.1778 -0.1651
19408TIP3   OH279638   2.213   3.571   4.581  0.4409  0.3702 -0.4453
19408TIP3    H179639   2.120   3.592   4.570  0.4941  1.3745  0.7535
19408TIP3    H279640   2.246   3.561   4.492 -0.8921 -0.3823 -0.8764
19409TIP3   OH279641   3.529   1.547  13.081 -0.2092  0.5983 -0.2840
19409TIP3    H179642   3.527   1.605  13.004 -0.6476 -0.8630 -1.4273
19409TIP3    H279643   3.450   1.494  13.073  0.9215 -1.1994 -0.1236
19410TIP3   OH279644   4.148   0.718  11.692 -0.2900  1.0040  0.0452
19410TIP3    H179645   4.098   0.637  11.702 -1.6793  1.9528  1.2207
19410TIP3    H279646   4.228   0.692  11.646 -0.1929 -1.2219  1.3566
19411TIP3   OH279647   5.125   2.068   5.410 -0.4537  1.0156 -0.2030
19411TIP3    H179648   5.031   2.059   5.428 -0.4050  0.6174 -0.1597
19411TIP3    H279649   5.146   1.996   5.351  0.0856  0.3617  0.7660
19412TIP3   OH279650   6.541   1.105   3.791  0.1603  0.0184 -0.0799
19412TIP3    H179651   6.460   1.096   3.841 -0.7221 -2.8160 -1.7667
19412TIP3    H279652   6.611   1.078   3.852 -0.7702 -2.3570  0.0593
19413TIP3   OH279653   2.357   3.171  15.554  0.1864  0.2399  0.2688
19413TIP3    H179654   2.317   3.084  15.544 -0.3856  0.4916  0.3178
19413TIP3    H279655   2.359   3.186  15.648 -2.6028  1.5579  0.2293
19414TIP3   OH279656   4.084   0.292  13.917  0.5669  0.1940  0.3627
19414TIP3    H179657   3.995   0.266  13.895  0.4471 -0.4215  1.4883
19414TIP3    H279658   4.139   0.221  13.883  0.6793  0.7545 -0.6647
19415TIP3   OH279659   1.676   5.627   4.882  0.6078 -0.0788  0.0968
19415TIP3    H179660   1.614   5.585   4.822  0.6657 -0.0833  0.0396
19415TIP3    H279661   1.688   5.563   4.952  0.0328  0.1906  0.4564
19416TIP3   OH279662   1.032   0.075  13.683 -0.0131  0.2222  0.1232
19416TIP3    H179663   1.039   0.061  13.778  2.3649  0.0202 -0.0215
19416TIP3    H279664   0.957   0.021  13.657  1.1425 -2.2556  1.4726
19417TIP3   OH279665   2.684   4.342  15.560  0.0664 -0.2337  0.0119
19417TIP3    H179666   2.774   4.365  15.582  0.3426 -0.5234 -0.8042
19417TIP3    H279667   2.690   4.258  15.516 -0.6042 -0.2453 -0.0751
19418TIP3   OH279668   5.165   1.679  14.615  0.1498  0.1352 -0.4547
19418TIP3    H179669   5.199   1.689  14.526 -0.8185 -1.9914 -1.1421
19418TIP3    H279670   5.232   1.717  14.671  1.9551 -0.6866 -1.9461
19419TIP3   OH279671   4.375   6.762  16.177 -0.4734 -0.3811 -0.2090
19419TIP3    H179672   4.417   6.848  16.178 -1.5440  0.1498  0.3075
19419TIP3    H279673   4.377   6.736  16.084  0.0617  0.0851 -0.3360
19420TIP3   OH279674   0.118   6.434  16.674 -0.9966  0.4318  0.0479
19420TIP3    H179675   0.200   6.443  16.625 -0.9419  2.4024  0.3912
19420TIP3    H279676   0.050   6.442  16.607 -0.9167  0.0424 -0.0813
19421TIP3   OH279677   0.468   4.166   5.162  0.5146 -0.2847 -1.2933
19421TIP3    H179678   0.485   4.209   5.078  0.7838  3.1758  0.3167
19421TIP3    H279679   0.375   4.178   5.178  0.7025  0.3192 -0.5519
19422TIP3   OH279680   1.069   3.325  14.286  0.3030 -0.2218 -0.2701
19422TIP3    H179681   0.997   3.388  14.286 -0.4023 -0.9984  0.5105
19422TIP3    H279682   1.050   3.267  14.213  0.9909  0.4834 -1.0335
19423TIP3   OH279683   2.672   4.049  11.006  0.0654 -0.3626  0.3553
19423TIP3    H179684   2.741   4.004  10.957  0.0191 -0.9016  0.7694
19423TIP3    H279685   2.638   3.982  11.065  1.1541  0.6620  2.2375
19424TIP3   OH279686   1.345   6.357   3.125 -0.4946  0.3584  0.2145
19424TIP3    H179687   1.440   6.354   3.138 -0.7004 -1.1111  1.6843
19424TIP3    H279688   1.312   6.282   3.174 -2.4565  1.0573  0.0293
19425TIP3   OH279689   6.731   3.332   2.579  0.5038  0.0826  0.0565
19425TIP3    H179690   6.800   3.377   2.626 -0.2853  0.9714  0.3950
19425TIP3    H279691   6.660   3.322   2.642  0.2233 -0.6128 -0.3460
19426TIP3   OH279692   5.047   6.306  16.120 -0.1184  0.2084 -0.8281
19426TIP3    H179693   5.066   6.397  16.097 -0.5976  0.2625 -1.0376
19426TIP3    H279694   4.972   6.311  16.178  1.6595  0.1358  1.6126
19427TIP3   OH279695   3.617   0.486  12.204 -0.0837 -0.4485 -0.2137
19427TIP3    H179696   3.595   0.548  12.274  2.0637 -0.3217  0.4258
19427TIP3    H279697   3.586   0.528  12.124 -1.3859  0.0282  0.5075
19428TIP3   OH279698   5.143   3.748  14.287  0.6888 -0.4266 -0.4316
19428TIP3    H179699   5.183   3.751  14.200 -0.9332  0.0499 -1.1996
19428TIP3    H279700   5.063   3.800  14.278 -0.2800 -1.6088  0.9385
19429TIP3   OH279701   2.617   3.475   1.334  0.3603 -0.5858  0.5578
19429TIP3    H179702   2.667   3.547   1.372  1.2026 -1.2329  0.7191
19429TIP3    H279703   2.541   3.516   1.293  0.9262  0.4021  0.4887
19430TIP3   OH279704   5.815   3.210  11.873 -0.2422 -0.1190  0.1683
19430TIP3    H179705   5.743   3.147  11.881 -0.7461  0.2733 -1.0373
19430TIP3    H279706   5.889   3.166  11.915 -0.4926 -1.6905 -0.9086
19431TIP3   OH279707   4.058   4.011   6.186  0.1151  0.0320  0.1826
19431TIP3    H179708   3.967   4.000   6.212  0.0090 -0.0932 -0.2293
19431TIP3    H279709   4.097   3.924   6.199  0.0634 -0.0289 -0.0742
19432TIP3   OH279710   0.920   0.401   0.056  0.3133 -0.0564 -0.3582
19432TIP3    H179711   0.910   0.457  -0.021 -0.6708 -1.5705 -1.3847
19432TIP3    H279712   1.003   0.356   0.042  0.0438 -0.4741 -0.6640
19433TIP3   OH279713   4.696   1.380  14.236 -0.3046  1.0128 -0.0283
19433TIP3    H179714   4.720   1.305  14.290  0.0925 -0.7364 -2.5088
19433TIP3    H279715   4.773   1.397  14.182 -0.8657  2.3631 -0.4455
19434TIP3   OH279716   3.184   5.495   2.735 -0.2359 -0.5323  0.1750
19434TIP3    H179717   3.216   5.460   2.817  0.7486  0.1649  0.1039
19434TIP3    H279718   3.089   5.503   2.747 -0.0248  0.1560  1.4617
19435TIP3   OH279719   2.672   2.952  12.170 -0.0186 -0.0854  0.4694
19435TIP3    H179720   2.668   3.043  12.139 -1.6187 -0.1063  0.5207
19435TIP3    H279721   2.642   2.957  12.261 -0.1847 -0.6762  0.4470
19436TIP3   OH279722   0.154   3.781   5.662 -0.2617  0.0458  0.1219
19436TIP3    H179723   0.103   3.859   5.640 -1.4395 -0.7684 -0.0995
19436TIP3    H279724   0.177   3.743   5.577  1.2469  0.7121  0.1985
19437TIP3   OH279725   6.763   1.289   5.279  0.0465  0.2889  0.5766
19437TIP3    H179726   6.674   1.264   5.257  0.5497 -0.9409 -0.1736
19437TIP3    H279727   6.807   1.301   5.194  0.9591 -0.5389  0.9088
19438TIP3   OH279728   1.156   0.400   1.300 -0.0171 -0.0714 -0.0253
19438TIP3    H179729   1.074   0.442   1.329  0.0597  0.0524  0.0125
19438TIP3    H279730   1.171   0.331   1.365 -0.2390 -0.2753 -0.1889
19439TIP3   OH279731   4.482   5.471   3.299 -0.2439 -0.2526  0.0782
19439TIP3    H179732   4.466   5.459   3.393 -2.0607 -0.1530 -0.1681
19439TIP3    H279733   4.395   5.460   3.259  0.1852  1.3318 -1.4110
19440TIP3   OH279734   5.795   1.563  17.056  0.5379  0.9929 -0.0134
19440TIP3    H179735   5.847   1.556  16.976  0.2592  0.5749 -0.1584
19440TIP3    H279736   5.847   1.619  17.113  4.1258 -3.8896  2.1743
19441TIP3   OH279737   3.249   6.527   2.797 -0.6370 -0.4424  0.1546
19441TIP3    H179738   3.341   6.552   2.789 -0.3744 -1.1003  0.9416
19441TIP3    H279739   3.236   6.512   2.891 -0.7012 -3.3664 -0.2266
19442TIP3   OH279740   6.650   1.413  13.750  0.6156  0.2784 -0.1035
19442TIP3    H179741   6.588   1.341  13.758  0.4505  0.0290 -2.7646
19442TIP3    H279742   6.608   1.486  13.796 -0.6580 -0.4789 -0.0229
19443TIP3   OH279743   5.650   1.658  10.474  0.3339  0.0102 -0.3434
19443TIP3    H179744   5.571   1.699  10.440 -0.3547  0.0450  1.2094
19443TIP3    H279745   5.643   1.667  10.569 -0.6472 -4.9729  0.3476
19444TIP3   OH279746   4.414   0.741   0.164 -0.3153  0.0118  0.1587
19444TIP3    H179747   4.503   0.772   0.148 -0.6608  1.4230  0.8785
19444TIP3    H279748   4.407   0.662   0.109  1.8630 -1.0389  1.2668
19445TIP3   OH279749   1.701   4.991   4.984 -0.3047 -0.1705  0.7400
19445TIP3    H179750   1.697   4.895   4.992  0.1943 -0.2904 -0.3035
19445TIP3    H279751   1.774   5.016   5.040  1.0814 -0.6645 -0.7628
19446TIP3   OH279752   4.329   1.237  16.598 -0.0191  0.3180  0.8358
19446TIP3    H179753   4.345   1.325  16.631 -1.7546  0.2444  2.0090
19446TIP3    H279754   4.372   1.235  16.512  0.3993  2.1560  0.9686
19447TIP3   OH279755   5.220   0.441   5.336  0.4294  0.2467  0.3273
19447TIP3    H179756   5.206   0.535   5.351  1.5879  0.5733 -0.5228
19447TIP3    H279757   5.256   0.436   5.248  0.5339 -0.9936  0.4281
19448TIP3   OH279758   3.190   4.926   1.362 -0.0178  0.7872 -0.0232
19448TIP3    H179759   3.277   4.885   1.359 -0.9088 -1.1950  0.0705
19448TIP3    H279760   3.180   4.966   1.276  0.4026 -0.2594 -0.5768
19449TIP3   OH279761   3.309   4.628   3.570 -0.2788  0.3507  0.1531
19449TIP3    H179762   3.313   4.699   3.506 -2.3102  2.0518  1.7493
19449TIP3    H279763   3.320   4.672   3.655 -0.3705 -1.4298  1.1417
19450TIP3   OH279764   0.884   6.788  16.609 -0.1591 -0.0121  0.1160
19450TIP3    H179765   0.979   6.785  16.609 -0.1021  1.2861  0.1459
19450TIP3    H279766   0.859   6.757  16.522  0.3490  0.6904 -0.2937
19451TIP3   OH279767   0.652   3.442   2.501  0.2749  0.2350  0.7781
19451TIP3    H179768   0.616   3.455   2.413 -0.0900  0.0020  0.8887
19451TIP3    H279769   0.626   3.520   2.550 -1.1613 -0.4819  1.2008
19452TIP3   OH279770   1.531   3.354   5.395  0.7056  0.6934 -0.5127
19452TIP3    H179771   1.588   3.278   5.385  0.1318  0.2171 -0.2530
19452TIP3    H279772   1.479   3.356   5.315  0.8178  0.8995 -0.5813
19453TIP3   OH279773   4.945   0.414   2.887  0.2403  0.5923 -0.1385
19453TIP3    H179774   4.898   0.464   2.821 -1.3790 -0.4315  0.1867
19453TIP3    H279775   4.910   0.446   2.971  2.2824  1.8983  0.3050
19454TIP3   OH279776   5.543   3.560   4.508 -0.1388  0.4325  0.2281
19454TIP3    H179777   5.550   3.609   4.426  1.8847  1.6600  1.0470
19454TIP3    H279778   5.592   3.479   4.491 -0.2761  0.3914  0.0266
19455TIP3   OH279779   4.759   4.246   3.418 -0.2927  0.1242  0.7320
19455TIP3    H179780   4.834   4.217   3.366 -0.9844  2.0422 -1.5227
19455TIP3    H279781   4.728   4.167   3.462  3.2937 -0.6754  2.2160
19456TIP3   OH279782   4.066   4.890  11.226  0.1139 -0.2681 -0.0876
19456TIP3    H179783   4.046   4.835  11.151 -0.1177  1.2336 -1.1908
19456TIP3    H279784   4.109   4.967  11.188  0.8125  0.1308  1.4204
19457TIP3   OH279785   2.346   1.339  16.434  0.0492 -0.2693  0.2267
19457TIP3    H179786   2.256   1.320  16.406 -0.2669  0.8834  0.4012
19457TIP3    H279787   2.343   1.333  16.529 -0.0662  0.6140  0.2886
19458TIP3   OH279788   4.657   6.459  16.392  0.6845 -0.1391 -0.1062
19458TIP3    H179789   4.624   6.399  16.460  0.4262  2.1684  1.9528
19458TIP3    H279790   4.579   6.504  16.359  0.8529 -0.9972 -1.7733
19459TIP3   OH279791   4.599   5.235  16.099  0.1673  0.4021  0.4629
19459TIP3    H179792   4.672   5.290  16.070 -1.3508  1.8207 -0.9683
19459TIP3    H279793   4.522   5.292  16.088 -1.4226 -1.7940 -0.4580
19460TIP3   OH279794   1.774   0.349  15.002  0.2022 -0.1631  0.0362
19460TIP3    H179795   1.806   0.437  15.019  0.9080 -0.6099  1.1706
19460TIP3    H279796   1.756   0.313  15.089 -1.9079 -0.4881 -0.4737
19461TIP3   OH279797   5.981   4.839   0.404 -0.2206  0.7114 -0.0029
19461TIP3    H179798   6.047   4.815   0.469  1.1618 -0.4766 -1.7308
19461TIP3    H279799   5.934   4.757   0.387 -0.2417  0.8775 -0.7948
19462TIP3   OH279800   0.048   4.052  13.539 -0.4180  0.0390 -0.1398
19462TIP3    H179801   0.111   3.994  13.582 -1.8765 -0.8814  0.8332
19462TIP3    H279802   0.040   4.018  13.450  0.0014 -0.2135 -0.0813
19463TIP3   OH279803   2.178   5.206  11.341 -0.1358 -0.0657 -0.6571
19463TIP3    H179804   2.140   5.253  11.266 -1.2082 -1.7480 -1.2116
19463TIP3    H279805   2.241   5.146  11.301  2.1213  1.6299  0.1364
19464TIP3   OH279806   4.494   5.794   4.557  0.2026  0.1027  0.3311
19464TIP3    H179807   4.473   5.886   4.575  2.2151  0.8561 -0.8698
19464TIP3    H279808   4.589   5.793   4.548  0.0492 -1.7038 -1.7138
19465TIP3   OH279809   2.219   1.995  15.613  0.2375  0.2754  0.2617
19465TIP3    H179810   2.143   2.026  15.562  2.4799  1.3137 -2.7313
19465TIP3    H279811   2.281   2.067  15.609  2.9554 -1.9662 -0.9129
19466TIP3   OH279812   3.954   2.559  14.055 -0.4014  0.1196 -0.0202
19466TIP3    H179813   4.043   2.552  14.092  0.5047 -0.1446 -2.1317
19466TIP3    H279814   3.916   2.473  14.069 -0.5962  0.4167  1.4659
19467TIP3   OH279815   2.126   6.476   2.744 -0.5149  0.7796 -0.0907
19467TIP3    H179816   2.128   6.396   2.692 -2.9156 -0.0041  0.8372
19467TIP3    H279817   2.059   6.530   2.702 -0.8864  1.0899  0.8720
19468TIP3   OH279818   5.670   5.884   1.988  0.7519 -0.0404 -0.5587
19468TIP3    H179819   5.670   5.815   2.055  0.0020  1.0617  0.6080
19468TIP3    H279820   5.754   5.929   2.001  0.0980  0.9411  0.5049
19469TIP3   OH279821   4.495   5.253   5.501  0.1848 -0.4003  0.5549
19469TIP3    H179822   4.513   5.183   5.565  2.3283  0.7188  1.2746
19469TIP3    H279823   4.462   5.326   5.554 -0.5970 -0.3434  0.0045
19470TIP3   OH279824   5.690   3.719  15.183  0.6304  0.0936  1.0147
19470TIP3    H179825   5.654   3.795  15.228  0.4804 -0.0526  1.1416
19470TIP3    H279826   5.748   3.756  15.116  2.6181  0.3245  2.7622
19471TIP3   OH279827   2.031   1.250   3.155 -0.3713  0.0469 -0.1146
19471TIP3    H179828   1.966   1.191   3.116  1.0092 -0.8597 -1.0996
19471TIP3    H279829   2.047   1.316   3.088 -0.5782  0.5132  0.2917
19472TIP3   OH279830   1.730   6.324   4.514  0.3984  0.4067 -0.4826
19472TIP3    H179831   1.721   6.301   4.607  0.5561  0.8308 -0.3636
19472TIP3    H279832   1.817   6.293   4.490  1.6560  3.0570  0.3235
19473TIP3   OH279833   3.362   2.801   5.400 -0.2602  0.3058 -0.5318
19473TIP3    H179834   3.411   2.821   5.480 -1.0161 -1.7202  0.5299
19473TIP3    H279835   3.419   2.830   5.329  2.2031 -1.2739  0.6561
19474TIP3   OH279836   2.257   3.367   0.523 -0.4889 -0.4033 -0.5935
19474TIP3    H179837   2.229   3.445   0.475  0.6631  0.2605 -0.2106
19474TIP3    H279838   2.175   3.323   0.545 -1.3668  1.8239  1.0664
19475TIP3   OH279839   5.699   2.133  14.571 -0.4157 -0.4572 -0.4223
19475TIP3    H179840   5.710   2.063  14.634 -0.9036 -0.3608 -0.2216
19475TIP3    H279841   5.728   2.096  14.487  0.2183 -0.5853 -0.1491
19476TIP3   OH279842   0.429   2.458  14.299 -0.0027 -0.0547  0.1983
19476TIP3    H179843   0.440   2.370  14.263 -0.6125 -0.4049  0.8399
19476TIP3    H279844   0.367   2.501  14.240  0.4444  0.0292 -0.2274
19477TIP3   OH279845   6.537   5.594  14.050  0.2616  0.5313  0.1987
19477TIP3    H179846   6.467   5.654  14.074  0.4324  0.9046 -0.2305
19477TIP3    H279847   6.508   5.555  13.967 -0.4103 -0.8833  1.0486
19478TIP3   OH279848   6.097   1.500  13.189  0.2590 -0.4658  0.3108
19478TIP3    H179849   6.027   1.440  13.216 -0.9834  1.0641  0.6916
19478TIP3    H279850   6.112   1.480  13.097 -0.9657 -0.5963  0.1147
19479TIP3   OH279851   3.411   1.318   0.758  0.7245  0.6216 -0.3552
19479TIP3    H179852   3.355   1.368   0.699  0.1978 -1.0128 -1.2949
19479TIP3    H279853   3.446   1.247   0.704  2.0497  0.4001  0.7431
19480TIP3   OH279854   5.454   0.078   0.687 -0.3671  0.1035  0.6897
19480TIP3    H179855   5.526   0.088   0.625 -0.6749  3.4902  0.6733
19480TIP3    H279856   5.485   0.014   0.751  1.4291 -0.7026 -0.9260
19481TIP3   OH279857   4.002   5.927  11.483 -0.2828  0.1229  0.3927
19481TIP3    H179858   4.008   5.980  11.404 -1.9650  0.3688  0.3813
19481TIP3    H279859   3.984   5.838  11.451  2.2692 -0.4822  0.4206
19482TIP3   OH279860   1.267   6.766   0.979  0.4137 -0.0956 -0.6665
19482TIP3    H179861   1.339   6.750   1.040  1.2818  0.8252 -1.4057
19482TIP3    H279862   1.301   6.738   0.894 -1.1450 -2.3433 -0.6316
19483TIP3   OH279863   2.083   0.183   3.804 -0.8124 -0.0314  0.3010
19483TIP3    H179864   2.089   0.214   3.894 -0.9838  0.5243  0.1223
19483TIP3    H279865   1.997   0.140   3.799 -0.7006 -0.2769  0.4647
19484TIP3   OH279866   3.326   4.271   0.348 -0.7523  0.4897  0.1860
19484TIP3    H179867   3.242   4.288   0.306 -0.8135 -0.7416 -0.2333
19484TIP3    H279868   3.355   4.357   0.379 -0.4529  1.5642 -2.7962
19485TIP3   OH279869   6.071   5.144  13.740  0.5234 -0.3046  0.2730
19485TIP3    H179870   6.028   5.058  13.735 -1.6171  0.7431 -0.4854
19485TIP3    H279871   6.059   5.172  13.830  0.8007 -0.5798  0.3978
19486TIP3   OH279872   1.253   1.050   0.853 -0.1133  0.0422 -0.1437
19486TIP3    H179873   1.305   0.995   0.912 -0.3749 -0.2671 -0.1990
19486TIP3    H279874   1.291   1.137   0.862 -0.1403 -0.0044  0.4762
19487TIP3   OH279875   5.379   4.335   2.583 -0.4638  0.5652 -0.8847
19487TIP3    H179876   5.304   4.354   2.640  0.1811  0.6148 -0.0434
19487TIP3    H279877   5.363   4.245   2.553  0.5591 -0.5764  1.6435
19488TIP3   OH279878   5.011   6.502   0.041 -0.6609  0.0777 -1.0322
19488TIP3    H179879   4.935   6.480  -0.013 -0.8154  0.2985 -0.9035
19488TIP3    H279880   4.981   6.574   0.096 -0.8146 -0.7599  0.0196
19489TIP3   OH279881   0.010   4.040   5.748  0.4202  0.2223  0.1518
19489TIP3    H179882   0.033   3.980   5.820  2.1522  0.7852  0.1216
19489TIP3    H279883  -0.050   4.103   5.787  1.9764  1.0109  1.3646
19490TIP3   OH279884   5.123   4.067   0.207 -0.5832  0.4662  0.4878
19490TIP3    H179885   5.171   4.039   0.285  0.1509  1.4190  0.4115
19490TIP3    H279886   5.191   4.104   0.150 -1.1359 -0.0655 -0.5345
19491TIP3   OH279887   4.235   3.315  16.148 -0.3172  0.6861 -0.4726
19491TIP3    H179888   4.289   3.237  16.137 -0.0763  0.6919  0.6187
19491TIP3    H279889   4.297   3.388  16.148 -0.4070  0.7646 -0.1181
19492TIP3   OH279890   4.160   4.225   2.690 -0.0999 -0.2950  0.3681
19492TIP3    H179891   4.125   4.267   2.769 -0.2705  0.0154  0.1302
19492TIP3    H279892   4.228   4.286   2.660  0.3191 -0.6624  0.5604
19493TIP3   OH279893   0.162   2.961  12.599 -0.1039  0.4515 -0.0833
19493TIP3    H179894   0.134   2.959  12.508 -0.7126 -1.2006  0.1162
19493TIP3    H279895   0.243   2.910  12.601  0.9875  2.1018 -0.0030
19494TIP3   OH279896   3.735   0.570  13.418  0.3367  0.4750  0.0800
19494TIP3    H179897   3.697   0.483  13.404  1.7211 -0.3659  1.1871
19494TIP3    H279898   3.708   0.621  13.342 -0.3623 -0.9812 -0.6911
19495TIP3   OH279899   1.598   1.348  11.075 -0.1848 -0.2274  0.5385
19495TIP3    H179900   1.605   1.345  10.980  0.4745 -0.2685  0.5847
19495TIP3    H279901   1.620   1.438  11.098  2.7158 -0.9131  0.8592
19496TIP3   OH279902   0.396   4.638  15.249  0.0641  0.1216 -0.1046
19496TIP3    H179903   0.466   4.584  15.211  0.6927 -0.3507  1.6321
19496TIP3    H279904   0.419   4.727  15.223  1.0469 -0.0761  0.0346
19497TIP3   OH279905   6.287   3.014   1.981 -0.6952  0.3537  0.2531
19497TIP3    H179906   6.198   3.042   1.961  0.1186  1.0099 -3.0772
19497TIP3    H279907   6.301   2.936   1.927  1.2098  1.2363 -0.6524
19498TIP3   OH279908   4.499   5.136  15.150 -0.3579 -0.3443  1.2431
19498TIP3    H179909   4.477   5.050  15.113  0.4027 -1.3133  2.8991
19498TIP3    H279910   4.567   5.117  15.215  2.4672  1.9461 -0.7459
19499TIP3   OH279911   1.853   4.419   0.022  0.1767 -0.2217 -0.5325
19499TIP3    H179912   1.853   4.472   0.102 -0.2941  1.6213 -1.6889
19499TIP3    H279913   1.761   4.400   0.006  0.1646  0.3713 -1.2149
19500TIP3   OH279914   0.036   3.173  12.207  0.5403 -0.3067 -0.1233
19500TIP3    H179915   0.008   3.199  12.295  0.0219 -3.4482  0.7697
19500TIP3    H279916  -0.040   3.192  12.151  0.7715  1.4493  0.0973
19501TIP3   OH279917   2.851   6.257  16.512  0.0117  0.2642 -0.8262
19501TIP3    H179918   2.827   6.258  16.605 -0.3722  1.4598 -0.9228
19501TIP3    H279919   2.767   6.251  16.466  0.2283 -0.8884 -1.1066
19502TIP3   OH279920   0.010   4.526  16.896 -0.1046 -0.2611  0.4106
19502TIP3    H179921   0.058   4.517  16.978 -0.3362  0.8709  0.6795
19502TIP3    H279922   0.046   4.604  16.855  0.2700 -1.0191 -0.7637
19503TIP3   OH279923   3.272   1.996   0.886 -0.5736  0.4243  0.1487
19503TIP3    H179924   3.328   2.057   0.935 -0.3606  1.4558 -1.2733
19503TIP3    H279925   3.203   2.052   0.850 -2.2812 -0.7574  1.4577
19504TIP3   OH279926   6.128   3.161   2.276 -0.3481 -0.0809 -0.3360
19504TIP3    H179927   6.171   3.243   2.250 -1.3722  0.5291 -0.1338
19504TIP3    H279928   6.195   3.115   2.326  0.2027  0.6980 -0.3236
19505TIP3   OH279929   6.362   6.342   2.304  0.1313 -0.4996  0.4025
19505TIP3    H179930   6.387   6.318   2.214  0.2773 -1.3863  0.6748
19505TIP3    H279931   6.303   6.272   2.332  0.4212 -0.4530  1.1516
19506TIP3   OH279932   1.437   2.868   4.342  0.2606 -0.5799 -0.0259
19506TIP3    H179933   1.497   2.874   4.267 -0.4380 -0.4882 -0.5912
19506TIP3    H279934   1.472   2.796   4.394  0.8181 -0.5813 -0.3826
19507TIP3   OH279935   5.369   6.633   5.077  0.0740  0.1461  0.1260
19507TIP3    H179936   5.298   6.662   5.134 -0.8039 -0.8844 -0.4259
19507TIP3    H279937   5.356   6.539   5.067  1.3239 -0.0132 -0.2654
19508TIP3   OH279938   1.342   2.253  12.193 -0.2917 -0.2191 -0.2344
19508TIP3    H179939   1.363   2.339  12.156 -1.8830  0.0248 -0.6632
19508TIP3    H279940   1.389   2.191  12.138  0.5054  0.3362 -0.2083
19509TIP3   OH279941   1.256   0.711   4.778 -0.5379  0.5656 -0.4437
19509TIP3    H179942   1.320   0.646   4.805 -0.5446  0.9584  0.5357
19509TIP3    H279943   1.183   0.701   4.839 -1.7536 -0.3415 -1.9431
19510TIP3   OH279944   6.192   6.244  11.690  0.5158 -0.5555  0.2086
19510TIP3    H179945   6.226   6.249  11.779  0.6525  0.3916  0.1148
19510TIP3    H279946   6.098   6.232  11.701  0.4123  0.3851  0.5073
19511TIP3   OH279947   2.762   1.510  11.697 -0.1753  0.0711 -0.3847
19511TIP3    H179948   2.674   1.532  11.729  0.5381  1.4959  0.6804
19511TIP3    H279949   2.789   1.436  11.752 -1.5700 -1.9735 -2.2734
19512TIP3   OH279950   2.381   1.471  12.084 -0.3334  0.3366  0.4838
19512TIP3    H179951   2.339   1.385  12.088 -1.3508  0.8491  0.9909
19512TIP3    H279952   2.335   1.517  12.014  1.8333 -0.3433 -1.5332
19513TIP3   OH279953   1.506   4.956   2.432 -0.1503 -0.2366 -0.1810
19513TIP3    H179954   1.474   4.978   2.519 -1.3668  0.4854 -0.7686
19513TIP3    H279955   1.455   5.013   2.373 -0.5928 -1.8847 -1.4836
19514TIP3   OH279956   5.434   6.037   1.949 -0.1447 -0.2439  0.2932
19514TIP3    H179957   5.486   5.964   1.982  0.7104 -0.2004 -0.9082
19514TIP3    H279958   5.493   6.085   1.892 -0.9752  0.8615  0.3237
19515TIP3   OH279959   2.232   5.784  15.933  0.0232  0.1350  0.3334
19515TIP3    H179960   2.217   5.712  15.994  0.6538 -0.2306  0.0726
19515TIP3    H279961   2.171   5.853  15.960 -0.1350 -0.2581  0.9806
19516TIP3   OH279962   5.658   2.677  15.153 -0.2010 -0.2091  0.0709
19516TIP3    H179963   5.726   2.610  15.147  0.9814  0.9356  0.2468
19516TIP3    H279964   5.638   2.698  15.062 -0.2930 -0.5014  0.0202
19517TIP3   OH279965   2.092   3.296   4.152  0.0488  0.1213 -0.0551
19517TIP3    H179966   2.138   3.215   4.174 -0.6399 -0.4352 -0.5846
19517TIP3    H279967   2.123   3.318   4.065  0.1736  0.3802  0.0561
19518TIP3   OH279968   2.876   0.270  15.527 -0.0084  0.0224  0.5182
19518TIP3    H179969   2.863   0.206  15.457 -0.1070  1.4595 -0.8372
19518TIP3    H279970   2.948   0.234  15.579 -0.1157 -1.2163 -0.1496
19519TIP3   OH279971   0.921   6.150   3.374  0.3378  0.4552  0.5997
19519TIP3    H179972   0.858   6.160   3.446 -0.3377 -1.7010  0.3866
19519TIP3    H279973   0.894   6.069   3.330  0.3253  2.0013 -2.5125
19520TIP3   OH279974   3.532   0.400   2.466  0.0432 -0.0926  0.0668
19520TIP3    H179975   3.608   0.423   2.413  1.1045 -1.7831  0.7591
19520TIP3    H279976   3.568   0.387   2.554 -1.4549  1.3635  0.9451
19521TIP3   OH279977   0.278   0.323   0.139  0.2823  0.0844 -0.2290
19521TIP3    H179978   0.346   0.345   0.076  1.7970  0.6216  1.5057
19521TIP3    H279979   0.295   0.232   0.163  0.7471  0.3710  0.5843
19522TIP3   OH279980   1.843   2.895  11.265  0.1649 -0.4449 -0.1527
19522TIP3    H179981   1.887   2.918  11.347  1.4373 -0.7691 -0.7139
19522TIP3    H279982   1.821   2.979  11.226  2.2121 -0.1715 -0.8411
19523TIP3   OH279983   4.571   6.278   6.068 -0.4046  0.3072  0.3612
19523TIP3    H179984   4.561   6.211   6.136 -0.3554  1.0011  1.0583
19523TIP3    H279985   4.639   6.336   6.100  0.4307  0.0149 -0.8103
19524TIP3   OH279986   1.632   1.971  11.658 -0.0468  0.3396 -0.4490
19524TIP3    H179987   1.679   1.915  11.597 -1.7601 -0.1976 -1.3462
19524TIP3    H279988   1.666   2.059  11.642  2.0599 -0.2517  0.3692
19525TIP3   OH279989   0.802   4.336  11.052 -0.8300 -0.3812 -0.1664
19525TIP3    H179990   0.888   4.330  11.096 -0.7470 -2.3276 -0.4951
19525TIP3    H279991   0.801   4.261  10.992 -3.4174 -1.4163  1.0344
19526TIP3   OH279992   4.221   3.385  17.005 -0.0695  0.6890  0.7103
19526TIP3    H179993   4.205   3.353  16.916 -1.3619  1.6636  0.5601
19526TIP3    H279994   4.292   3.447  16.996  0.9099 -0.4037  0.6418
19527TIP3   OH279995   5.328   6.270  11.479 -0.0919  0.4870  0.4894
19527TIP3    H179996   5.303   6.235  11.564 -1.1538 -0.5131 -0.2031
19527TIP3    H279997   5.250   6.260  11.424  0.2845  1.9310 -0.3700
19528TIP3   OH279998   0.734   4.577   1.289  0.0274 -0.0709 -0.2948
19528TIP3    H179999   0.778   4.492   1.283 -0.3832 -0.3036 -0.0755
19528TIP3    H280000   0.661   4.571   1.227  0.9082  0.6943 -1.4240
19529TIP3   OH280001   5.767   0.446   2.894 -0.2620 -0.2049 -0.3904
19529TIP3    H180002   5.861   0.429   2.894 -0.4350 -1.3111 -1.5333
19529TIP3    H280003   5.759   0.541   2.882  0.6905  0.0504  0.7687
19530TIP3   OH280004   5.757   0.963   4.893 -0.5281 -0.5021  0.1083
19530TIP3    H180005   5.755   0.915   4.976 -0.5984 -0.9358 -0.1418
19530TIP3    H280006   5.848   0.957   4.864 -0.9007 -2.0119 -0.8012
19531TIP3   OH280007   3.910   2.999  13.126 -0.3950  0.5394  0.1847
19531TIP3    H180008   3.969   2.931  13.092 -0.5303  0.4495  0.1288
19531TIP3    H280009   3.873   3.040  13.047 -1.0103  0.0672  0.2236
19532TIP3   OH280010   2.598   0.568   0.187 -0.0340  0.5111  0.0882
19532TIP3    H180011   2.516   0.539   0.228 -1.0910  1.9580 -0.8827
19532TIP3    H280012   2.584   0.662   0.171  0.8553  0.2793 -2.3545
19533TIP3   OH280013   1.581   0.742   5.628 -0.4096 -0.2440  0.2828
19533TIP3    H180014   1.496   0.712   5.597 -0.0095 -1.9511  0.7121
19533TIP3    H280015   1.613   0.671   5.684  1.0920  0.5538  0.5107
19534TIP3   OH280016   3.279   0.294   3.910  0.0325  0.0328  0.2977
19534TIP3    H180017   3.236   0.366   3.956  1.0835  2.0395 -1.6920
19534TIP3    H280018   3.370   0.298   3.938  0.1046 -0.5289  0.1573
19535TIP3   OH280019   0.330   2.388  15.903  0.2226  1.2194 -0.2122
19535TIP3    H180020   0.340   2.292  15.904  2.2879  1.3821  0.9966
19535TIP3    H280021   0.310   2.409  15.812 -1.3982 -0.4400 -0.2845
19536TIP3   OH280022   0.622   3.930  11.853  0.2752 -0.0838 -0.3329
19536TIP3    H180023   0.618   3.848  11.804 -0.0652 -0.6902  0.6838
19536TIP3    H280024   0.715   3.944  11.869  0.3693 -0.0200 -0.8987
19537TIP3   OH280025   0.078   4.619  16.212 -0.3587  0.4082 -0.1329
19537TIP3    H180026   0.153   4.637  16.155  0.6208 -0.6354  0.7692
19537TIP3    H280027   0.020   4.694  16.201  1.2572  1.6988 -0.1436
19538TIP3   OH280028   6.590   4.916  13.379  0.6697 -0.6752  0.0203
19538TIP3    H180029   6.546   4.931  13.295  0.4199 -0.0735  0.2540
19538TIP3    H280030   6.626   5.001  13.402 -0.2714 -0.5542  1.1016
19539TIP3   OH280031   2.269   2.913  16.991  0.5804 -0.3921  0.0513
19539TIP3    H180032   2.252   2.939  17.082 -1.2136 -3.0341  0.5987
19539TIP3    H280033   2.329   2.839  16.999  0.5908 -0.4988 -0.9404
19540TIP3   OH280034   6.204   3.390   0.667 -1.1022 -0.3720  0.2246
19540TIP3    H180035   6.254   3.332   0.610 -0.8012 -0.3436  0.4507
19540TIP3    H280036   6.135   3.335   0.704 -1.0790 -0.4786  0.1070
19541TIP3   OH280037   3.902   4.005  11.173 -0.0473 -0.6007  0.4307
19541TIP3    H180038   3.908   3.911  11.189  1.0782 -0.7856 -0.8639
19541TIP3    H280039   3.893   4.013  11.078  3.4982  0.6201  0.0492
19542TIP3   OH280040   4.624   3.903  17.065  0.3310  0.0008 -0.1877
19542TIP3    H180041   4.647   3.994  17.046  0.2968  0.1301  0.3577
19542TIP3    H280042   4.564   3.878  16.995 -1.2155  1.0227  0.7096
19543TIP3   OH280043   0.576   0.375  14.088  0.3434 -0.4420  0.1040
19543TIP3    H180044   0.567   0.470  14.096 -2.2628 -0.4151 -1.6934
19543TIP3    H280045   0.566   0.342  14.178  0.9006  0.9455  0.6951
19544TIP3   OH280046   0.205   0.692   3.067  0.6361  0.4199  0.0267
19544TIP3    H180047   0.182   0.600   3.058 -1.5655  0.9977 -1.0041
19544TIP3    H280048   0.253   0.713   2.987  0.6054  0.2878 -0.0266
19545TIP3   OH280049   4.444   5.300   2.878 -0.7480 -0.2211  0.0958
19545TIP3    H180050   4.474   5.267   2.962  1.5525 -0.6872 -0.8256
19545TIP3    H280051   4.523   5.304   2.824 -1.6423  2.7539 -1.1945
19546TIP3   OH280052   0.845   2.930  14.412 -0.5389  0.3642  0.4053
19546TIP3    H180053   0.929   2.975  14.405  0.0818 -0.9638 -1.2468
19546TIP3    H280054   0.788   2.976  14.351 -0.1624 -0.4741 -0.6078
19547TIP3   OH280055   6.302   5.076   4.098  0.0541 -0.5024  0.3329
19547TIP3    H180056   6.379   5.034   4.136 -0.0117 -0.8943  0.0392
19547TIP3    H280057   6.251   5.105   4.173  0.6244  0.0153  0.5298
19548TIP3   OH280058   4.440   2.535   0.305  0.1734 -0.4574 -0.5929
19548TIP3    H180059   4.438   2.618   0.354  1.0879 -0.3327 -0.7453
19548TIP3    H280060   4.533   2.523   0.284  0.3189 -2.4072  0.9337
19549TIP3   OH280061   2.719   0.051   1.399 -0.6100  0.1204 -0.5366
19549TIP3    H180062   2.813   0.051   1.417 -0.1730 -1.9698 -2.3432
19549TIP3    H280063   2.698   0.142   1.382  1.5249  0.4495 -1.8746
19550TIP3   OH280064   1.849   5.463   1.471 -0.9115 -0.2797 -0.3964
19550TIP3    H180065   1.775   5.448   1.531  1.2931  0.9910  2.9189
19550TIP3    H280066   1.836   5.553   1.440  0.3532  0.8550  2.1125
19551TIP3   OH280067   2.018   5.738  15.114 -0.1996  0.5627 -0.2181
19551TIP3    H180068   2.076   5.700  15.048 -0.8628 -0.3006 -0.3239
19551TIP3    H280069   2.049   5.701  15.197  0.8130  1.8642  0.0314
19552TIP3   OH280070   2.496   3.857  11.112 -0.7012 -0.2692 -0.0411
19552TIP3    H180071   2.481   3.866  11.206 -1.0303  0.3596 -0.1549
19552TIP3    H280072   2.432   3.914  11.070 -1.2255 -1.2973 -0.6940
19553TIP3   OH280073   0.683   0.048   4.945  0.0564 -0.2792 -0.2178
19553TIP3    H180074   0.661  -0.044   4.929 -0.6243 -0.2149  0.2892
19553TIP3    H280075   0.767   0.061   4.901 -0.8727 -0.5750 -2.1849
19554TIP3   OH280076   4.923   0.961  16.163 -0.0405  1.0024  0.4757
19554TIP3    H180077   4.888   0.878  16.129 -0.3923  0.5450  1.9023
19554TIP3    H280078   4.973   0.997  16.090 -0.3583 -0.1845 -0.3635
19555TIP3   OH280079   4.165   1.653  14.427  0.3199  0.5958  0.1545
19555TIP3    H180080   4.222   1.580  14.402 -0.0027  0.9301 -1.7473
19555TIP3    H280081   4.099   1.614  14.483  2.2964  0.1774  2.3509
19556TIP3   OH280082   2.800   0.291  13.087  0.9607  0.1986 -0.3338
19556TIP3    H180083   2.742   0.337  13.026  2.6406 -0.8542 -2.8926
19556TIP3    H280084   2.857   0.359  13.122 -0.0408  0.8226  0.1539
19557TIP3   OH280085   5.956   2.357   4.838  0.1183  0.1607 -0.1056
19557TIP3    H180086   5.924   2.315   4.758  0.3440  0.9968 -0.6514
19557TIP3    H280087   5.915   2.308   4.909 -5.0007  2.8866 -0.6516
19558TIP3   OH280088   4.749   6.301   2.945 -0.2476 -0.5730 -0.3893
19558TIP3    H180089   4.783   6.376   2.897  0.3867 -0.1651  0.6524
19558TIP3    H280090   4.826   6.250   2.970 -0.4281 -0.1479  1.1712
19559TIP3   OH280091   0.136   1.269  11.940  0.5939 -0.3881 -0.2672
19559TIP3    H180092   0.163   1.194  11.887  1.5621 -0.1191 -0.1808
19559TIP3    H280093   0.211   1.285  11.997 -0.6479 -1.0765  1.6547
19560TIP3   OH280094   6.213   3.162   3.854 -0.0397  0.2704 -0.4501
19560TIP3    H180095   6.299   3.204   3.861  0.4605 -0.5903 -1.2706
19560TIP3    H280096   6.204   3.139   3.762 -0.6229 -0.7394 -0.1595
19561TIP3   OH280097   1.617   6.308   1.106  0.6794 -0.2796  0.2921
19561TIP3    H180098   1.624   6.297   1.200  0.5452  1.1460  0.4871
19561TIP3    H280099   1.530   6.345   1.091 -0.1693 -2.4692 -0.6150
19562TIP3   OH280100   3.599   1.750  15.644 -0.3194  0.1173  0.4929
19562TIP3    H180101   3.630   1.665  15.677  1.1587  1.2297  2.1445
19562TIP3    H280102   3.678   1.804  15.641 -1.5499  2.0445  1.4738
19563TIP3   OH280103   6.603   0.746  16.949  0.1827 -0.0958  0.0899
19563TIP3    H180104   6.699   0.743  16.952  0.1573 -0.1480  1.4665
19563TIP3    H280105   6.575   0.660  16.979 -0.2910  0.3077  0.8393
19564TIP3   OH280106   6.750   3.906   5.091 -0.5871 -0.2246 -0.4304
19564TIP3    H180107   6.659   3.926   5.070 -0.5155  0.5672 -0.0362
19564TIP3    H280108   6.793   3.898   5.006 -0.7073  0.9428 -0.6155
19565TIP3   OH280109   2.849   0.761  15.650  0.2570  0.3184 -0.1742
19565TIP3    H180110   2.900   0.704  15.708 -0.3621  0.0447  0.0985
19565TIP3    H280111   2.904   0.770  15.572  0.2515 -0.8736 -0.3339
19566TIP3   OH280112   1.387   3.636   0.218  0.1511 -0.0383 -0.2160
19566TIP3    H180113   1.394   3.658   0.125  1.1590  1.6927  0.2258
19566TIP3    H280114   1.478   3.622   0.246 -0.2376 -1.8190  0.2419
19567TIP3   OH280115   5.686   1.396  11.949 -0.5772 -0.2235  0.2971
19567TIP3    H180116   5.749   1.392  11.877  1.7040 -0.1911  2.1518
19567TIP3    H280117   5.734   1.439  12.020 -2.5033 -0.7716  2.0308
19568TIP3   OH280118   6.461   0.679   3.926 -0.1252  0.2796  0.5240
19568TIP3    H180119   6.525   0.689   3.856  1.8977 -1.8932  1.9178
19568TIP3    H280120   6.463   0.763   3.972  2.2593  0.1133  0.8760
19569TIP3   OH280121   5.324   4.312   0.150 -0.4443  0.3183 -0.0137
19569TIP3    H180122   5.290   4.401   0.137  0.4843  0.6437 -0.2354
19569TIP3    H280123   5.327   4.302   0.246  1.9828  1.5372  0.0988
19570TIP3   OH280124   4.123   6.235  11.127 -0.6530  0.3025  0.0322
19570TIP3    H180125   4.099   6.170  11.061 -0.5826  0.5504 -0.2410
19570TIP3    H280126   4.077   6.315  11.100 -1.7338  0.0551  1.0413
19571TIP3   OH280127   2.585   4.385  12.915 -0.1930  0.7586 -0.0696
19571TIP3    H180128   2.531   4.335  12.976 -1.9623  1.2291 -1.1835
19571TIP3    H280129   2.611   4.463  12.964 -1.7249  1.2096  0.0678
19572TIP3   OH280130   6.233   1.358   5.305 -0.5372 -0.2160  0.4847
19572TIP3    H180131   6.170   1.287   5.305  0.4656 -1.1778 -1.0664
19572TIP3    H280132   6.203   1.417   5.236 -1.9722  1.5361  2.4668
19573TIP3   OH280133   2.696   0.317   5.142 -0.3735  0.5552 -0.6573
19573TIP3    H180134   2.791   0.314   5.131 -0.2359  0.3290  0.4257
19573TIP3    H280135   2.662   0.335   5.055  0.7108  1.5957 -0.8899
19574TIP3   OH280136   0.378   6.110  12.141  0.4276 -0.3777 -0.3345
19574TIP3    H180137   0.414   6.105  12.230 -0.6849  0.4892  0.1966
19574TIP3    H280138   0.426   6.181  12.099 -0.5945  0.7748  0.3682
19575TIP3   OH280139   2.247   6.167  12.973 -0.3273 -0.2708  0.3089
19575TIP3    H180140   2.247   6.184  12.879 -1.2001  1.4482  0.5718
19575TIP3    H280141   2.168   6.116  12.989 -1.0877  0.8737  0.3022
19576TIP3   OH280142   2.509   2.405  14.719 -0.4452 -0.0790  0.5220
19576TIP3    H180143   2.535   2.489  14.758 -3.9167  1.3103  0.1711
19576TIP3    H280144   2.462   2.360  14.789 -3.5450  0.8554 -0.8107
19577TIP3   OH280145   2.237   4.740  14.627  0.1290 -0.4425 -0.8523
19577TIP3    H180146   2.297   4.718  14.698 -1.2678 -0.6576  0.3052
19577TIP3    H280147   2.183   4.811  14.662 -0.3303 -0.2691 -1.8644
19578TIP3   OH280148   6.063   0.652  14.645  0.6970 -0.4012 -0.2944
19578TIP3    H180149   6.080   0.679  14.555  0.0792 -0.4376 -0.4269
19578TIP3    H280150   6.117   0.710  14.698 -1.3356  1.8284 -0.5031
19579TIP3   OH280151   3.332   1.430   5.884 -0.1035 -0.0541  0.0412
19579TIP3    H180152   3.254   1.470   5.846  0.1364  0.1525 -0.2397
19579TIP3    H280153   3.371   1.380   5.812 -0.3823 -0.7738  0.3781
19580TIP3   OH280154   1.919   5.679   1.809  0.8812 -0.9551  0.2404
19580TIP3    H180155   1.903   5.586   1.789  0.2110 -1.0934  1.2892
19580TIP3    H280156   2.005   5.679   1.850  1.3503 -0.9554 -0.7240
19581TIP3   OH280157   6.554   0.226   4.079  0.2808 -0.0578  0.3401
19581TIP3    H180158   6.478   0.195   4.128 -0.4487  2.4341  0.8884
19581TIP3    H280159   6.523   0.233   3.989  0.3311 -0.4915  0.2860
19582TIP3   OH280160   1.290   4.438   2.206  0.0058  0.2026 -0.3303
19582TIP3    H180161   1.234   4.388   2.265  1.1483  0.3518  0.9308
19582TIP3    H280162   1.296   4.524   2.247  1.0258  0.2349 -0.5413
19583TIP3   OH280163   2.647   5.545   5.160  0.5408 -0.5814 -0.4447
19583TIP3    H180164   2.596   5.494   5.096 -0.9036  1.4151 -1.0105
19583TIP3    H280165   2.679   5.480   5.223 -3.1231 -2.0031  0.2171
19584TIP3   OH280166   0.144   5.804  12.365  0.1521 -0.5504  0.3052
19584TIP3    H180167   0.058   5.770  12.340  0.2767 -0.8116  0.2235
19584TIP3    H280168   0.206   5.747  12.319  0.3635  1.2277 -1.7839
19585TIP3   OH280169   5.784   4.538   2.765 -0.5256 -0.1991  0.0490
19585TIP3    H180170   5.845   4.610   2.747  0.2719 -0.5473  1.2454
19585TIP3    H280171   5.726   4.537   2.689  0.9355  0.1627 -1.1203
19586TIP3   OH280172   2.193   1.642   0.064  0.4703 -0.6578 -0.1902
19586TIP3    H180173   2.186   1.559   0.018  0.9991 -0.0737 -1.3774
19586TIP3    H280174   2.286   1.663   0.062  0.2319  0.4107 -0.7558
19587TIP3   OH280175   3.114   1.958   3.769 -0.1443  0.2900 -0.1452
19587TIP3    H180176   3.082   1.976   3.857 -0.1395  2.0865 -0.4818
19587TIP3    H280177   3.046   1.903   3.730 -0.1152 -0.5864  0.9685
19588TIP3   OH280178   0.136   0.834   5.824  0.5822  0.1603  0.4091
19588TIP3    H180179   0.095   0.786   5.895 -2.2410 -1.2372 -1.9229
19588TIP3    H280180   0.113   0.926   5.841 -1.0864 -0.2816  0.7181
19589TIP3   OH280181   2.795   5.623  14.273 -0.0260 -0.2739  0.1410
19589TIP3    H180182   2.803   5.666  14.359  2.2087  0.6259 -0.4412
19589TIP3    H280183   2.806   5.529  14.292 -0.9771 -0.2282  0.9794
19590TIP3   OH280184   4.591   5.719  11.975 -0.1883 -0.3234 -0.4431
19590TIP3    H180185   4.566   5.674  11.895  2.4449 -0.0231 -1.5562
19590TIP3    H280186   4.586   5.812  11.953  0.9894 -0.2459 -0.4435
19591TIP3   OH280187   3.916   4.273  11.870  0.1202  0.2963  0.4402
19591TIP3    H180188   3.895   4.296  11.779 -0.0630  0.9928  0.6521
19591TIP3    H280189   3.960   4.188  11.863 -2.5882 -1.1660 -0.0458
19592TIP3   OH280190   3.299   6.361  17.182 -0.3754  0.0151 -0.0671
19592TIP3    H180191   3.314   6.284  17.126 -0.1133 -0.4647  0.6435
19592TIP3    H280192   3.386   6.400  17.191  0.1579 -1.4867  2.2193
19593TIP3   OH280193   0.749   0.198   1.828 -0.2178 -0.3849  0.1004
19593TIP3    H180194   0.788   0.259   1.891 -2.7920  0.2800  1.1612
19593TIP3    H280195   0.745   0.247   1.746  0.6837 -0.3114  0.0886
19594TIP3   OH280196   5.413   1.805   1.035  0.4208 -0.0695  0.7175
19594TIP3    H180197   5.429   1.867   0.963 -1.8270  1.0161  1.0446
19594TIP3    H280198   5.384   1.725   0.991  0.9131 -0.0582  0.3611
19595TIP3   OH280199   2.462   3.499  16.682  0.0117  0.0137  0.6919
19595TIP3    H180200   2.472   3.582  16.636  2.4898 -0.2041  0.7355
19595TIP3    H280201   2.387   3.458  16.639  0.0231  1.3652 -0.7290
19596TIP3   OH280202   4.871   0.701   5.462  0.5982  0.2534  0.0053
19596TIP3    H180203   4.860   0.620   5.511 -0.8352 -0.6774 -1.7264
19596TIP3    H280204   4.795   0.755   5.487  0.8081  0.5021  0.1152
19597TIP3   OH280205   0.134   4.624   2.152 -0.3077 -0.0929  0.1200
19597TIP3    H180206   0.208   4.573   2.184 -1.9622 -2.0796  0.9866
19597TIP3    H280207   0.135   4.703   2.207 -0.1026 -1.1133  1.6546
19598TIP3   OH280208   0.507   6.734  17.177  0.0863  0.1338  0.1118
19598TIP3    H180209   0.479   6.690  17.097 -0.7644 -0.5321  0.7574
19598TIP3    H280210   0.592   6.772  17.155 -0.3553  0.3717 -1.2438
19599TIP3   OH280211   1.189   2.316   4.277 -0.3940 -0.0749 -0.3841
19599TIP3    H180212   1.267   2.361   4.311  0.1829 -2.4983  1.8296
19599TIP3    H280213   1.116   2.363   4.316  0.1789 -0.8307  1.7202
19600TIP3   OH280214   3.126   2.767  15.683 -0.3114 -0.0621  0.1294
19600TIP3    H180215   3.063   2.702  15.714  0.6966 -1.1467 -0.0133
19600TIP3    H280216   3.080   2.850  15.689 -0.9299 -0.4989  2.4088
19601TIP3   OH280217   5.658   4.073  15.836  0.0975  0.3460  0.1442
19601TIP3    H180218   5.668   3.981  15.861  1.7559  0.3347 -0.4048
19601TIP3    H280219   5.668   4.122  15.918  0.9942  0.0984  0.1949
19602TIP3   OH280220   0.989   1.955  10.418  0.5802 -0.2060  0.0833
19602TIP3    H180221   1.004   2.046  10.444  1.9442 -0.2827 -0.3571
19602TIP3    H280222   1.017   1.903  10.494 -0.1047 -0.2748  0.2980
19603TIP3   OH280223   2.330   2.573   5.382  0.1190  0.2107  0.1362
19603TIP3    H180224   2.372   2.537   5.460  0.8785 -2.5477 -1.4008
19603TIP3    H280225   2.402   2.595   5.323 -0.4654  1.5436 -0.1259
19604TIP3   OH280226   3.101   4.676  14.629  0.0334 -0.1802 -0.3207
19604TIP3    H180227   3.006   4.675  14.637  0.0084  1.2886 -0.1907
19604TIP3    H280228   3.132   4.644  14.713 -0.3513  1.2738  0.4023
19605TIP3   OH280229   6.498   3.632  16.859  0.2313  0.1245 -0.1958
19605TIP3    H180230   6.461   3.697  16.799 -0.5615  0.6296  0.8176
19605TIP3    H280231   6.551   3.683  16.921  0.3012 -0.2913  0.0941
19606TIP3   OH280232   3.177   2.055  11.239  0.4809  0.0738  0.1010
19606TIP3    H180233   3.156   1.964  11.220 -0.4236  0.6504 -1.9963
19606TIP3    H280234   3.100   2.089  11.284 -0.7173  0.6267 -2.2049
19607TIP3   OH280235   6.258   1.040   5.153  0.3454 -0.3072 -0.6717
19607TIP3    H180236   6.238   0.949   5.175  0.3736 -0.0016  0.6516
19607TIP3    H280237   6.185   1.091   5.189  0.9354  0.3125 -0.3286
19608TIP3   OH280238   6.652   0.890   1.035  0.4292  0.2983  0.3439
19608TIP3    H180239   6.682   0.977   1.062 -0.8063  0.3447  1.6462
19608TIP3    H280240   6.561   0.902   1.008  0.3417 -0.5378  0.2170
19609TIP3   OH280241   3.775   2.526  12.108  0.2900 -0.4290 -0.3755
19609TIP3    H180242   3.780   2.543  12.014 -1.3899  1.8381 -0.1354
19609TIP3    H280243   3.859   2.558  12.142 -0.6268  2.6909 -0.6875
19610TIP3   OH280244   6.024   0.499   1.359 -0.0593 -0.3023 -0.3702
19610TIP3    H180245   6.031   0.418   1.308 -0.4195 -1.2296  1.0107
19610TIP3    H280246   5.956   0.549   1.313  0.0424 -0.8457 -1.1409
19611TIP3   OH280247   3.879   6.046   6.019  0.1390  0.4665  0.0973
19611TIP3    H180248   3.796   6.011   5.986 -0.1450  1.2648 -0.0496
19611TIP3    H280249   3.942   6.027   5.949  0.3070 -0.9951  0.6078
19612TIP3   OH280250   0.071   2.611   5.489  0.0908  0.1915  0.2344
19612TIP3    H180251  -0.023   2.618   5.502 -0.1383  1.1778 -1.6150
19612TIP3    H280252   0.084   2.523   5.454 -0.3395  0.5538 -0.8578
19613TIP3   OH280253   4.105   5.183   0.486  0.3999  0.3767  0.4759
19613TIP3    H180254   4.156   5.111   0.450  0.2330  0.9792 -1.0487
19613TIP3    H280255   4.097   5.163   0.579  0.2494 -1.6269  0.0694
19614TIP3   OH280256   1.069   0.528   2.421  0.4779 -0.4153  0.4974
19614TIP3    H180257   1.007   0.579   2.369  0.7486 -0.0282  0.5484
19614TIP3    H280258   1.156   0.558   2.391  0.6526  0.6920  1.9795
19615TIP3   OH280259   2.037   1.330  13.537  0.0335 -0.3046  0.1502
19615TIP3    H180260   2.035   1.417  13.497  1.9966 -0.3309 -0.1043
19615TIP3    H280261   1.947   1.315  13.566 -0.1177  2.2953  1.2842
19616TIP3   OH280262   6.418   4.261  12.790 -0.8788 -0.4847 -0.0078
19616TIP3    H180263   6.436   4.304  12.707 -1.5357  0.0782  0.1323
19616TIP3    H280264   6.372   4.180  12.766  0.0055 -0.9267 -0.2481
19617TIP3   OH280265   0.588   1.666  16.328 -0.2415 -0.2190 -0.3092
19617TIP3    H180266   0.536   1.731  16.281  0.5124  1.8652  1.5465
19617TIP3    H280267   0.524   1.620  16.383 -0.4570  0.9182  0.4316
19618TIP3   OH280268   4.193   1.837   2.260 -0.5469  0.7533  0.0214
19618TIP3    H180269   4.178   1.923   2.220 -0.5202 -0.0056 -1.7105
19618TIP3    H280270   4.288   1.823   2.251 -0.5515  0.5473  0.2963
19619TIP3   OH280271   3.291   2.868   3.565 -0.1950  0.4479  0.3476
19619TIP3    H180272   3.257   2.894   3.650 -1.4525 -1.2180  0.4297
19619TIP3    H280273   3.216   2.826   3.522  0.7927 -0.0109 -1.0080
19620TIP3   OH280274   0.872   5.097  14.600 -0.4348  0.2785 -0.6008
19620TIP3    H180275   0.807   5.062  14.540 -0.0200 -1.6901  0.0264
19620TIP3    H280276   0.949   5.041  14.588  0.3654  1.1406  0.2934
19621TIP3   OH280277   0.101   5.699   1.511  0.1149  0.4046  0.2205
19621TIP3    H180278   0.157   5.765   1.470  0.1322  0.6472  0.6251
19621TIP3    H280279   0.093   5.728   1.602 -2.4081  1.5936 -0.2829
19622TIP3   OH280280   2.747   6.166  14.832  0.3161  0.1944 -0.5372
19622TIP3    H180281   2.706   6.104  14.892 -1.8353  2.1076  0.1375
19622TIP3    H280282   2.837   6.172  14.862 -0.6484  1.0142  2.5761
19623TIP3   OH280283   5.218   0.632   2.259 -0.0289  0.0208  0.4101
19623TIP3    H180284   5.311   0.630   2.234  0.1255 -1.0722  1.0039
19623TIP3    H280285   5.208   0.560   2.320 -1.1030  0.6522  1.0148
19624TIP3   OH280286   6.206   6.604  15.985 -0.2398  0.2633  0.6607
19624TIP3    H180287   6.259   6.553  15.924  0.6031  0.2049  1.4254
19624TIP3    H280288   6.246   6.589  16.071 -1.3943  0.3526  1.2447
19625TIP3   OH280289   2.984   0.813  14.035  0.2150  0.0005  1.1713
19625TIP3    H180290   2.955   0.861  13.958 -0.3718  0.9802  1.9836
19625TIP3    H280291   2.913   0.823  14.099  0.0549 -1.9767  1.3783
19626TIP3   OH280292   4.926   2.447  10.895  0.1896 -0.4351 -0.5017
19626TIP3    H180293   4.935   2.405  10.981  0.3211  1.3338  0.4152
19626TIP3    H280294   4.923   2.375  10.833  2.6380 -1.7345  0.7332
19627TIP3   OH280295   4.978   3.362  16.426  0.1231  0.1480  0.3474
19627TIP3    H180296   4.987   3.267  16.421  1.7451  0.2331  1.2082
19627TIP3    H280297   4.884   3.377  16.421 -0.0647 -1.2922 -2.8695
19628TIP3   OH280298   1.565   3.022   3.519  0.4542  0.0237  0.0949
19628TIP3    H180299   1.552   2.934   3.553  1.8865 -0.6690 -1.0509
19628TIP3    H280300   1.600   3.072   3.592 -0.8033 -0.2033  0.8828
19629TIP3   OH280301   5.961   4.453   3.355  0.2016  0.2032 -0.1446
19629TIP3    H180302   5.960   4.464   3.450  0.6381 -0.4375 -0.0648
19629TIP3    H280303   6.051   4.473   3.329  0.2663 -0.3264 -0.3390
19630TIP3   OH280304   5.389   4.094   2.054 -0.1282 -0.1601 -0.2088
19630TIP3    H180305   5.437   4.101   1.972 -0.7431  0.1901 -0.5374
19630TIP3    H280306   5.313   4.039   2.034 -0.5704  0.3702 -0.0101
19631TIP3   OH280307   6.444   1.413   0.543 -0.2142 -0.2296 -0.1948
19631TIP3    H180308   6.415   1.473   0.612 -1.2554  0.5665 -1.2776
19631TIP3    H280309   6.368   1.358   0.526 -0.4485  0.4872 -1.6190
19632TIP3   OH280310   5.053   1.010   3.291 -0.1457 -0.1938  0.4210
19632TIP3    H180311   5.007   1.071   3.233 -1.4935 -2.5578 -1.1924
19632TIP3    H280312   4.994   0.936   3.299  0.1488 -0.1967  4.6547
19633TIP3   OH280313   1.974   1.460   4.783  0.1579  0.0341 -0.2761
19633TIP3    H180314   2.043   1.469   4.717  0.8090  0.0278  0.3928
19633TIP3    H280315   1.923   1.384   4.754  1.5763 -1.1625  0.2057
19634TIP3   OH280316   3.196   5.792  12.303 -0.0819  0.3896  0.0560
19634TIP3    H180317   3.130   5.843  12.350 -2.1184 -2.3154  0.3100
19634TIP3    H280318   3.191   5.823  12.213  0.2861  2.0712  0.5677
19635TIP3   OH280319   5.587   0.082  16.012  0.3389 -0.0118  0.3301
19635TIP3    H180320   5.503   0.036  16.018 -0.2898  1.1592  0.8776
19635TIP3    H280321   5.586   0.122  15.925  0.2445  0.1811  0.4224
19636TIP3   OH280322   1.493   3.199   4.344  0.4213  0.2234 -0.7579
19636TIP3    H180323   1.517   3.172   4.255  1.1465 -0.3896 -0.3797
19636TIP3    H280324   1.545   3.143   4.401 -0.0515  0.6076  0.0598
19637TIP3   OH280325   6.522   4.099  16.862 -0.3400 -0.7985  0.0900
19637TIP3    H180326   6.577   4.021  16.855 -1.3834 -1.6254  0.8211
19637TIP3    H280327   6.456   4.088  16.793 -1.1958 -1.1665  0.9458
19638TIP3   OH280328   2.855   5.969  11.189 -0.0876 -0.0868 -0.0135
19638TIP3    H180329   2.816   6.047  11.148 -0.6825 -0.7785 -0.7922
19638TIP3    H280330   2.781   5.909  11.201  0.7287 -1.4995 -1.6612
19639TIP3   OH280331   0.685   4.718  11.862 -0.7637  0.4439  0.2750
19639TIP3    H180332   0.726   4.804  11.848 -1.4539  0.4927 -1.7756
19639TIP3    H280333   0.591   4.736  11.860 -0.9352 -0.5091 -1.4076
19640TIP3   OH280334   6.161   4.542  16.480  0.4490 -0.1619  0.7580
19640TIP3    H180335   6.117   4.570  16.560 -0.7432  2.8968 -0.7821
19640TIP3    H280336   6.210   4.619  16.452 -1.8332  0.1435 -3.1049
19641TIP3   OH280337   4.320   1.282  17.083 -0.0264 -0.3256 -0.4927
19641TIP3    H180338   4.320   1.215  17.015 -2.6348 -1.4409  0.4697
19641TIP3    H280339   4.389   1.255  17.144  0.7188 -0.6471 -1.4644
19642TIP3   OH280340   2.128   0.615  17.222 -0.1670 -0.4746 -0.0510
19642TIP3    H180341   2.093   0.686  17.275 -0.6627 -0.5369 -0.2836
19642TIP3    H280342   2.065   0.543  17.235  0.4764 -0.9675  0.4102
19643TIP3   OH280343   5.546   2.724  14.502 -0.3121 -0.3412  0.2208
19643TIP3    H180344   5.630   2.758  14.473 -0.1617 -1.0959 -0.2582
19643TIP3    H280345   5.530   2.648  14.446 -0.3134 -1.4636  1.6953
19644TIP3   OH280346   6.147   2.539  14.199  0.2984 -0.0933 -0.7994
19644TIP3    H180347   6.145   2.444  14.185  0.6373  0.1540 -2.8957
19644TIP3    H280348   6.065   2.558  14.244  0.9800 -1.5447  1.2326
19645TIP3   OH280349   2.562   0.647   6.596  0.1676 -0.3082  0.4015
19645TIP3    H180350   2.646   0.601   6.599  0.8550  0.6647 -1.9165
19645TIP3    H280351   2.511   0.600   6.532 -0.6644 -0.2357  0.9975
19646TIP3   OH280352   0.778   0.410  16.089  0.0909 -0.3250  0.4756
19646TIP3    H180353   0.705   0.349  16.097  0.2105 -0.6094 -0.4551
19646TIP3    H280354   0.849   0.358  16.052  0.5458  0.1178  0.7176
19647TIP3   OH280355   4.733   6.379   1.230  0.7015  0.8744  0.3365
19647TIP3    H180356   4.642   6.391   1.203  1.0525 -1.4689 -2.4243
19647TIP3    H280357   4.773   6.465   1.219 -0.3557  1.1189 -2.2451
19648TIP3   OH280358   6.592   1.461  15.925 -0.1002  0.4268 -0.3377
19648TIP3    H180359   6.651   1.437  15.854 -2.0170  0.6493 -2.1165
19648TIP3    H280360   6.640   1.438  16.005  2.4193  0.7982 -1.6340
19649TIP3   OH280361   6.333   6.267  11.471 -0.1853 -0.0253 -0.1624
19649TIP3    H180362   6.296   6.251  11.384 -1.2131 -3.0969  0.7173
19649TIP3    H280363   6.258   6.265  11.530  0.6269  0.8167  0.9416
19650TIP3   OH280364   4.406   1.476   0.571  0.3906  0.9111 -0.6819
19650TIP3    H180365   4.413   1.452   0.663  0.7302  1.5345 -0.5380
19650TIP3    H280366   4.384   1.394   0.526  2.7638  0.0180 -0.3793
19651TIP3   OH280367   0.165   2.143   2.801 -0.3629  0.0272 -0.3568
19651TIP3    H180368   0.156   2.070   2.862 -1.0317 -0.5593 -1.1463
19651TIP3    H280369   0.084   2.142   2.750 -0.3045  1.2070 -0.5030
19652TIP3   OH280370   4.141   0.727   2.148  0.2341  0.0688 -0.3836
19652TIP3    H180371   4.183   0.790   2.206 -0.1081 -0.5172  0.5080
19652TIP3    H280372   4.140   0.645   2.197 -1.0538 -0.1724 -0.7877
19653TIP3   OH280373   3.918   0.642   4.220  0.8531 -0.1396 -0.2303
19653TIP3    H180374   3.907   0.585   4.296 -0.6169  0.8891  0.3691
19653TIP3    H280375   3.986   0.705   4.246  0.7534 -0.1361  0.0205
19654TIP3   OH280376   6.711   6.657   1.167  0.1235 -0.1682  0.0883
19654TIP3    H180377   6.806   6.648   1.155 -0.0231 -0.5260 -0.8319
19654TIP3    H280378   6.697   6.636   1.259  1.0129  0.5310  0.4081
19655TIP3   OH280379   3.733   4.028  15.978 -0.7569  0.1074 -0.0613
19655TIP3    H180380   3.738   4.069  15.892 -0.4553 -0.4075 -0.2946
19655TIP3    H280381   3.651   3.978  15.976 -1.1570  0.7360  0.2455
19656TIP3   OH280382   6.457   5.345  11.984 -0.0896 -0.0824  0.4113
19656TIP3    H180383   6.462   5.435  11.950  0.0804 -0.3561 -0.3269
19656TIP3    H280384   6.417   5.295  11.913  0.3915 -0.7046  0.5663
19657TIP3   OH280385   2.187   4.286  11.526 -0.2635  0.3000  0.5549
19657TIP3    H180386   2.229   4.237  11.597 -0.3176 -0.8425 -0.1802
19657TIP3    H280387   2.256   4.297  11.461  0.3770  3.1267  1.5858
19658TIP3   OH280388   5.717   0.550  14.640 -0.3074  0.0437 -0.3874
19658TIP3    H180389   5.715   0.637  14.681  0.4717 -0.2665  0.3526
19658TIP3    H280390   5.799   0.550  14.590  0.7317 -0.9394  1.2217
19659TIP3   OH280391   0.042   3.787   1.834  0.1474  0.0080  0.1371
19659TIP3    H180392   0.104   3.744   1.775  0.3622  0.3177  0.1346
19659TIP3    H280393  -0.016   3.717   1.864  0.3882 -0.2491  0.0006
19660TIP3   OH280394   0.191   2.071  16.664  0.6379  0.9421  0.5303
19660TIP3    H180395   0.272   2.120  16.648  0.8747  0.5461  0.5087
19660TIP3    H280396   0.154   2.111  16.743  1.0301  0.9002  0.7390
19661TIP3   OH280397   3.174   3.691  13.256 -0.0823 -0.4546 -0.1582
19661TIP3    H180398   3.161   3.663  13.165 -0.5879 -1.9893  0.3440
19661TIP3    H280399   3.266   3.715  13.261 -0.2251  0.3882 -1.2559
19662TIP3   OH280400   3.226   6.613  17.107 -0.3872 -0.2603  0.2115
19662TIP3    H180401   3.133   6.616  17.084 -0.2523 -0.3585 -0.3579
19662TIP3    H280402   3.239   6.527  17.145 -0.1795 -0.9495 -1.3183
19663TIP3   OH280403   0.557   1.169   2.060  0.0737  0.2909 -0.1828
19663TIP3    H180404   0.549   1.206   1.972 -0.9673  1.0160  0.2038
19663TIP3    H280405   0.649   1.142   2.066  0.5004  1.4788 -1.0060
19664TIP3   OH280406   1.504   5.529  12.959 -0.4491 -0.2050  0.0789
19664TIP3    H180407   1.473   5.440  12.943 -0.5738 -0.3931  1.3237
19664TIP3    H280408   1.426   5.583  12.948 -0.5934 -0.3602  0.3243
19665TIP3   OH280409   4.157   2.982  11.998 -0.6517 -0.5785  0.0702
19665TIP3    H180410   4.101   2.988  12.076 -0.9729 -1.1784 -0.1118
19665TIP3    H280411   4.102   3.014  11.927 -0.1460  0.5980  0.1769
19666TIP3   OH280412   2.262   1.369  10.719 -0.5357  0.4474  0.4934
19666TIP3    H180413   2.322   1.397  10.788 -0.0238  3.1043 -0.8952
19666TIP3    H280414   2.310   1.301  10.672  0.6410  1.1850  0.5868
19667TIP3   OH280415   3.509   4.956  15.724  0.1612  0.6088  0.5731
19667TIP3    H180416   3.568   5.001  15.664 -0.9255  3.9954  1.8216
19667TIP3    H280417   3.554   4.958  15.808 -0.6352  0.8737  0.9977
19668TIP3   OH280418   1.812   1.924  15.337 -0.7712 -0.0628  0.0784
19668TIP3    H180419   1.884   1.877  15.295 -0.4309  1.7952 -1.6009
19668TIP3    H280420   1.753   1.856  15.368  0.0687 -1.5854 -1.5068
19669TIP3   OH280421   3.435   5.177  16.401  0.2262 -0.0431 -0.2855
19669TIP3    H180422   3.453   5.139  16.315  0.1889  1.6239 -1.0788
19669TIP3    H280423   3.520   5.182  16.444  0.3669 -0.1588 -0.5457
19670TIP3   OH280424   0.650   3.187  14.929  0.1336  0.8137  0.7709
19670TIP3    H180425   0.700   3.105  14.935 -2.5735 -1.0336  0.1001
19670TIP3    H280426   0.627   3.207  15.020  0.7231  0.7906  0.9310
19671TIP3   OH280427   1.910   3.082   0.496  0.1471  0.1568  0.0864
19671TIP3    H180428   1.945   3.023   0.562 -2.4369 -0.0377  1.4363
19671TIP3    H280429   1.915   3.169   0.536 -0.1145  0.2400 -0.0566
19672TIP3   OH280430   5.461   2.099   4.305  0.7506  0.4873 -0.2637
19672TIP3    H180431   5.532   2.112   4.241  0.1927 -0.8526 -1.2073
19672TIP3    H280432   5.429   2.187   4.323  0.8102  0.9081 -1.9934
19673TIP3   OH280433   0.813   0.863  13.084 -0.9147 -0.4302  0.4814
19673TIP3    H180434   0.867   0.934  13.120 -0.4033 -0.4564 -0.2079
19673TIP3    H280435   0.738   0.908  13.044  0.7224  0.0023 -2.3333
19674TIP3   OH280436   2.032   1.889  11.032 -0.5347 -0.7713  0.5984
19674TIP3    H180437   1.978   1.878  10.954 -1.2882 -1.3064  1.1768
19674TIP3    H280438   2.084   1.809  11.037 -0.8096 -0.9345  0.8821
19675TIP3   OH280439   4.357   0.750   1.371 -0.3178  0.0758  0.7866
19675TIP3    H180440   4.441   0.745   1.324 -1.0994  0.2327 -0.6632
19675TIP3    H280441   4.347   0.664   1.411  0.0494 -0.2873  0.1122
19676TIP3   OH280442   4.795   1.127  12.243 -0.2148  0.2791 -0.5749
19676TIP3    H180443   4.722   1.165  12.291 -0.0047 -0.7207  0.5878
19676TIP3    H280444   4.869   1.185  12.261 -0.0257 -0.3355  0.7422
19677TIP3   OH280445   4.548   3.395  14.783  0.0226 -0.3510  0.1913
19677TIP3    H180446   4.528   3.488  14.771 -2.4322 -0.9700 -1.2130
19677TIP3    H280447   4.531   3.380  14.876  0.4041  0.5918  0.4287
19678TIP3   OH280448   0.547   1.038   1.446 -0.6911  0.3369  0.1009
19678TIP3    H180449   0.475   1.099   1.464  0.6333  1.7800  0.7177
19678TIP3    H280450   0.575   1.059   1.358 -0.8932 -0.1161 -0.0771
19679TIP3   OH280451   4.795   3.928   0.393  0.1254  0.6139  0.0259
19679TIP3    H180452   4.791   4.016   0.430  0.5296  0.4398  0.4972
19679TIP3    H280453   4.824   3.941   0.303  0.3126  0.9585  0.1342
19680TIP3   OH280454   4.563   4.142  13.238 -0.2577 -0.0132 -0.6452
19680TIP3    H180455   4.573   4.187  13.321  1.0044 -0.1034 -0.7175
19680TIP3    H280456   4.470   4.124  13.230 -0.5712  1.2154  0.0966
19681TIP3   OH280457   1.992   6.359  14.276 -0.3977 -0.0593 -0.1326
19681TIP3    H180458   1.977   6.283  14.220  0.1213 -0.1551 -0.1486
19681TIP3    H280459   1.989   6.434  14.216 -0.3650 -0.1147 -0.2034
19682TIP3   OH280460   3.169   1.732  15.349  0.1015  0.0299 -0.5145
19682TIP3    H180461   3.233   1.675  15.392  3.1293  2.6003 -1.2048
19682TIP3    H280462   3.137   1.681  15.275  2.0844 -1.1321 -0.6649
19683TIP3   OH280463   3.063   3.487   4.982  0.6019  0.5707  0.3348
19683TIP3    H180464   3.106   3.456   4.903 -0.9536  0.3289 -0.4650
19683TIP3    H280465   3.054   3.581   4.969 -2.5626  0.1698 -1.3902
19684TIP3   OH280466   2.227   6.670  10.719  0.5950 -0.1068 -0.6806
19684TIP3    H180467   2.250   6.644  10.630  1.3040  0.7042 -0.7515
19684TIP3    H280468   2.246   6.764  10.722 -0.9488  0.2080 -0.1555
19685TIP3   OH280469   0.901   6.066   4.262 -0.0911 -0.0327 -0.4749
19685TIP3    H180470   0.870   6.067   4.353 -0.1007 -1.5255 -0.4409
19685TIP3    H280471   0.982   6.116   4.264 -0.4327  0.5187  0.2136
19686TIP3   OH280472   6.120   2.268  11.281  0.2398  0.1520 -0.9146
19686TIP3    H180473   6.193   2.270  11.219 -0.2376  1.0025 -1.4709
19686TIP3    H280474   6.042   2.274  11.226 -0.2351 -0.2099 -0.2920
19687TIP3   OH280475   4.890   3.189   0.951  0.2102 -0.2172  0.7870
19687TIP3    H180476   4.879   3.095   0.970 -0.4976  0.1423  2.3293
19687TIP3    H280477   4.926   3.225   1.032 -0.8409  1.0718  0.7110
19688TIP3   OH280478   0.485   6.321  14.948  0.3397 -0.3176 -0.3819
19688TIP3    H180479   0.404   6.370  14.962  0.4978  0.5134 -2.0392
19688TIP3    H280480   0.461   6.251  14.887  0.6732 -0.6634 -0.1205
19689TIP3   OH280481   2.463   1.585   5.750  0.3996 -0.4124 -0.1421
19689TIP3    H180482   2.538   1.532   5.776  0.4500 -0.0480  0.4933
19689TIP3    H280483   2.479   1.606   5.658  0.6886 -0.9737 -0.2251
19690TIP3   OH280484   3.395   5.713   5.335 -0.7010  0.1881  0.3909
19690TIP3    H180485   3.385   5.798   5.377  1.8190  1.3299 -1.1113
19690TIP3    H280486   3.457   5.728   5.264 -0.3151 -2.8799 -0.0715
19691TIP3   OH280487   1.797   2.504  11.563 -0.5729  0.2269 -0.1124
19691TIP3    H180488   1.854   2.460  11.500  1.1484 -0.5890  1.9067
19691TIP3    H280489   1.720   2.530  11.511  0.1718 -1.5171 -2.2628
19692TIP3   OH280490   0.502   3.254  11.971 -0.5221  0.0143  0.7235
19692TIP3    H180491   0.421   3.284  12.011 -0.5407  1.0808 -0.0917
19692TIP3    H280492   0.479   3.170  11.930 -1.3970  0.6308 -0.0898
19693TIP3   OH280493   0.557   6.312  12.056  0.4599  0.0364  0.3277
19693TIP3    H180494   0.561   6.366  11.977 -1.0663 -0.6466 -0.2520
19693TIP3    H280495   0.649   6.301  12.081  0.8575  2.0294 -0.1065
19694TIP3   OH280496   1.355   2.110   3.443  0.2521 -0.6737 -0.3570
19694TIP3    H180497   1.292   2.103   3.515  1.6634 -1.8154  0.8159
19694TIP3    H280498   1.355   2.203   3.421 -0.1819 -0.2885  1.1530
19695TIP3   OH280499   4.092   4.925   1.109  0.0270  0.1895 -1.0257
19695TIP3    H180500   4.065   4.884   1.191  1.8568  1.2297  0.1767
19695TIP3    H280501   4.079   5.019   1.123 -2.3266  0.2667 -3.0374
19696TIP3   OH280502   2.515   1.008   1.889  0.0231  0.2906  0.1808
19696TIP3    H180503   2.567   0.958   1.952  0.5091  1.2706  0.5892
19696TIP3    H280504   2.576   1.029   1.819 -0.3166 -0.1255 -0.2469
19697TIP3   OH280505   4.951   0.723  14.658 -0.0467  0.2896  0.3566
19697TIP3    H180506   4.926   0.677  14.738  0.8740  1.0731  1.1226
19697TIP3    H280507   5.037   0.760  14.678 -0.1091  1.0801 -0.7547
19698TIP3   OH280508   0.135   3.503   2.687  0.3816 -0.0050  0.0208
19698TIP3    H180509   0.116   3.549   2.769 -1.1145 -1.6441  0.6651
19698TIP3    H280510   0.153   3.572   2.624  1.6571  1.3223  1.7228
19699TIP3   OH280511   5.124   4.470   5.082 -0.7422  0.5624  0.1918
19699TIP3    H180512   5.081   4.547   5.045  0.6652 -0.4911 -4.2498
19699TIP3    H280513   5.217   4.492   5.084 -0.2944 -0.9866 -1.2935
19700TIP3   OH280514   0.389   2.389  17.079  0.1663 -0.3104 -0.7860
19700TIP3    H180515   0.388   2.339  16.997  2.2443 -1.5491 -0.1516
19700TIP3    H280516   0.423   2.475  17.055  1.7668 -1.0014 -1.1165
19701TIP3   OH280517   3.116   0.306  13.567 -0.5430 -0.2056  0.3387
19701TIP3    H180518   3.119   0.350  13.651  0.1617 -1.2824  0.9121
19701TIP3    H280519   3.074   0.222  13.585 -0.9923 -0.1747 -0.5153
19702TIP3   OH280520   0.781   6.281   5.279 -0.0984  0.3471  0.5072
19702TIP3    H180521   0.738   6.365   5.264 -2.0038 -0.8970 -1.6145
19702TIP3    H280522   0.818   6.288   5.367 -1.8037  2.7332  1.1271
19703TIP3   OH280523   0.071   3.133   0.586 -0.1880 -0.1320  0.1319
19703TIP3    H180524   0.005   3.137   0.517 -0.6899 -2.1225  0.4461
19703TIP3    H280525   0.059   3.214   0.636 -0.2330  1.0430 -1.6994
19704TIP3   OH280526   1.058   6.558   5.189 -0.1495 -0.1217 -0.4067
19704TIP3    H180527   1.125   6.624   5.170  0.9679  0.1242  3.5195
19704TIP3    H280528   1.096   6.475   5.160  1.0578  0.2502  0.0581
19705TIP3   OH280529   0.842   5.479   5.124 -0.5656 -0.8148 -0.7357
19705TIP3    H180530   0.881   5.510   5.206 -0.4629 -1.8860 -0.3591
19705TIP3    H280531   0.748   5.487   5.137 -0.5838 -1.8020 -0.1561
19706TIP3   OH280532   2.248   6.074   0.640  0.0942  0.3263  0.5925
19706TIP3    H180533   2.246   6.148   0.579  1.0656 -0.8567 -0.9420
19706TIP3    H280534   2.201   6.004   0.595 -1.2813  0.1216  2.2476
19707TIP3   OH280535   2.495   4.321  17.198 -0.2416  0.3017 -0.7450
19707TIP3    H180536   2.418   4.286  17.242  0.4415 -1.2638 -0.7165
19707TIP3    H280537   2.534   4.245  17.153  0.7164  1.2556 -1.5855
19708TIP3   OH280538   1.692   5.705  16.597 -0.3106 -0.4248  0.1214
19708TIP3    H180539   1.728   5.767  16.660 -0.5387 -1.3808  1.2237
19708TIP3    H280540   1.611   5.747  16.566 -0.7605 -0.4028  1.2797
19709TIP3   OH280541   3.645   1.565   4.466  0.3031 -0.3706  0.5878
19709TIP3    H180542   3.690   1.504   4.525  3.1051  0.2607 -0.7173
19709TIP3    H280543   3.662   1.531   4.378 -0.3164  0.8877 -0.0548
19710TIP3   OH280544   6.247   5.097  14.333  0.0173 -0.5913 -0.6422
19710TIP3    H180545   6.340   5.075  14.324  1.2032  2.4378  2.0848
19710TIP3    H280546   6.235   5.173  14.276 -0.9953 -1.3645 -1.4820
19711TIP3   OH280547   4.746   1.130  11.663  0.1034 -0.6067  0.2382
19711TIP3    H180548   4.688   1.120  11.739  1.5981 -1.3730  1.3253
19711TIP3    H280549   4.833   1.142  11.701  0.8053 -0.3894 -1.3700
19712TIP3   OH280550   2.452   4.464   1.116 -0.5685 -0.0123 -0.1843
19712TIP3    H180551   2.502   4.533   1.159 -0.6122  0.5191 -0.9826
19712TIP3    H280552   2.509   4.387   1.122 -0.2727  0.2311  0.1957
19713TIP3   OH280553   2.810   4.054   5.079  1.0096 -0.0632  0.3426
19713TIP3    H180554   2.904   4.062   5.097  1.3978 -0.0331 -1.5595
19713TIP3    H280555   2.793   3.960   5.080  1.0505 -0.0694  0.6734
19714TIP3   OH280556   6.629   0.819   1.355  0.0935 -0.0120 -0.4633
19714TIP3    H180557   6.653   0.912   1.354  1.3507 -0.3186 -0.1525
19714TIP3    H280558   6.630   0.794   1.263 -1.1299  0.4840 -0.6302
19715TIP3   OH280559   4.164   5.111  12.192 -0.3555  0.2771  0.2607
19715TIP3    H180560   4.133   5.064  12.270 -4.3588 -0.0248 -1.2490
19715TIP3    H280561   4.154   5.203  12.214  1.3787  0.3229  1.0267
19716TIP3   OH280562   3.863   0.194  14.508 -0.3715 -0.0150 -0.1892
19716TIP3    H180563   3.884   0.108  14.472 -1.2974 -0.7758  0.9697
19716TIP3    H280564   3.773   0.184  14.541  0.7508  0.1919  3.3095
19717TIP3   OH280565   6.429   1.217  16.024 -0.0744 -0.3641 -0.0906
19717TIP3    H180566   6.346   1.209  15.977 -0.0052 -0.1525 -0.2479
19717TIP3    H280567   6.460   1.305  16.004 -1.0972  0.5440  2.0680
19718TIP3   OH280568   4.165   4.073   3.249 -0.0353  0.2034 -0.4263
19718TIP3    H180569   4.178   3.999   3.307  1.5492  0.5202 -0.3399
19718TIP3    H280570   4.219   4.054   3.172  0.1681  1.1219 -0.5289
19719TIP3   OH280571   5.447   5.757   1.130 -0.0842 -0.0490 -0.3429
19719TIP3    H180572   5.397   5.751   1.049  1.1203  0.4712 -1.1638
19719TIP3    H280573   5.484   5.669   1.142 -0.0585 -0.0622 -0.5110
19720TIP3   OH280574   1.882   3.271  10.606  0.3302  0.2344  0.0875
19720TIP3    H180575   1.952   3.253  10.670 -1.2899 -1.3588  1.5253
19720TIP3    H280576   1.900   3.211  10.534  0.4478 -0.2328  0.4911
19721TIP3   OH280577   5.771   2.930   1.573 -0.4095  0.4279 -0.0615
19721TIP3    H180578   5.756   2.839   1.549 -0.9160 -0.0520  1.8850
19721TIP3    H280579   5.706   2.979   1.524 -1.6207 -0.5380  0.5257
19722TIP3   OH280580   5.587   2.376  13.995  0.1156 -0.0094  0.0276
19722TIP3    H180581   5.609   2.429  14.071  0.8972 -2.2619  1.4619
19722TIP3    H280582   5.532   2.433  13.941  1.9280  2.6582  0.8270
19723TIP3   OH280583   3.383   3.400  12.386  0.6729  0.1082  0.2446
19723TIP3    H180584   3.463   3.448  12.365  0.2126  0.6630 -0.3101
19723TIP3    H280585   3.331   3.404  12.305 -0.0089 -0.0371  0.6643
19724TIP3   OH280586   2.698   2.219  16.087 -0.5343 -1.0365  0.4902
19724TIP3    H180587   2.715   2.140  16.036 -1.2763 -0.5216 -0.5816
19724TIP3    H280588   2.703   2.290  16.024  0.0389 -0.2228  1.4336
19725TIP3   OH280589   3.539   5.435  11.358  0.1584 -0.7417  0.3637
19725TIP3    H180590   3.612   5.461  11.415 -0.2094 -1.4259  1.1724
19725TIP3    H280591   3.511   5.516  11.317  1.3076 -0.4511  0.1209
19726TIP3   OH280592   2.142   1.038  11.762 -0.0016  0.4511 -0.3061
19726TIP3    H180593   2.099   1.123  11.766  0.7790  0.8505 -0.2679
19726TIP3    H280594   2.224   1.054  11.716 -0.9234 -0.7468 -2.5610
19727TIP3   OH280595   2.537   5.391   0.931 -0.1226  0.5133 -0.4871
19727TIP3    H180596   2.569   5.324   0.869  0.2566  0.1214  0.1250
19727TIP3    H280597   2.601   5.463   0.922  3.4053 -1.6884  3.4315
19728TIP3   OH280598   1.802   2.809  12.510 -0.4313 -0.8374 -0.1592
19728TIP3    H180599   1.765   2.867  12.577  0.3719 -1.6644  1.0402
19728TIP3    H280600   1.760   2.836  12.429 -1.0612  0.5319  0.5937
19729TIP3   OH280601   5.002   1.243   4.449  0.5583  0.1485  0.4051
19729TIP3    H180602   5.080   1.274   4.404  0.5209  0.3112  0.4513
19729TIP3    H280603   4.999   1.149   4.430  0.1146  0.3454 -0.5926
19730TIP3   OH280604   3.391   6.480  13.070  0.1947  0.4224 -0.0370
19730TIP3    H180605   3.481   6.506  13.049  0.2999  0.8218  0.8561
19730TIP3    H280606   3.397   6.387  13.092  0.5573  0.6344  0.8395
19731TIP3   OH280607   3.937   4.864  14.199 -0.3498 -0.2823 -0.1974
19731TIP3    H180608   3.996   4.818  14.140  0.7398 -0.7875  1.2455
19731TIP3    H280609   3.850   4.833  14.174 -0.5240  2.6722 -4.3987
19732TIP3   OH280610   0.933   2.528   1.969  0.2108  0.3167 -0.4873
19732TIP3    H180611   0.915   2.473   2.045  0.7480 -0.1861 -0.7169
19732TIP3    H280612   1.004   2.585   1.996 -0.0900  0.6386 -0.3743
19733TIP3   OH280613   1.074   4.047   5.355  0.6647 -0.1019  0.1054
19733TIP3    H180614   1.069   3.964   5.307 -1.6903  0.8106 -1.3896
19733TIP3    H280615   1.037   4.026   5.441  1.0841 -0.8297  0.1210
19734TIP3   OH280616   0.851   0.397   1.987  0.3760  0.0044 -0.4224
19734TIP3    H180617   0.889   0.353   2.063  0.7815  0.5757 -0.2904
19734TIP3    H280618   0.923   0.447   1.949 -0.1633  0.8573 -0.3500
19735TIP3   OH280619   5.787   4.006   5.529 -0.7113  0.0626  0.1749
19735TIP3    H180620   5.878   4.028   5.510 -0.6693  0.8975  1.2319
19735TIP3    H280621   5.746   4.090   5.551 -1.2046 -0.5581  1.7779
19736TIP3   OH280622   4.740   6.030   3.280 -0.3758 -0.2464 -0.5341
19736TIP3    H180623   4.701   5.947   3.307 -0.0648 -0.3764 -0.4846
19736TIP3    H280624   4.714   6.040   3.189  0.4190 -0.8879 -0.8372
19737TIP3   OH280625   6.177   0.069  16.114  0.1410 -0.1132  0.5705
19737TIP3    H180626   6.212   0.049  16.028  3.7801 -2.1890  2.2915
19737TIP3    H280627   6.097   0.016  16.121  0.7717 -1.2852 -0.8708
19738TIP3   OH280628   3.663   4.057   0.818  0.1658  0.4737  0.3643
19738TIP3    H180629   3.730   4.108   0.773 -1.6354  1.6306 -1.1789
19738TIP3    H280630   3.644   4.106   0.897  1.0006  0.2123  0.7410
19739TIP3   OH280631   5.613   5.222  12.383  0.0277 -0.1746 -0.2016
19739TIP3    H180632   5.686   5.200  12.441 -1.3687  0.7603  2.0506
19739TIP3    H280633   5.564   5.140  12.375  0.4028 -0.3879 -0.3305
19740TIP3   OH280634   2.684   1.958  15.608 -0.5189  0.0206  0.2011
19740TIP3    H180635   2.607   1.918  15.568  0.2322 -1.2732 -0.0151
19740TIP3    H280636   2.703   1.903  15.684  0.3908  0.0915  0.0395
19741TIP3   OH280637   2.563   6.190  16.299 -0.0181  0.7531  0.2319
19741TIP3    H180638   2.592   6.224  16.215 -0.1941 -2.0462 -1.0677
19741TIP3    H280639   2.467   6.193  16.294 -0.0891 -1.0105 -0.4915
19742TIP3   OH280640   4.251   0.528   5.859 -0.0783 -0.2220  0.7977
19742TIP3    H180641   4.331   0.485   5.891  0.4196 -0.0945 -0.2318
19742TIP3    H280642   4.195   0.455   5.831 -0.0495 -0.2874  0.9090
19743TIP3   OH280643   4.421   2.806   4.283 -0.2304  0.0355 -0.2978
19743TIP3    H180644   4.330   2.798   4.313 -0.7864  1.4040 -1.5000
19743TIP3    H280645   4.436   2.900   4.275  1.1438 -0.1835 -0.5958
19744TIP3   OH280646   2.073   5.268   5.137 -0.4928  0.1966 -0.6648
19744TIP3    H180647   2.100   5.359   5.129  0.0781  0.1594  0.5908
19744TIP3    H280648   2.127   5.233   5.208 -0.9162 -1.0403 -0.9245
19745TIP3   OH280649   5.663   1.398  13.006 -0.0103  0.7759 -0.1367
19745TIP3    H180650   5.721   1.339  12.960  0.4925 -0.8560  2.3793
19745TIP3    H280651   5.721   1.466  13.041  0.3166 -0.2675  1.4702
19746TIP3   OH280652   3.222   1.749   3.544 -0.3237 -0.3932  0.2490
19746TIP3    H180653   3.254   1.685   3.608 -1.7143 -0.8367  0.5251
19746TIP3    H280654   3.277   1.735   3.467  1.1410 -0.0969  1.2060
19747TIP3   OH280655   1.355   2.709  11.471 -0.3527 -0.3647  0.3464
19747TIP3    H180656   1.342   2.653  11.394 -0.5489 -2.4227  1.7769
19747TIP3    H280657   1.449   2.702  11.489 -0.3823 -0.2490  0.5390
19748TIP3   OH280658   2.641   0.956  11.832  0.5899 -0.2635 -0.5131
19748TIP3    H180659   2.598   0.871  11.838 -1.4177  0.7218  0.1180
19748TIP3    H280660   2.684   0.967  11.917 -0.8399  0.1462  0.1957
19749TIP3   OH280661   0.611   6.621  15.598 -0.1642 -0.5126 -0.1817
19749TIP3    H180662   0.541   6.673  15.559  0.6115 -0.3471 -1.4007
19749TIP3    H280663   0.596   6.532  15.565  0.2027 -0.4691 -0.4811
19750TIP3   OH280664   1.150   4.187  14.232  0.2245 -0.2985  0.4499
19750TIP3    H180665   1.095   4.259  14.203  0.9385  0.3539  0.6873
19750TIP3    H280666   1.130   4.116  14.171 -1.0241 -0.1486  0.6640
19751TIP3   OH280667   0.440   6.542   0.326  0.4666  0.6532 -0.6990
19751TIP3    H180668   0.356   6.567   0.287 -0.4335  0.6496  1.1406
19751TIP3    H280669   0.482   6.626   0.347  1.1940  0.6671 -2.0764
19752TIP3   OH280670   3.890   6.195   5.392  0.0766 -0.0593  0.5052
19752TIP3    H180671   3.952   6.144   5.443 -2.4830 -1.4511  2.4731
19752TIP3    H280672   3.934   6.209   5.308  1.7293 -3.8578  0.5278
19753TIP3   OH280673   6.641   2.625   4.874 -0.0043  0.2766  0.5468
19753TIP3    H180674   6.699   2.679   4.927  0.4178 -1.5530  2.0466
19753TIP3    H280675   6.568   2.683   4.852  1.5595  2.1519 -0.0462
19754TIP3   OH280676   3.438   4.313   1.208 -0.0222 -0.5129 -0.1336
19754TIP3    H180677   3.408   4.373   1.277  1.2314  2.6348 -2.0959
19754TIP3    H280678   3.533   4.324   1.206 -0.0105 -0.5721 -2.2284
19755TIP3   OH280679   5.309   2.507  12.519  0.3790  0.2065 -0.2655
19755TIP3    H180680   5.358   2.562  12.581 -2.9813  2.0181  1.0786
19755TIP3    H280681   5.315   2.419  12.555  1.2377  0.6674  0.7844
19756TIP3   OH280682   5.368   5.760   3.087  0.4777 -0.1610  0.0225
19756TIP3    H180683   5.371   5.805   3.171 -2.5220  0.5040 -0.0982
19756TIP3    H280684   5.398   5.825   3.023  2.0568 -0.4292  0.4625
19757TIP3   OH280685   5.181   5.494   5.718  0.6184  0.1746  0.1661
19757TIP3    H180686   5.087   5.488   5.731  0.5280  0.4909 -0.3358
19757TIP3    H280687   5.217   5.511   5.805  0.0134  2.4826  0.0259
19758TIP3   OH280688   1.586   6.608   3.635 -0.2435  0.3495 -0.1665
19758TIP3    H180689   1.673   6.636   3.609  1.0458 -1.4242  1.8744
19758TIP3    H280690   1.581   6.627   3.729 -1.6834 -0.4417 -0.0466
19759TIP3   OH280691   1.771   6.155   0.117 -0.1943  0.6456  0.5683
19759TIP3    H180692   1.725   6.185   0.196 -0.0382  1.8097  0.2415
19759TIP3    H280693   1.807   6.070   0.141 -1.5433  0.2219  1.2064
19760TIP3   OH280694   3.736   5.240  12.188  0.1287 -0.0009 -0.4285
19760TIP3    H180695   3.689   5.321  12.168  0.3583  0.6515  1.4895
19760TIP3    H280696   3.784   5.220  12.107 -0.4888  1.3642 -1.1717
19761TIP3   OH280697   5.658   3.819  12.193 -0.5552 -0.3540 -0.4863
19761TIP3    H180698   5.734   3.872  12.217 -1.2718 -0.0602  1.3214
19761TIP3    H280699   5.611   3.807  12.275 -3.1422  0.5501 -1.7442
19762TIP3   OH280700   3.746   2.602  14.358  0.2599 -0.1320  0.0240
19762TIP3    H180701   3.718   2.528  14.304 -1.4971  1.8711 -2.0090
19762TIP3    H280702   3.840   2.610  14.340  0.2114 -1.1000 -0.7290
19763TIP3   OH280703   4.344   4.859   2.956  0.4476 -0.8604  0.3628
19763TIP3    H180704   4.396   4.895   3.028 -0.6671 -1.3159  1.4460
19763TIP3    H280705   4.327   4.934   2.899 -1.0376  0.1824  2.0767
19764TIP3   OH280706   6.042   2.108   4.389 -0.0626  0.0843  0.1277
19764TIP3    H180707   6.106   2.151   4.333 -0.6808  0.1306 -0.5449
19764TIP3    H280708   6.065   2.137   4.478  1.6432 -0.9191  0.0502
19765TIP3   OH280709   1.688   2.143   6.458 -0.3451 -0.5781  0.3389
19765TIP3    H180710   1.770   2.096   6.473  1.4942  2.0109 -0.7300
19765TIP3    H280711   1.641   2.137   6.541  1.5733 -1.0068  1.4523
19766TIP3   OH280712   0.848   4.947   6.231  0.2437  0.0833  0.7632
19766TIP3    H180713   0.933   4.990   6.224  0.9567 -0.9577  2.3390
19766TIP3    H280714   0.862   4.859   6.194 -0.5786  0.3916 -0.3453
19767TIP3   OH280715   1.631   6.662   5.909  0.3909  0.2924  0.0053
19767TIP3    H180716   1.552   6.694   5.866 -0.3330  1.0187  1.7832
19767TIP3    H280717   1.599   6.605   5.979  1.4116  1.0100  1.0828
19768TIP3   OH280718   1.703   4.713  15.039 -0.2415  0.1771  0.2908
19768TIP3    H180719   1.794   4.733  15.059  0.1300  0.6133 -1.6754
19768TIP3    H280720   1.702   4.619  15.022  0.2504  0.4512 -1.4709
19769TIP3   OH280721   2.468   3.740  12.993  0.3972 -0.4098 -0.2915
19769TIP3    H180722   2.522   3.782  13.060 -0.0843 -0.0679 -0.1174
19769TIP3    H280723   2.430   3.663  13.036  0.1580 -0.2393 -0.1980
19770TIP3   OH280724   3.447   3.396   3.377  0.3545 -0.1354 -0.0622
19770TIP3    H180725   3.534   3.421   3.346 -0.2565  0.5529 -1.3230
19770TIP3    H280726   3.432   3.450   3.454  0.5464  0.6747 -0.5814
19771TIP3   OH280727   2.353   6.780   6.308  0.0578 -0.8249 -0.2959
19771TIP3    H180728   2.428   6.749   6.257 -1.2668  1.8721 -4.2773
19771TIP3    H280729   2.385   6.858   6.354 -0.0736 -0.1172 -1.3853
19772TIP3   OH280730   0.565   0.945  15.403  0.4281  0.6329  0.3541
19772TIP3    H180731   0.577   1.039  15.390 -1.6753  0.8730 -0.2326
19772TIP3    H280732   0.488   0.923  15.350  0.6909 -1.3602  0.7256
19773TIP3   OH280733   3.758   1.329   5.941  0.1716 -0.0781  0.4405
19773TIP3    H180734   3.728   1.411   5.903 -2.2654 -0.6564  0.9808
19773TIP3    H280735   3.706   1.319   6.020 -1.2449 -3.1981 -0.7387
19774TIP3   OH280736   6.366   3.241   3.345 -0.1304 -0.2156  0.0231
19774TIP3    H180737   6.365   3.146   3.343 -0.6356 -0.2723  1.4796
19774TIP3    H280738   6.457   3.264   3.328 -0.4233 -0.8197 -2.7610
19775TIP3   OH280739   0.444   3.091   0.779 -0.5186  0.4263 -0.1164
19775TIP3    H180740   0.479   3.036   0.709 -0.3462  0.8386 -0.3583
19775TIP3    H280741   0.480   3.178   0.761 -0.2650  0.4875  0.6279
19776TIP3   OH280742   1.179   5.692   5.345  0.2496 -0.1410 -0.0001
19776TIP3    H180743   1.274   5.687   5.350  0.1772 -0.2996  1.6365
19776TIP3    H280744   1.162   5.767   5.288  1.3152 -1.8312 -2.7588
19777TIP3   OH280745   5.032   5.357  16.043  0.8408  0.2075  0.4216
19777TIP3    H180746   4.958   5.360  16.103 -0.2120 -1.3262 -0.7238
19777TIP3    H280747   5.046   5.447  16.016  0.8250  0.8214  2.3085
19778TIP3   OH280748   2.204   2.427  14.019 -0.4629  0.6305 -0.3311
19778TIP3    H180749   2.223   2.450  14.110 -0.9844  1.4723 -0.4176
19778TIP3    H280750   2.245   2.496  13.967 -2.7079  1.9097 -0.5624
19779TIP3   OH280751   3.476   2.883  14.763  0.0338 -0.3035 -0.5836
19779TIP3    H180752   3.459   2.919  14.850  1.8742  0.8887 -0.6561
19779TIP3    H280753   3.391   2.886  14.718 -1.2638 -2.1824  1.5301
19780TIP3   OH280754   3.743   5.153   2.629  0.1856  0.5802  0.3881
19780TIP3    H180755   3.667   5.177   2.576  2.4140  3.5887 -1.7830
19780TIP3    H280756   3.715   5.167   2.720 -2.6178 -1.1766 -0.0988
19781TIP3   OH280757   6.234   4.712  14.819  0.5768 -0.6993  0.4135
19781TIP3    H180758   6.198   4.670  14.897 -0.1882 -0.2305  0.3255
19781TIP3    H280759   6.276   4.641  14.771  0.8261 -1.0390  1.1202
19782TIP3   OH280760   3.701   6.012  12.062 -0.4747  0.6356  0.0617
19782TIP3    H180761   3.782   6.053  12.090  0.0733 -0.1629 -0.3158
19782TIP3    H280762   3.671   5.962  12.138 -1.5553  2.3192  0.7806
19783TIP3   OH280763   5.954   5.036   0.836 -0.1884 -0.3403  0.0097
19783TIP3    H180764   5.881   4.999   0.786 -2.0700  0.4449  2.0062
19783TIP3    H280765   5.959   4.982   0.915  0.5752  0.3827  0.4774
19784TIP3   OH280766   4.113   2.434   2.734 -0.0945  0.0007  0.4270
19784TIP3    H180767   4.075   2.465   2.651  0.7203 -0.2085 -0.0422
19784TIP3    H280768   4.201   2.406   2.710 -0.2798 -1.2478  1.1338
19785TIP3   OH280769   1.597   6.281  11.216 -0.3199  0.7524 -0.2714
19785TIP3    H180770   1.646   6.362  11.200 -1.3020  1.5366  0.5082
19785TIP3    H280771   1.628   6.251  11.302 -2.0390  1.9591  0.8464
19786TIP3   OH280772   5.805   3.327  12.208 -0.4246  0.0088 -0.3345
19786TIP3    H180773   5.806   3.412  12.252 -2.0642 -0.0219 -0.1513
19786TIP3    H280774   5.796   3.264  12.279  0.8032 -0.3314 -0.4705
19787TIP3   OH280775   0.188   1.010   6.100  0.5999 -0.1325  0.0996
19787TIP3    H180776   0.203   1.088   6.046  0.6279  0.4512  0.9322
19787TIP3    H280777   0.204   1.039   6.190 -0.5724 -0.7968  0.5421
19788TIP3   OH280778   5.957   6.183  15.345  0.1912 -0.4660 -0.4235
19788TIP3    H180779   6.038   6.206  15.300 -0.6886  0.5751 -1.5340
19788TIP3    H280780   5.955   6.239  15.422  1.4934 -1.9493  0.7519
19789TIP3   OH280781   2.420   0.245   3.165  0.1655  0.4742  0.8545
19789TIP3    H180782   2.401   0.211   3.253  1.9594  0.6472  1.3573
19789TIP3    H280783   2.344   0.298   3.143 -0.6790 -0.2311  1.9593
19790TIP3   OH280784   6.362   0.230  13.361  0.1687  0.5005  0.0601
19790TIP3    H180785   6.426   0.253  13.428  0.8998  1.4472 -0.9501
19790TIP3    H280786   6.279   0.264  13.395  0.8139  2.5420 -0.2715
19791TIP3   OH280787   5.273   2.521  11.621  0.2278 -0.0269  0.1404
19791TIP3    H180788   5.257   2.559  11.708  1.3316  0.9246 -0.0454
19791TIP3    H280789   5.352   2.468  11.632 -0.3529 -0.9412 -0.0002
19792TIP3   OH280790   0.726   4.855   1.022 -0.3893 -0.2269 -0.2765
19792TIP3    H180791   0.696   4.913   0.952 -1.7727 -1.5499 -0.8302
19792TIP3    H280792   0.731   4.769   0.981 -3.1780 -1.4402  1.6836
19793TIP3   OH280793   0.808   3.231   2.922 -0.1466  0.6899 -0.2599
19793TIP3    H180794   0.851   3.215   3.007 -1.2195  2.4074  0.6648
19793TIP3    H280795   0.783   3.144   2.892 -0.5493  0.0744  1.6663
19794TIP3   OH280796   5.035   1.249   0.997  0.1538 -0.8335 -0.1750
19794TIP3    H180797   5.046   1.226   1.089 -2.5596  1.1851  0.7801
19794TIP3    H280798   4.988   1.175   0.959 -0.5151 -0.8353  0.6113
19795TIP3   OH280799   1.141   3.632  15.112 -0.3098 -0.0911  0.4334
19795TIP3    H180800   1.134   3.640  15.016  0.0288 -1.4662  0.2729
19795TIP3    H280801   1.205   3.699  15.137  1.0688 -0.9744 -0.5638
19796TIP3   OH280802   2.106   4.853  10.907  0.3497  0.0914 -0.3132
19796TIP3    H180803   2.073   4.937  10.875 -1.3081 -0.9097 -1.3815
19796TIP3    H280804   2.200   4.865  10.915  0.1154  2.1295 -0.1509
19797TIP3   OH280805   6.762   0.699  12.266 -0.4625 -0.2720 -0.2192
19797TIP3    H180806   6.854   0.722  12.280  0.3898 -3.0786 -0.5038
19797TIP3    H280807   6.718   0.724  12.347  1.4758 -2.8537  1.7992
19798TIP3   OH280808   6.356   5.166  13.986  0.0464  0.4299 -0.0749
19798TIP3    H180809   6.408   5.171  13.906 -0.9995  1.1251 -0.7403
19798TIP3    H280810   6.406   5.108  14.044  2.9094  3.0156  0.3434
19799TIP3   OH280811   4.467   1.433   0.869 -0.2500  0.3938 -0.5967
19799TIP3    H180812   4.409   1.391   0.933 -0.2111  0.4105 -0.5507
19799TIP3    H280813   4.541   1.373   0.861  0.7087  1.3198  0.8580
19800TIP3   OH280814   6.450   3.094   1.258 -0.4102 -0.4515  0.5827
19800TIP3    H180815   6.358   3.093   1.286 -0.9668 -0.3166 -1.1435
19800TIP3    H280816   6.446   3.091   1.163  1.4090 -1.1557  0.4952
19801TIP3   OH280817   3.768   0.809   3.105  0.6156  0.1979 -0.4088
19801TIP3    H180818   3.828   0.858   3.048  1.1084  1.0017  0.7633
19801TIP3    H280819   3.810   0.724   3.115  0.6385  0.1274 -1.0625
19802TIP3   OH280820   3.791   2.657  11.849 -0.1988 -0.5011  0.4972
19802TIP3    H180821   3.751   2.682  11.766  0.3803  1.4279  0.7483
19802TIP3    H280822   3.781   2.735  11.905  1.9401 -0.7015  1.2688
19803TIP3   OH280823   4.327   5.062  16.450  0.0783 -0.6620  0.0692
19803TIP3    H180824   4.237   5.091  16.436  0.3389 -0.4227 -1.2601
19803TIP3    H280825   4.353   5.024  16.365  0.9489 -1.4840  0.6825
19804TIP3   OH280826   1.483   2.062  12.819  0.6342  0.0620  0.2462
19804TIP3    H180827   1.529   1.979  12.810  0.2099 -0.1279 -0.1706
19804TIP3    H280828   1.518   2.100  12.900 -0.5966 -1.4261  1.5450
19805TIP3   OH280829   0.758   4.834  11.591  0.1417 -0.3344 -0.6038
19805TIP3    H180830   0.806   4.881  11.524 -0.0684  1.0368  0.1677
19805TIP3    H280831   0.820   4.825  11.664 -0.9242  2.2695  0.7613
19806TIP3   OH280832   5.493   1.136  17.127 -0.6420  0.2125 -0.0674
19806TIP3    H180833   5.427   1.201  17.150 -0.0217  1.0998 -0.7572
19806TIP3    H280834   5.531   1.109  17.210  0.7853  2.5396  0.0985
19807TIP3   OH280835   5.607   4.535  11.995 -0.3576  0.7003  0.5885
19807TIP3    H180836   5.594   4.596  11.923 -0.6944 -0.7275 -0.6252
19807TIP3    H280837   5.692   4.558  12.032 -0.6579  2.1405  0.4383
19808TIP3   OH280838   6.289   1.297  14.163  0.2028 -0.2359  0.1248
19808TIP3    H180839   6.234   1.304  14.242  1.0195 -0.7556  0.7638
19808TIP3    H280840   6.375   1.270  14.197  0.1945 -1.8529 -1.0703
19809TIP3   OH280841   0.517   5.389   4.856 -0.2192  0.0553  0.3452
19809TIP3    H180842   0.451   5.440   4.810  0.7518  1.2254  0.1912
19809TIP3    H280843   0.468   5.335   4.918 -1.2401  1.9272  1.2267
19810TIP3   OH280844   2.496   1.676  12.209  0.6569 -0.2188  0.0508
19810TIP3    H180845   2.585   1.646  12.192  0.2463 -1.1635 -0.5513
19810TIP3    H280846   2.441   1.617  12.158 -0.2299  1.3489 -0.9058
19811TIP3   OH280847   2.865   5.114  14.796 -0.6612 -0.0432 -0.1677
19811TIP3    H180848   2.824   5.052  14.855  1.2515 -0.1578  1.1089
19811TIP3    H280849   2.865   5.197  14.844 -3.4039  1.1137 -1.9392
19812TIP3   OH280850   2.631   2.503   5.465 -0.4245  0.4879 -0.8244
19812TIP3    H180851   2.720   2.469   5.459 -0.3513 -0.2341  2.6814
19812TIP3    H280852   2.581   2.434   5.508 -2.1484  1.7687 -0.6670
19813TIP3   OH280853   0.437   2.191  13.763 -0.0259 -0.1249 -0.0145
19813TIP3    H180854   0.445   2.171  13.670 -1.1570 -0.7235  0.0007
19813TIP3    H280855   0.444   2.287  13.767  0.3773 -0.1154 -0.6599
19814TIP3   OH280856   1.747   5.311  14.256  0.1015  0.4926 -0.1746
19814TIP3    H180857   1.679   5.302  14.190 -0.7335 -0.3638  0.7697
19814TIP3    H280858   1.782   5.399  14.243  0.8225 -0.0786 -2.5427
19815TIP3   OH280859   3.604   2.885  12.319 -0.0173 -0.1033 -0.6425
19815TIP3    H180860   3.584   2.953  12.383 -0.8546  0.2042 -1.2201
19815TIP3    H280861   3.684   2.915  12.276 -0.3985  0.5486 -0.9190
19816TIP3   OH280862   0.161   4.655   5.790  1.0891  0.3136  0.2938
19816TIP3    H180863   0.111   4.575   5.775  3.0198 -0.9025  0.0032
19816TIP3    H280864   0.252   4.627   5.786  1.8498  2.7259 -0.9300
19817TIP3   OH280865   4.775   2.324   4.262 -0.0895  0.6681 -0.6096
19817TIP3    H180866   4.738   2.237   4.248  0.0856  0.1001  1.9774
19817TIP3    H280867   4.705   2.374   4.304  0.4160  1.1844 -0.3655
19818TIP3   OH280868   5.484   0.377   1.644 -0.6148 -0.0688  0.3604
19818TIP3    H180869   5.477   0.405   1.553 -1.6995 -0.0655  0.4312
19818TIP3    H280870   5.511   0.456   1.692 -0.0679 -0.0646  0.0568
19819TIP3   OH280871   4.542   3.473   5.951 -0.1570 -0.2860 -0.1769
19819TIP3    H180872   4.610   3.540   5.942 -0.7701  0.3503 -0.2495
19819TIP3    H280873   4.589   3.391   5.961  0.6303  0.2853  0.9461
19820TIP3   OH280874   0.868   3.146  12.266  0.1301  0.0669  0.8773
19820TIP3    H180875   0.821   3.215  12.219 -0.7170 -1.0056  0.1113
19820TIP3    H280876   0.811   3.070  12.261  1.8307 -1.2424  0.0681
19821TIP3   OH280877   4.702   1.586  14.445  0.4461  0.1300 -0.1793
19821TIP3    H180878   4.705   1.677  14.416 -0.3697  0.4793  0.7794
19821TIP3    H280879   4.688   1.536  14.364 -0.6544  0.9781 -0.5425
19822TIP3   OH280880   3.488   3.835  15.942 -0.2642  0.5103 -0.0475
19822TIP3    H180881   3.400   3.797  15.948  0.0707 -0.1758  0.5710
19822TIP3    H280882   3.497   3.858  15.850 -0.9467  0.2365 -0.1942
19823TIP3   OH280883   3.269   3.071  11.931  0.3613  0.2780  0.3684
19823TIP3    H180884   3.302   3.032  11.850 -0.4007 -2.7479  1.3635
19823TIP3    H280885   3.173   3.064  11.923  0.2183  1.4386  0.8876
19824TIP3   OH280886   2.806   3.732  13.019 -0.6553  0.0427  0.4340
19824TIP3    H180887   2.763   3.674  13.081  0.5678 -2.1080 -0.6053
19824TIP3    H280888   2.899   3.710  13.026 -0.3075  0.8827 -1.0206
19825TIP3   OH280889   4.880   2.620   1.715  0.4251  0.1695  0.0164
19825TIP3    H180890   4.847   2.582   1.796 -0.3347  2.4697  0.8714
19825TIP3    H280891   4.974   2.628   1.729  0.1958  1.3710  1.1115
19826TIP3   OH280892   0.061   0.383  12.314  0.4212  0.0789  0.0263
19826TIP3    H180893   0.041   0.341  12.397  2.1417  0.1427  0.5080
19826TIP3    H280894   0.052   0.477  12.331  1.0577  0.1059  0.2321
19827TIP3   OH280895   4.439   4.274  12.260 -0.6426 -0.1674 -0.2681
19827TIP3    H180896   4.468   4.365  12.262 -3.1284  0.6939  0.3338
19827TIP3    H280897   4.364   4.274  12.200 -0.7812 -1.7897 -0.1477
19828TIP3   OH280898   4.648   0.471   3.794  0.0447 -0.9688  0.0469
19828TIP3    H180899   4.639   0.474   3.889 -0.7813 -1.1595 -0.0169
19828TIP3    H280900   4.734   0.509   3.776 -1.0247  2.0415  0.6730
19829TIP3   OH280901   4.263   2.355  14.917 -0.1117  0.1224  0.2629
19829TIP3    H180902   4.254   2.450  14.911 -0.5212  0.0753  0.0515
19829TIP3    H280903   4.294   2.339  15.006 -0.6353  0.4141  0.5012
19830TIP3   OH280904   2.848   4.406   0.912 -0.5071  0.5614  0.6684
19830TIP3    H180905   2.784   4.335   0.910  0.4478 -0.3689  1.8303
19830TIP3    H280906   2.929   4.367   0.880 -0.4227  1.6697 -0.5892
19831TIP3   OH280907   4.995   2.641  14.441  0.3208  0.5354  0.1088
19831TIP3    H180908   5.014   2.678  14.527  0.5818 -0.8672  0.6753
19831TIP3    H280909   5.080   2.639  14.397  0.6084 -0.8832  0.6933
19832TIP3   OH280910   1.562   2.769  17.203  0.6479  0.0677 -0.5601
19832TIP3    H180911   1.564   2.859  17.233  3.0007 -0.0159 -0.2564
19832TIP3    H280912   1.520   2.720  17.274 -1.7689  1.0194 -1.2404
19833TIP3   OH280913   0.420   0.945   5.363 -0.0906  0.0367 -0.2636
19833TIP3    H180914   0.497   0.919   5.412 -2.7269 -1.2864  3.6578
19833TIP3    H280915   0.383   0.863   5.329 -1.3722  0.2073  0.6382
19834TIP3   OH280916   2.006   0.578  13.876  0.3776 -0.1544  0.1095
19834TIP3    H180917   2.077   0.515  13.861  0.9928  0.4660  0.3282
19834TIP3    H280918   2.008   0.635  13.799  0.4503  0.1657  0.3436
19835TIP3   OH280919   3.653   0.719  12.005  0.4104  0.6493 -0.0721
19835TIP3    H180920   3.587   0.788  11.996  0.7020  1.5030  3.0673
19835TIP3    H280921   3.630   0.655  11.938 -2.5664  1.7302 -0.2527
19836TIP3   OH280922   6.718   0.101   1.446 -0.3485  0.1478 -0.4161
19836TIP3    H180923   6.770   0.114   1.525 -1.3482 -1.6853  0.6104
19836TIP3    H280924   6.639   0.154   1.459 -0.3282  0.1704 -0.3860
19837TIP3   OH280925   3.837   4.467   4.648 -0.5967  0.4253  0.0712
19837TIP3    H180926   3.848   4.446   4.556 -0.8309  0.9651 -0.0838
19837TIP3    H280927   3.926   4.466   4.684 -0.6043 -0.9235  0.1026
19838TIP3   OH280928   1.082   1.420  16.620  0.2823  0.1896 -0.3909
19838TIP3    H180929   1.048   1.390  16.535 -1.5648  2.2479 -0.4791
19838TIP3    H280930   1.167   1.460  16.598 -0.3014  0.9624 -1.3605
19839TIP3   OH280931   4.949   0.390   1.870 -0.2363 -0.3314 -0.0540
19839TIP3    H180932   4.917   0.462   1.925 -0.1082  0.2793 -0.7564
19839TIP3    H280933   5.009   0.341   1.926 -0.0349  0.3352  0.3220
19840TIP3   OH280934   3.608   6.506  12.746 -0.2374  0.1752 -0.1853
19840TIP3    H180935   3.564   6.439  12.799  0.2106 -0.4007 -0.5241
19840TIP3    H280936   3.579   6.489  12.657  0.1173  0.2378 -0.3147
19841TIP3   OH280937   4.808   2.005  15.087  0.6750 -0.5180 -0.4136
19841TIP3    H180938   4.834   1.952  15.162  0.7559 -0.3349 -0.3104
19841TIP3    H280939   4.724   1.969  15.060 -0.8297  1.2027  1.5651
19842TIP3   OH280940   3.162   0.782  11.283 -0.3721  0.1886 -0.3328
19842TIP3    H180941   3.119   0.819  11.360 -0.3305  1.3696 -0.8550
19842TIP3    H280942   3.097   0.790  11.213 -0.1895 -0.2932 -0.5583
19843TIP3   OH280943   6.434   5.926  15.760 -0.1376 -0.2854 -0.3272
19843TIP3    H180944   6.491   6.000  15.781 -0.4564 -0.2934  0.5864
19843TIP3    H280945   6.376   5.917  15.835  0.0094 -1.5817 -0.3405
19844TIP3   OH280946   1.441   5.691   4.178 -0.3622  0.5239 -0.6048
19844TIP3    H180947   1.455   5.614   4.122 -0.0423  0.5409 -0.5524
19844TIP3    H280948   1.346   5.702   4.180 -0.4342 -0.0793 -0.3326
19845TIP3   OH280949   3.912   0.197   2.724 -0.6457 -0.6356 -0.8189
19845TIP3    H180950   3.897   0.119   2.671 -1.5517 -0.1565 -1.2911
19845TIP3    H280951   3.966   0.166   2.797  0.0362 -1.4395 -1.6453
19846TIP3   OH280952   6.127   2.345  16.273 -0.3736 -0.3720 -0.3684
19846TIP3    H180953   6.138   2.408  16.201  0.3449  0.4040  0.3995
19846TIP3    H280954   6.067   2.279  16.238 -0.1865  0.0889 -1.6153
19847TIP3   OH280955   6.536   0.404   6.664 -0.3067 -0.1159 -0.0235
19847TIP3    H180956   6.547   0.481   6.720  0.2492  0.5707 -1.0355
19847TIP3    H280957   6.603   0.414   6.596  1.4342 -2.7112  1.1367
19848TIP3   OH280958   4.828   0.562  13.422 -0.1734 -0.1615 -0.1585
19848TIP3    H180959   4.784   0.513  13.353  0.4152 -1.9536  0.6884
19848TIP3    H280960   4.813   0.510  13.501  1.7531  0.2394  0.5151
19849TIP3   OH280961   5.742   3.991   2.975  0.1310 -0.3871 -0.3674
19849TIP3    H180962   5.745   4.051   2.901  1.9827 -0.0823 -0.1008
19849TIP3    H280963   5.788   3.913   2.946  0.3016 -0.5246  0.2466
19850TIP3   OH280964   5.350   2.657   2.936 -0.0992 -0.1830  0.1462
19850TIP3    H180965   5.386   2.604   3.007  0.6005  1.5805  1.1832
19850TIP3    H280966   5.256   2.662   2.956 -0.3461 -1.7601 -0.4993
19851TIP3   OH280967   5.310   0.932  11.256 -0.8813 -0.5061 -0.8431
19851TIP3    H180968   5.375   0.981  11.205 -1.4368 -0.5845 -1.6518
19851TIP3    H280969   5.248   0.998  11.285 -0.7755 -0.5175 -0.5868
19852TIP3   OH280970   5.661   2.997  12.583  0.1251  1.0510 -0.1536
19852TIP3    H180971   5.747   3.006  12.624  0.4575 -1.2045 -0.2280
19852TIP3    H280972   5.610   3.070  12.619  1.7535  1.8647  0.6493
19853TIP3   OH280973   1.142   4.577  10.416  0.0015  0.3495 -0.1520
19853TIP3    H180974   1.235   4.583  10.395  0.2387 -0.4324  0.6190
19853TIP3    H280975   1.111   4.668  10.416  0.5341  0.5439 -1.3807
19854TIP3   OH280976   2.219   0.813   2.495  0.6303 -0.1237  0.1498
19854TIP3    H180977   2.308   0.779   2.508  0.8050 -0.2214 -1.1839
19854TIP3    H280978   2.202   0.864   2.574  0.1491 -3.5853  2.5222
19855TIP3   OH280979   1.552   6.456   6.098 -0.0779  0.3745  0.6663
19855TIP3    H180980   1.624   6.454   6.161  0.6712 -2.5597 -0.1097
19855TIP3    H280981   1.473   6.446   6.151  0.5009 -1.5163  1.2494
19856TIP3   OH280982   3.127   5.762   3.818  0.2863 -0.6697  0.0747
19856TIP3    H180983   3.217   5.791   3.803  0.2774 -1.6414 -2.3517
19856TIP3    H280984   3.073   5.821   3.766 -0.6841  0.5494  2.2862
19857TIP3   OH280985   2.934   4.448   5.510  0.3356 -0.9966  0.5836
19857TIP3    H180986   3.025   4.459   5.482  0.5385 -1.4757  1.0281
19857TIP3    H280987   2.932   4.487   5.598  0.7497 -3.2123  1.6352
19858TIP3   OH280988   4.693   3.220   4.159  0.2161 -0.0277  0.1448
19858TIP3    H180989   4.711   3.201   4.251  0.3525 -0.6473 -0.0040
19858TIP3    H280990   4.738   3.151   4.111  0.6669  0.6476 -0.4232
19859TIP3   OH280991   1.282   5.154   0.062  0.3492  0.0233  0.1957
19859TIP3    H180992   1.325   5.191  -0.015 -1.0752 -0.4839 -0.8792
19859TIP3    H280993   1.336   5.079   0.086  1.7135  1.1298  0.7143
19860TIP3   OH280994   4.096   5.333  11.839 -0.1635 -0.4512  0.8846
19860TIP3    H180995   4.172   5.355  11.893  0.2142 -0.5440  0.4021
19860TIP3    H280996   4.120   5.363  11.751 -2.0363  2.6195  1.3057
19861TIP3   OH280997   5.619   0.497  15.979  0.6427 -0.4730  0.1696
19861TIP3    H180998   5.608   0.591  15.962  1.2869 -0.5826 -0.9339
19861TIP3    H280999   5.556   0.478  16.049  0.3973  0.7473  0.3065
19862TIP3   OH281000   6.373   6.574  16.255 -0.0048 -0.3787  0.5842
19862TIP3    H181001   6.298   6.571  16.315 -0.2868 -0.3519  0.2320
19862TIP3    H281002   6.403   6.483  16.251 -1.2911 -0.7815 -0.8735
19863TIP3   OH281003   1.340   4.618  15.859 -0.4168  0.2682  0.3033
19863TIP3    H181004   1.246   4.634  15.849 -0.8944 -0.0754  3.3066
19863TIP3    H281005   1.346   4.547  15.923  1.9092 -0.0028 -0.1108
19864TIP3   OH281006   0.234   3.606   2.040  0.4790  0.1538 -0.2207
19864TIP3    H181007   0.139   3.603   2.027  0.1721  1.7750  1.3057
19864TIP3    H281008   0.246   3.579   2.131  1.4171  0.6673 -0.1857
19865TIP3   OH281009   0.957   5.085   1.953 -0.2583  0.1026 -0.1457
19865TIP3    H181010   1.021   5.155   1.964 -1.5681  1.1931  0.8163
19865TIP3    H281011   0.888   5.105   2.016 -2.1346 -0.3639 -1.9637
19866TIP3   OH281012   4.623   5.939  11.610 -0.1015  0.2254  0.1349
19866TIP3    H181013   4.646   5.857  11.567 -0.3961 -0.0755  0.5440
19866TIP3    H281014   4.532   5.955  11.583  0.3975  1.1873 -1.1332
19867TIP3   OH281015   3.451   6.785  11.140  0.4896 -0.2073  0.0033
19867TIP3    H181016   3.390   6.765  11.069 -0.2439  1.8556 -0.0059
19867TIP3    H281017   3.403   6.763  11.220 -0.6537  2.0700  0.0350
19868TIP3   OH281018   4.631   1.478  11.841 -0.6528  0.9784 -0.1242
19868TIP3    H181019   4.699   1.515  11.898 -0.0945 -1.0425  0.6187
19868TIP3    H281020   4.667   1.485  11.753  2.1463 -2.8893  0.4569
19869TIP3   OH281021   6.596   4.305   1.307 -0.0707 -0.7341 -0.6075
19869TIP3    H181022   6.595   4.314   1.403 -0.0568 -1.5251 -0.5264
19869TIP3    H281023   6.504   4.307   1.282 -0.1986 -2.3952 -0.3751
19870TIP3   OH281024   5.948   1.958   5.914 -0.1314 -0.6719 -0.0499
19870TIP3    H181025   5.870   2.009   5.893 -0.2386 -0.3329  1.0861
19870TIP3    H281026   5.915   1.884   5.965  0.3324 -0.1032  1.1405
19871TIP3   OH281027   4.944   4.763  16.894 -0.3535 -0.0912  0.4506
19871TIP3    H181028   4.944   4.668  16.892 -2.1407 -0.1191 -0.5025
19871TIP3    H281029   5.001   4.789  16.821 -1.1749 -0.4607 -0.3326
19872TIP3   OH281030   4.344   3.165   5.770  0.1768  0.5782  0.3566
19872TIP3    H181031   4.333   3.220   5.692 -2.3017 -0.8805 -0.4388
19872TIP3    H281032   4.296   3.211   5.838  1.1658  1.1461  0.6999
19873TIP3   OH281033   2.596   4.515  15.340  0.0399  0.0134  0.1742
19873TIP3    H181034   2.502   4.500  15.331  0.5774 -3.1673 -1.6771
19873TIP3    H281035   2.626   4.446  15.400  1.1941  1.1784  1.0076
19874TIP3   OH281036   0.900   5.434  13.709 -0.5473  0.4135  0.2690
19874TIP3    H181037   0.962   5.503  13.733 -1.4973  1.5709 -0.4696
19874TIP3    H281038   0.882   5.389  13.792  0.5515  0.6577  0.6612
19875TIP3   OH281039   4.195   3.953  14.772  0.7437  0.7875 -0.3249
19875TIP3    H181040   4.125   3.981  14.831  0.4503  1.3883 -0.9480
19875TIP3    H281041   4.194   3.857  14.778  0.9680  0.8373  0.9152
19876TIP3   OH281042   1.414   3.293   0.744 -0.3568 -0.4963  0.0061
19876TIP3    H181043   1.451   3.349   0.812 -0.0324  0.8744 -1.2371
19876TIP3    H281044   1.407   3.207   0.784 -1.5789  0.5712  2.2517
19877TIP3   OH281045   2.246   2.012  13.644  0.2034  0.2758  0.7412
19877TIP3    H181046   2.151   2.003  13.638  0.0509  1.2553  1.3449
19877TIP3    H281047   2.279   1.978  13.561 -0.5474 -1.4418  1.1070
19878TIP3   OH281048   4.918   0.958   4.479 -0.5475 -0.0816 -0.1463
19878TIP3    H181049   5.012   0.939   4.484 -0.4325  0.7089  2.2466
19878TIP3    H281050   4.876   0.877   4.508 -0.7537 -0.9326 -2.5786
19879TIP3   OH281051   0.119   4.914  13.979  0.0749 -0.3669  0.1014
19879TIP3    H181052   0.144   4.997  14.020 -1.0343 -0.5342  1.1655
19879TIP3    H281053   0.044   4.936  13.923 -0.5642 -0.7349  0.8017
19880TIP3   OH281054   2.496   6.565   3.989  0.3030 -0.1036  0.1333
19880TIP3    H181055   2.540   6.581   3.905 -0.3069 -2.0513 -0.6199
19880TIP3    H281056   2.563   6.581   4.055  0.4308  2.8179 -0.5811
19881TIP3   OH281057   2.668   1.146  15.378  0.0359  0.8407 -0.6489
19881TIP3    H181058   2.731   1.127  15.448 -0.4001 -1.0706 -0.7359
19881TIP3    H281059   2.720   1.150  15.298  0.0032 -1.6170 -0.8530
19882TIP3   OH281060   0.437   4.868   4.741 -0.0187  0.2431 -0.0148
19882TIP3    H181061   0.342   4.860   4.750 -0.0578  0.3561 -0.3379
19882TIP3    H281062   0.466   4.893   4.829 -0.3379  0.6719 -0.0251
19883TIP3   OH281063   4.535   6.302   0.346  0.5004  0.0425  0.1367
19883TIP3    H181064   4.484   6.361   0.401  0.4575 -0.0844  0.2351
19883TIP3    H281065   4.491   6.217   0.355  0.5982 -0.0180  0.0465
19884TIP3   OH281066   0.708   0.597  16.747 -0.2672  0.0909  0.0455
19884TIP3    H181067   0.696   0.658  16.674 -0.1528 -2.0222 -1.8486
19884TIP3    H281068   0.802   0.583  16.751 -0.4162 -1.3793 -0.8394
19885TIP3   OH281069   6.151   4.247   4.490  0.1281  0.0113  0.3737
19885TIP3    H181070   6.196   4.168   4.521 -0.5974 -0.6218 -0.1311
19885TIP3    H281071   6.220   4.302   4.454  0.3417 -1.8470 -2.3461
19886TIP3   OH281072   3.021   1.120   4.989  0.1000 -0.6072  0.4431
19886TIP3    H181073   2.967   1.070   5.050  0.2543 -1.4370 -0.0845
19886TIP3    H281074   3.011   1.075   4.906 -1.0971  1.2332 -0.4653
19887TIP3   OH281075   4.085   6.540  12.648 -0.1181 -0.1030  0.2213
19887TIP3    H181076   4.070   6.598  12.574 -0.5521  0.5020  0.7747
19887TIP3    H281077   4.083   6.452  12.610 -0.2374  0.1997 -0.4973
19888TIP3   OH281078   4.188   1.231  10.715  0.2467  0.0056 -0.8033
19888TIP3    H181079   4.130   1.304  10.738 -0.2308 -0.9799  1.3599
19888TIP3    H281080   4.130   1.168  10.672 -0.6759 -1.4005  2.2024
19889TIP3   OH281081   3.628   1.246  13.193  0.0101  0.5862  0.8545
19889TIP3    H181082   3.699   1.192  13.160 -0.5689  0.7491 -0.7258
19889TIP3    H281083   3.567   1.184  13.233 -0.0316  0.1963  0.2007
19890TIP3   OH281084   2.294   1.993   4.585  0.3075  0.1811 -0.1293
19890TIP3    H181085   2.238   1.917   4.598  0.4510  0.0164 -0.4511
19890TIP3    H281086   2.364   1.983   4.648  1.8079 -1.3751 -1.9142
19891TIP3   OH281087   2.867   3.584  14.467 -0.2646 -0.2115  0.4701
19891TIP3    H181088   2.903   3.559  14.552 -1.6605  0.1253  1.1912
19891TIP3    H281089   2.845   3.677  14.477  1.4109  0.4023 -0.9525
19892TIP3   OH281090   5.297   3.909  12.224 -0.0783  0.0179 -0.2332
19892TIP3    H181091   5.220   3.966  12.227 -0.0325  0.0866 -0.3688
19892TIP3    H281092   5.277   3.839  12.286  0.6396  1.1319  1.3319
19893TIP3   OH281093   6.531   5.158   3.047  0.2014 -0.0101  0.2722
19893TIP3    H181094   6.474   5.153   3.124  1.3417  2.5254  1.3926
19893TIP3    H281095   6.613   5.194   3.079  1.0432  0.3015 -2.0020
19894TIP3   OH281096   2.583   0.280   1.334 -0.2760 -0.7411  0.7669
19894TIP3    H181097   2.614   0.359   1.378  0.8715  0.5577 -2.1188
19894TIP3    H281098   2.491   0.272   1.360  0.0683  0.4722  2.5152
19895TIP3   OH281099   1.984   5.392   0.252  0.6153  0.0563 -0.0069
19895TIP3    H181100   1.896   5.356   0.244  1.6129 -2.6122 -0.3487
19895TIP3    H281101   1.994   5.414   0.344 -0.0788 -0.6763  0.2540
19896TIP3   OH281102   4.708   5.437  11.400  0.0195  0.3599  0.0345
19896TIP3    H181103   4.638   5.409  11.459 -0.4273 -0.3950 -0.8411
19896TIP3    H281104   4.683   5.403  11.314  2.3283 -1.5243 -0.0089
19897TIP3   OH281105   1.158   2.588   5.308  0.0272  0.2965  0.3963
19897TIP3    H181106   1.154   2.516   5.245  3.0293 -0.4290  0.8640
19897TIP3    H281107   1.094   2.565   5.375  0.2993 -1.5253  0.0915
19898TIP3   OH281108   5.007   4.428   3.572 -0.8449  0.3391 -1.0030
19898TIP3    H181109   4.976   4.519   3.569  1.8086  1.4641  1.3347
19898TIP3    H281110   5.090   4.430   3.524  0.4626 -0.1924  1.1129
19899TIP3   OH281111   0.658   3.892  16.981  0.4903  0.2513  0.4923
19899TIP3    H181112   0.720   3.966  16.985 -0.7794  1.3249  1.2245
19899TIP3    H281113   0.617   3.900  16.895  1.2182 -0.3404  0.0859
19900TIP3   OH281114   6.626   2.784   3.745 -0.1889 -0.1075 -0.5445
19900TIP3    H181115   6.655   2.872   3.770  0.4213 -0.6437  0.7311
19900TIP3    H281116   6.532   2.784   3.761 -0.3952  0.6536 -1.6491
19901TIP3   OH281117   6.718   5.060  16.507  0.7860  0.0840  0.2187
19901TIP3    H181118   6.805   5.021  16.517  0.5642 -0.6780 -0.7146
19901TIP3    H281119   6.699   5.097  16.593  2.6763  1.6359  0.0578
19902TIP3   OH281120   3.790   3.503   3.528  0.8376 -0.1752 -0.6247
19902TIP3    H181121   3.859   3.514   3.593 -1.3581  0.8241  1.7560
19902TIP3    H281122   3.746   3.588   3.525 -0.3149 -0.7754 -2.0186
19903TIP3   OH281123   4.461   6.371   1.518  0.0087 -0.1018  0.1569
19903TIP3    H181124   4.397   6.383   1.588  2.0665 -0.3992  2.1833
19903TIP3    H281125   4.466   6.457   1.476 -0.8670  0.2253  0.6814
19904TIP3   OH281126   3.935   1.544   4.233  0.3393 -0.0893 -0.1106
19904TIP3    H181127   3.964   1.600   4.161 -0.4775  2.5486  1.4672
19904TIP3    H281128   3.847   1.516   4.206  0.0539  0.8378 -0.2020
19905TIP3   OH281129   3.372   0.095  11.808 -0.0146 -0.5234 -0.5399
19905TIP3    H181130   3.442   0.158  11.789 -0.0420 -0.8739 -1.9114
19905TIP3    H281131   3.354   0.107  11.901  0.2254  1.2486 -0.6841
19906TIP3   OH281132   6.089   2.836  16.599 -0.4204  0.2307 -0.0218
19906TIP3    H181133   6.046   2.774  16.541 -1.3259 -0.5944  1.4524
19906TIP3    H281134   6.019   2.872  16.652  0.5812 -0.8711  2.2025
19907TIP3   OH281135   1.744   0.586   0.439 -0.2685  0.3943  0.7534
19907TIP3    H181136   1.744   0.537   0.521  1.6907 -0.6792  0.2065
19907TIP3    H281137   1.675   0.651   0.448 -0.3066  0.0941  3.1186
19908TIP3   OH281138   5.602   4.506   2.579  0.1180 -0.4656 -0.1700
19908TIP3    H181139   5.628   4.512   2.488  0.4607 -0.5091 -0.0744
19908TIP3    H281140   5.513   4.470   2.576 -0.9068  1.9085 -0.6201
19909TIP3   OH281141   5.087   3.211  13.439 -0.6425  0.3072  0.1164
19909TIP3    H181142   5.134   3.294  13.452  0.0580  0.0743 -0.8062
19909TIP3    H281143   5.156   3.145  13.432 -1.1364 -0.1719 -0.4137
19910TIP3   OH281144   0.578   6.641  14.717 -0.3675  0.7003 -0.1204
19910TIP3    H181145   0.578   6.644  14.813 -1.1904  1.4123 -0.1294
19910TIP3    H281146   0.543   6.726  14.691  1.8078  1.3419 -1.0997
19911TIP3   OH281147   1.089   5.842  17.082 -0.2921  0.0459  0.3298
19911TIP3    H181148   1.177   5.809  17.099 -0.1543  0.7550  1.0175
19911TIP3    H281149   1.098   5.937  17.081 -0.7900  0.1124 -1.0469
19912TIP3   OH281150   2.481   0.742  11.950 -0.1096  0.3730 -0.0941
19912TIP3    H181151   2.416   0.687  11.995 -0.5850  0.0687 -1.1046
19912TIP3    H281152   2.444   0.754  11.862  1.6411 -0.6170 -1.0257
19913TIP3   OH281153   2.234   0.202   5.513 -0.6005  0.0337  0.4443
19913TIP3    H181154   2.284   0.131   5.553 -0.6141 -0.1341  0.1689
19913TIP3    H281155   2.144   0.171   5.512 -0.8822  0.7092  1.7859
19914TIP3   OH281156   6.143   5.513  10.957  0.1665  0.3710  0.3290
19914TIP3    H181157   6.131   5.492  11.049 -0.7828 -0.7088 -0.0070
19914TIP3    H281158   6.058   5.495  10.917  0.9173 -0.4642 -0.9775
19915TIP3   OH281159   1.431   5.207   1.592  0.0718 -0.0219 -0.6296
19915TIP3    H181160   1.369   5.216   1.520 -0.1287 -0.9503 -0.5843
19915TIP3    H281161   1.384   5.157   1.659 -0.3220  2.1662  0.8541
19916TIP3   OH281162   1.093   4.964   5.971 -0.0899  0.5813  0.2040
19916TIP3    H181163   1.051   5.007   6.045  0.2083 -0.4549  0.9930
19916TIP3    H281164   1.168   4.918   6.009  0.2878  0.3425 -0.7988
19917TIP3   OH281165   1.643   1.286  12.475 -0.0926  0.3312 -0.0652
19917TIP3    H181166   1.615   1.365  12.429 -0.2494  0.2187 -0.1600
19917TIP3    H281167   1.737   1.297  12.486 -0.6304  3.0565  4.4960
19918TIP3   OH281168   1.778   2.770  14.915  0.7456  0.0100  1.2160
19918TIP3    H181169   1.712   2.713  14.953 -0.1455 -1.3452 -2.0146
19918TIP3    H281170   1.814   2.720  14.841  3.1523  1.9386  0.9305
19919TIP3   OH281171   1.416   6.684  14.479  0.1441 -0.3148 -0.0202
19919TIP3    H181172   1.414   6.706  14.572  2.2848  2.2080 -0.4481
19919TIP3    H281173   1.346   6.737  14.441  0.8950  0.6256 -0.1343
19920TIP3   OH281174   2.502   0.351  12.035 -0.2593 -0.2510  0.0948
19920TIP3    H181175   2.494   0.301  12.116  0.7364  0.4108  0.6179
19920TIP3    H281176   2.429   0.413  12.038 -0.6259 -0.6786  0.1492
19921TIP3   OH281177   0.849   0.347  14.759  0.5407 -0.0978 -0.7255
19921TIP3    H181178   0.841   0.278  14.825  1.0461  2.1629  1.9215
19921TIP3    H281179   0.942   0.348  14.736  0.5699 -0.2195 -0.6135
19922TIP3   OH281180   5.245   5.880  14.448  0.1717 -0.1622 -0.5410
19922TIP3    H181181   5.273   5.792  14.475  0.7605  0.4586  0.9875
19922TIP3    H281182   5.321   5.935  14.463 -0.9487  1.0684  1.0824
19923TIP3   OH281183   5.131   3.059   6.287 -0.6004 -0.2206 -0.1846
19923TIP3    H181184   5.184   3.034   6.363 -1.4758 -0.9310  0.2057
19923TIP3    H281185   5.152   3.152   6.274 -0.2834 -0.1322  0.7982
19924TIP3   OH281186   4.734   4.608   2.174 -0.2384  0.3274 -0.2675
19924TIP3    H181187   4.739   4.535   2.236 -2.5199  2.5214  2.8581
19924TIP3    H281188   4.792   4.674   2.211 -1.9188  1.8365 -0.2063
19925TIP3   OH281189   4.916   1.444   5.322 -0.1696  0.1234 -0.3181
19925TIP3    H181190   5.003   1.442   5.362 -0.2309  1.1991 -0.1110
19925TIP3    H281191   4.880   1.529   5.347 -0.3339  0.7048 -2.3969
19926TIP3   OH281192   4.920   2.392  16.425 -0.1774 -0.2271 -0.0618
19926TIP3    H181193   4.969   2.412  16.505 -1.9353  0.5338  0.9068
19926TIP3    H281194   4.840   2.349  16.457 -0.5093 -0.7405 -1.4991
19927TIP3   OH281195   6.703   3.815   4.359  0.7899  0.3660  0.3008
19927TIP3    H181196   6.777   3.874   4.373  0.4820  0.6221  0.8757
19927TIP3    H281197   6.704   3.799   4.264  1.3231  0.7038  0.2415
19928TIP3   OH281198   4.746   6.682  14.242 -0.5198 -0.1978 -0.2870
19928TIP3    H181199   4.741   6.702  14.148  2.7031 -2.6976 -1.1708
19928TIP3    H281200   4.792   6.758  14.280  0.4820 -0.3034 -1.2431
19929TIP3   OH281201   1.231   6.054  10.798  0.0044  0.1852  0.3163
19929TIP3    H181202   1.215   6.014  10.712 -0.6506 -0.5735  0.7778
19929TIP3    H281203   1.288   5.991  10.843 -2.5704 -1.2892  1.7675
19930TIP3   OH281204   5.015   0.149   4.523 -0.0814  0.7045  0.4284
19930TIP3    H181205   5.007   0.063   4.482 -2.0391  1.1841 -0.3025
19930TIP3    H281206   5.100   0.182   4.494  0.5551 -0.8306  0.4675
19931TIP3   OH281207   1.805   4.611  16.154 -0.3189  0.2001 -0.1606
19931TIP3    H181208   1.712   4.624  16.135 -0.0386 -0.2776 -2.0425
19931TIP3    H281209   1.850   4.673  16.096  0.5737  0.0695  0.3702
19932TIP3   OH281210   0.222   6.408   6.051 -0.0419 -0.1040  0.4441
19932TIP3    H181211   0.159   6.382   6.118  0.4388  1.2814  1.4788
19932TIP3    H281212   0.225   6.333   5.991 -0.7529 -1.2386  1.7597
19933TIP3   OH281213   3.982   1.311   3.015 -0.1494  0.2176 -0.1753
19933TIP3    H181214   3.968   1.325   3.109  1.3201  2.1848 -0.1854
19933TIP3    H281215   4.077   1.310   3.004 -0.2432  2.1357 -1.8448
19934TIP3   OH281216   1.625   4.294  11.982  0.2175 -0.3559 -0.4006
19934TIP3    H181217   1.677   4.357  11.931  0.8449 -0.4945  0.0497
19934TIP3    H281218   1.637   4.211  11.937 -0.6465 -0.1592 -1.0199
19935TIP3   OH281219   3.268   1.261   4.308 -0.0796  0.4141  0.6894
19935TIP3    H181220   3.284   1.335   4.250  0.7841 -1.3081 -1.3629
19935TIP3    H281221   3.352   1.244   4.349  0.2279 -0.6459 -0.3552
19936TIP3   OH281222   0.341   3.883  12.480 -0.7388 -0.0571 -0.1757
19936TIP3    H181223   0.429   3.875  12.518  0.4231  2.5651 -2.0109
19936TIP3    H281224   0.353   3.862  12.388 -1.6434  1.9760 -0.7986
19937TIP3   OH281225   5.777   1.157   0.716  0.3714  0.1374  0.2382
19937TIP3    H181226   5.725   1.153   0.636  0.5301 -0.0451  0.1423
19937TIP3    H281227   5.841   1.227   0.700  0.7733 -0.2858 -0.0215
19938TIP3   OH281228   0.585   2.629  14.895  0.8641  0.7270 -0.4815
19938TIP3    H181229   0.648   2.561  14.869  0.6337  0.0543  0.6453
19938TIP3    H281230   0.602   2.702  14.835 -0.2983 -1.0611 -3.2036
19939TIP3   OH281231   3.826   3.400   4.211 -0.0515  0.2549 -0.3059
19939TIP3    H181232   3.842   3.342   4.286 -0.2988 -0.5742 -0.8857
19939TIP3    H281233   3.742   3.442   4.231  0.3698  0.8240  0.3553
19940TIP3   OH281234   0.062   2.877  13.382  0.0912  0.3698 -0.3393
19940TIP3    H181235   0.072   2.832  13.467  2.9121 -0.2954 -0.8976
19940TIP3    H281236   0.081   2.968  13.402  0.6658  0.2297 -0.1971
19941TIP3   OH281237   5.443   1.846  12.377  0.6983  0.2842 -0.2569
19941TIP3    H181238   5.508   1.904  12.415 -1.0226  1.0196  1.7146
19941TIP3    H281239   5.397   1.807  12.452 -0.8344 -0.5507 -1.5515
19942TIP3   OH281240   1.140   6.456   5.959  0.1395 -0.0992  0.1784
19942TIP3    H181241   1.131   6.411   6.044  1.2333 -0.7433 -0.0291
19942TIP3    H281242   1.050   6.470   5.930 -0.2460 -0.3362  1.2053
19943TIP3   OH281243   0.511   2.332   0.513  0.0807 -0.6772 -0.7436
19943TIP3    H181244   0.435   2.371   0.472  0.9969  2.7618  0.4849
19943TIP3    H281245   0.475   2.270   0.577 -2.1795  3.7323  2.7845
19944CLA    CLA81246   3.143   4.443   0.154 -0.2008  0.5331  0.0434
19945LIG     O181247   3.531   3.454   5.828 -0.0625 -0.6667 -0.4467
19945LIG     O281248   3.563   3.259   5.068  0.3808 -0.2063  0.1223
19945LIG     O381249   3.120   3.795   6.178 -0.3395 -0.1394 -0.0392
19945LIG     O481250   3.572   3.464   4.986 -0.0588  0.1903  0.7990
19945LIG      N81251   3.776   3.540   5.658  0.3996  0.7008  0.8046
19945LIG     C181252   3.738   3.514   5.509  0.0824 -0.0008  0.1577
19945LIG     C281253   3.757   3.420   5.744  0.5934 -0.8995 -0.2560
19945LIG     C381254   3.813   3.415   5.426  0.9421  0.2144  0.4228
19945LIG     C481255   3.699   3.652   5.703 -0.1802 -0.1520 -0.2843
19945LIG     C581256   3.914   3.585   5.665 -0.0376  0.2990 -0.1301
19945LIG     C681257   3.620   3.361   5.772  0.0328 -0.4320 -0.0915
19945LIG     C781258   3.753   3.420   5.280 -0.2771 -0.7388 -0.2387
19945LIG     C881259   3.432   3.387   5.906 -0.7276 -0.6257  0.5697
19945LIG     C981260   3.821   3.329   5.185 -0.6600  0.3288  0.5043
19945LIG    C1081261   3.338   3.498   5.969 -0.4926  0.0998 -0.0813
19945LIG    C1181262   3.483   3.328   6.044 -0.2362 -0.0567  0.5512
19945LIG    C1281263   3.351   3.290   5.809  0.0981  0.2763 -0.9188
19945LIG    C1381264   3.777   3.348   5.044  0.0022  0.0573  0.0370
19945LIG    C1481265   3.199   3.476   5.982 -0.3868 -0.7534  0.6207
19945LIG    C1581266   3.398   3.621   6.006 -0.5840  0.1856  0.4250
19945LIG    C1681267   3.607   3.379   6.100  0.2161  0.8093 -0.5744
19945LIG    C1781268   3.267   3.338   5.706 -0.6824  0.2120  0.2758
19945LIG    C1881269   3.399   3.242   6.122  1.1062  0.0563 -0.1610
19945LIG    C1981270   3.369   3.153   5.815  0.2996 -0.0619 -0.0790
19945LIG    C2081271   3.629   3.365   5.020 -0.3742  0.3749  0.0887
19945LIG    C2181272   3.127   3.575   6.055  0.5094 -0.9725  0.2077
19945LIG    C2281273   3.319   3.717   6.071 -0.6315 -0.5984  0.3453
19945LIG    C2381274   3.650   3.324   6.228 -0.1215 -0.0293  0.1063
19945LIG    C2481275   3.208   3.254   5.622  0.2527  0.8961 -0.4239
19945LIG    C2581276   3.446   3.188   6.245 -0.2349 -0.0442 -0.1035
19945LIG    C2681277   3.303   3.060   5.732 -0.0745  0.0703  0.1500
19945LIG    C2781278   3.187   3.693   6.107 -0.5526  0.2213 -0.0731
19945LIG    C2881279   3.562   3.238   6.298  0.1182  0.0558  0.3032
19945LIG    C2981280   3.211   3.117   5.639 -0.3182  0.1502  0.2029
19945LIG    C3081281   2.980   3.792   6.181 -0.3293  0.5554 -0.0930
19945LIG     H181282   3.757   3.609   5.461  0.7292  0.0383  0.4799
19945LIG     H281283   3.631   3.501   5.501 -0.3882  0.9522  3.3535
19945LIG     H381284   3.787   3.453   5.842  2.3364 -1.0837 -0.7079
19945LIG     H481285   3.822   3.340   5.712 -0.6276 -1.8712 -0.3839
19945LIG     H581286   3.811   3.315   5.473 -0.1882 -0.1599 -0.3756
19945LIG     H681287   3.921   3.438   5.433  1.0206 -0.0750  0.1800
19945LIG     H781288   3.714   3.737   5.638  2.2532 -0.0928  0.2364
19945LIG     H881289   3.734   3.689   5.798  1.1342 -1.9408 -0.0101
19945LIG     H981290   3.594   3.628   5.707 -0.4015  0.8481  0.1841
19945LIG    H1081291   3.934   3.674   5.608  0.8341  0.1532 -0.0682
19945LIG    H1181292   3.987   3.513   5.630  0.5075  0.6461  0.2720
19945LIG    H1281293   3.943   3.608   5.766  0.6518 -2.2364  0.3250
19945LIG    H1381294   3.575   3.324   5.677  0.8228 -1.9260  0.0900
19945LIG    H1481295   3.634   3.272   5.836  4.0533 -0.3822 -0.6503
19945LIG    H1581296   3.771   3.527   5.253  1.3258 -0.7940  0.4437
19945LIG    H1681297   3.642   3.422   5.283 -0.2725  1.4420  1.3244
19945LIG    H1781298   3.817   3.220   5.207 -0.4903  0.3509  0.6472
19945LIG    H1881299   3.928   3.350   5.206 -0.2616 -1.2544  0.1990
19945LIG    H1981300   3.813   3.279   4.966  2.4709  0.3074  0.8857
19945LIG    H2081301   3.814   3.448   5.013 -0.2890  0.2345  0.2469
19945LIG    H2181302   3.155   3.386   5.941  2.4748 -1.9403 -0.0785
19945LIG    H2281303   3.503   3.639   5.986 -0.6726  0.9407  0.6039
19945LIG    H2381304   3.669   3.456   6.056  0.5507  0.8077 -0.1096
19945LIG    H2481305   3.256   3.445   5.697  0.5419  0.6171  2.7273
19945LIG    H2581306   3.301   3.215   6.084  0.8513  1.0536 -0.2509
19945LIG    H2681307   3.448   3.114   5.878  0.9192  1.0704 -0.1404
19945LIG    H2781308   3.022   3.554   6.067  0.0703  0.1324 -1.2586
19945LIG    H2881309   3.358   3.812   6.105  0.6022 -0.8745 -0.2372
19945LIG    H2981310   3.737   3.357   6.282  0.4364 -2.5876  0.8840
19945LIG    H3081311   3.151   3.294   5.539 -0.6154  0.3917 -0.0842
19945LIG    H3181312   3.371   3.138   6.304  0.5660  0.9608  1.8471
19945LIG    H3281313   3.317   2.953   5.733 -1.0279 -0.1203 -1.4608
19945LIG    H3381314   3.590   3.198   6.394 -1.0056  0.9421  1.0288
19945LIG    H3481315   3.138   3.054   5.591 -1.9993  1.3532  1.0927
19945LIG    H3581316   3.471   3.286   5.080  0.5669  0.7224 -0.4442
19945LIG    H3681317   2.949   3.879   6.242 -0.9401  1.1994 -1.2921
19945LIG    H3781318   2.946   3.698   6.229 -1.5631  1.6745  1.2767
19945LIG    H3881319   2.936   3.799   6.079  0.4948  1.2940 -0.4122
   6.79018   6.79018  17.22962
