;;
;; Generated by CHARMM-GUI FF-Converter
;;
;; Correspondance:
;; jul316@lehigh.edu or wonpil@lehigh.edu
;;
;; The main GROMACS topology file
;;
#include "charmm36-jul2022.ff/forcefield.itp
#include "lig/charmm36.itp"
#include "lig/LIG.itp"

; Include forcefield parameters
; #include "toppar/forcefield.itp"
#include "toppar/CHL1.itp"
#include "toppar/SAPC.itp"
#include "toppar/SLPC.itp"
#include "toppar/SAPS.itp"
#include "toppar/OSM.itp"
#include "toppar/SAPE.itp"
#include "toppar/SOPE.itp"
#include "toppar/SAPI.itp"
#include "toppar/POPC.itp"
#include "toppar/SOD.itp"
#include "toppar/CLA.itp"
#include "toppar/TIP3.itp"

[ system ]
; Name
Title

[ molecules ]
; Compound	#mols
CHL1  	          56
SAPC  	          12
SLPC  	          12
SAPS  	          20
OSM   	          44
SAPE  	          28
SOPE  	          12
SAPI  	           4
POPC  	           4
SOD   	          77
CLA   	          53
TIP3        19621
CLA              1
LIG  	1
